<event>
 7    1  0.3440346E-013  0.7246151E+02  0.7816164E-02  0.1226708E+00
        -11   -1    0    0    0    0  0.00000000000E+00  0.00000000000E+00  0.45593999997E+02  0.45594000000E+02  0.51100000000E-03 0.  1.
         11   -1    0    0    0    0 -0.00000000000E+00 -0.00000000000E+00 -0.45593999997E+02  0.45594000000E+02  0.51100000000E-03 0. -1.
    9900012    2    1    2    0    0  0.12058415155E+02  0.12975032489E+02 -0.60765572626E+01  0.72461510945E+02  0.69999922687E+02 0.  0.
        -12    1    1    2    0    0 -0.12058415155E+02 -0.12975032489E+02  0.60765572626E+01  0.18726489055E+02  0.00000000000E+00 0.  1.
         11    1    3    3    0    0  0.72971582621E+01 -0.44118717449E+01  0.15412100611E+01  0.86653597565E+01  0.51100000000E-03 0. -1.
        -11    1    3    3    0    0  0.30256378500E+02  0.21123962627E+02  0.88496628975E-01  0.36900922331E+02  0.51100000000E-03 0.  1.
         12    1    3    3    0    0 -0.25495121607E+02 -0.37370583925E+01 -0.77062639527E+01  0.26895228857E+02  0.00000000000E+00 0. -1.
</event>
<event>
 7    1  0.3440346E-013  0.7246160E+02  0.7816164E-02  0.1226708E+00
        -11   -1    0    0    0    0  0.00000000000E+00  0.00000000000E+00  0.45593999997E+02  0.45594000000E+02  0.51100000000E-03 0.  1.
         11   -1    0    0    0    0 -0.00000000000E+00 -0.00000000000E+00 -0.45593999997E+02  0.45594000000E+02  0.51100000000E-03 0. -1.
    9900012    2    1    2    0    0 -0.45369524587E+01  0.16006950887E+02 -0.85948581104E+01  0.72461601514E+02  0.70000040670E+02 0.  0.
        -12    1    1    2    0    0  0.45369524587E+01 -0.16006950887E+02  0.85948581104E+01  0.18726398486E+02  0.00000000000E+00 0.  1.
         11    1    3    3    0    0  0.45571760713E+01  0.25426991667E+02 -0.23228785499E+02  0.34740124280E+02  0.51100000000E-03 0. -1.
        -11    1    3    3    0    0 -0.46490506815E+01  0.15825144215E+01 -0.95748071588E+01  0.10760806500E+02  0.51100000000E-03 0.  1.
        -12    1    3    3    0    0 -0.44450778485E+01 -0.11002555202E+02  0.24208734547E+02  0.26960670734E+02  0.00000000000E+00 0.  1.
</event>
<event>
 7    1  0.3440346E-013  0.7246152E+02  0.7816164E-02  0.1226708E+00
        -11   -1    0    0    0    0  0.00000000000E+00  0.00000000000E+00  0.45593999997E+02  0.45594000000E+02  0.51100000000E-03 0.  1.
         11   -1    0    0    0    0 -0.00000000000E+00 -0.00000000000E+00 -0.45593999997E+02  0.45594000000E+02  0.51100000000E-03 0. -1.
    9900012    2    1    2    0    0  0.27048540974E+01  0.42539759923E+01 -0.18035200407E+02  0.72461521390E+02  0.69999936293E+02 0.  0.
        -12    1    1    2    0    0 -0.27048540974E+01 -0.42539759923E+01  0.18035200407E+02  0.18726478610E+02  0.00000000000E+00 0.  1.
         11    1    3    3    0    0  0.28855391985E+01  0.45556711070E+01 -0.19169804541E+01  0.57232237440E+01  0.51100000000E-03 0. -1.
        -11    1    3    3    0    0 -0.15658106045E+02 -0.13933323251E+01  0.21159842752E+02  0.26360132880E+02  0.51100000000E-03 0.  1.
         12    1    3    3    0    0  0.15477420944E+02  0.10916372104E+01 -0.37278062704E+02  0.40378164766E+02  0.00000000000E+00 0. -1.
</event>
<event>
 7    1  0.3440346E-013  0.7246159E+02  0.7816164E-02  0.1226708E+00
        -11   -1    0    0    0    0  0.00000000000E+00  0.00000000000E+00  0.45593999997E+02  0.45594000000E+02  0.51100000000E-03 0.  1.
         11   -1    0    0    0    0 -0.00000000000E+00 -0.00000000000E+00 -0.45593999997E+02  0.45594000000E+02  0.51100000000E-03 0. -1.
    9900012    2    1    2    0    0 -0.16728429651E+02 -0.58674938949E+01 -0.60341208377E+01  0.72461589306E+02  0.70000024766E+02 0.  0.
        -12    1    1    2    0    0  0.16728429651E+02  0.58674938949E+01  0.60341208377E+01  0.18726410694E+02  0.00000000000E+00 0.  1.
         11    1    3    3    0    0 -0.53011048905E+01 -0.82457627871E+01 -0.23670006793E+02  0.25619592870E+02  0.51100000000E-03 0. -1.
        -11    1    3    3    0    0  0.46111265362E+01  0.11835395646E+02 -0.81091446775E+01  0.15069748030E+02  0.51100000000E-03 0.  1.
        -12    1    3    3    0    0 -0.16038451297E+02 -0.94571267540E+01  0.25745030632E+02  0.31772248405E+02  0.00000000000E+00 0.  1.
</event>
<event>
 7    1  0.3440346E-013  0.7246159E+02  0.7816164E-02  0.1226708E+00
        -11   -1    0    0    0    0  0.00000000000E+00  0.00000000000E+00  0.45593999997E+02  0.45594000000E+02  0.51100000000E-03 0.  1.
         11   -1    0    0    0    0 -0.00000000000E+00 -0.00000000000E+00 -0.45593999997E+02  0.45594000000E+02  0.51100000000E-03 0. -1.
    9900012    2    1    2    0    0 -0.10741222383E+02  0.10731143887E+02 -0.10961172646E+02  0.72461585149E+02  0.70000019350E+02 0.  0.
        -12    1    1    2    0    0  0.10741222383E+02 -0.10731143887E+02  0.10961172646E+02  0.18726414851E+02  0.00000000000E+00 0.  1.
         11    1    3    3    0    0  0.92678665631E+00  0.14878583026E+02 -0.12351713489E+02  0.19359648570E+02  0.51100000000E-03 0. -1.
        -11    1    3    3    0    0  0.19314160992E+02 -0.86182703161E+01  0.45698453999E+01  0.21637811472E+02  0.51100000000E-03 0.  1.
        -12    1    3    3    0    0 -0.30982170031E+02  0.44708311769E+01 -0.31793045567E+01  0.31464125107E+02  0.00000000000E+00 0.  1.
</event>
<event>
 7    1  0.3440346E-013  0.7246158E+02  0.7816164E-02  0.1226708E+00
        -11   -1    0    0    0    0  0.00000000000E+00  0.00000000000E+00  0.45593999997E+02  0.45594000000E+02  0.51100000000E-03 0.  1.
         11   -1    0    0    0    0 -0.00000000000E+00 -0.00000000000E+00 -0.45593999997E+02  0.45594000000E+02  0.51100000000E-03 0. -1.
    9900012    2    1    2    0    0 -0.13681366544E+02  0.11425991627E+02 -0.57398276451E+01  0.72461582923E+02  0.70000016451E+02 0.  0.
        -12    1    1    2    0    0  0.13681366544E+02 -0.11425991627E+02  0.57398276451E+01  0.18726417077E+02  0.00000000000E+00 0.  1.
         11    1    3    3    0    0 -0.66225498765E+01 -0.23294055047E+02  0.13629294474E+02  0.27789005659E+02  0.51100000000E-03 0. -1.
        -11    1    3    3    0    0  0.13426880589E+01  0.60110052826E+00  0.27736134661E+01  0.31395963099E+01  0.51100000000E-03 0.  1.
         12    1    3    3    0    0 -0.84015047261E+01  0.34118946146E+02 -0.22142735585E+02  0.41532980954E+02  0.00000000000E+00 0. -1.
</event>
<event>
 7    1  0.4702340E-013  0.7246157E+02  0.7816164E-02  0.1226708E+00
        -11   -1    0    0    0    0  0.00000000000E+00  0.00000000000E+00  0.45593999997E+02  0.45594000000E+02  0.51100000000E-03 0. -1.
         11   -1    0    0    0    0 -0.00000000000E+00 -0.00000000000E+00 -0.45593999997E+02  0.45594000000E+02  0.51100000000E-03 0.  1.
    9900012    2    1    2    0    0  0.28600212944E+01  0.33357205884E+01  0.18203638166E+02  0.72461569584E+02  0.69999999075E+02 0.  0.
        -12    1    1    2    0    0 -0.28600212944E+01 -0.33357205884E+01 -0.18203638166E+02  0.18726430416E+02  0.00000000000E+00 0.  1.
         11    1    3    3    0    0  0.11479603903E+02  0.74809925008E+00  0.18365140539E+02  0.21670702470E+02  0.51100000000E-03 0. -1.
        -11    1    3    3    0    0 -0.25794025602E+01  0.19980120446E+02 -0.16603650858E+02  0.26106316337E+02  0.51100000000E-03 0.  1.
         12    1    3    3    0    0 -0.60401800488E+01 -0.17392499108E+02  0.16442148485E+02  0.24684550777E+02  0.00000000000E+00 0. -1.
</event>
<event>
 7    1  0.3440346E-013  0.7246190E+02  0.7816164E-02  0.1226707E+00
        -11   -1    0    0    0    0  0.00000000000E+00  0.00000000000E+00  0.45593999997E+02  0.45594000000E+02  0.51100000000E-03 0. -1.
         11   -1    0    0    0    0 -0.00000000000E+00 -0.00000000000E+00 -0.45593999997E+02  0.45594000000E+02  0.51100000000E-03 0.  1.
    9900012    2    1    2    0    0  0.79776317207E+01  0.86028204699E+01  0.14595058507E+02  0.72461898945E+02  0.70000428127E+02 0.  0.
        -12    1    1    2    0    0 -0.79776317207E+01 -0.86028204699E+01 -0.14595058507E+02  0.18726101055E+02  0.00000000000E+00 0.  1.
         11    1    3    3    0    0 -0.61917546721E+00 -0.18181340649E+02 -0.84160780987E+01  0.20044323308E+02  0.51100000000E-03 0. -1.
        -11    1    3    3    0    0  0.15780880564E+02  0.88561652850E+01 -0.46471487968E+01  0.18683250444E+02  0.51100000000E-03 0.  1.
         12    1    3    3    0    0 -0.71840733763E+01  0.17927995834E+02  0.27658285402E+02  0.33734325194E+02  0.00000000000E+00 0. -1.
</event>
<event>
 7    1  0.3440346E-013  0.7246167E+02  0.7816164E-02  0.1226708E+00
        -11   -1    0    0    0    0  0.00000000000E+00  0.00000000000E+00  0.45593999997E+02  0.45594000000E+02  0.51100000000E-03 0. -1.
         11   -1    0    0    0    0 -0.00000000000E+00 -0.00000000000E+00 -0.45593999997E+02  0.45594000000E+02  0.51100000000E-03 0.  1.
    9900012    2    1    2    0    0 -0.11432128340E+02  0.21224167850E+01  0.14679137198E+02  0.72461674139E+02  0.70000135276E+02 0.  0.
        -12    1    1    2    0    0  0.11432128340E+02 -0.21224167850E+01 -0.14679137198E+02  0.18726325861E+02  0.00000000000E+00 0.  1.
         11    1    3    3    0    0  0.26717961179E+01  0.12614853116E+02  0.58330790908E+01  0.14152661431E+02  0.51100000000E-03 0.  1.
        -11    1    3    3    0    0 -0.33722788286E+02 -0.15197265954E+02  0.21487285428E+01  0.37051320852E+02  0.51100000000E-03 0. -1.
         12    1    3    3    0    0  0.19618863829E+02  0.47048296233E+01  0.66973295645E+01  0.21257691855E+02  0.00000000000E+00 0. -1.
</event>
<event>
 7    1  0.3440346E-013  0.7246160E+02  0.7816164E-02  0.1226708E+00
        -11   -1    0    0    0    0  0.00000000000E+00  0.00000000000E+00  0.45593999997E+02  0.45594000000E+02  0.51100000000E-03 0.  1.
         11   -1    0    0    0    0 -0.00000000000E+00 -0.00000000000E+00 -0.45593999997E+02  0.45594000000E+02  0.51100000000E-03 0. -1.
    9900012    2    1    2    0    0  0.85070063297E+01  0.13664563461E+02 -0.95702016067E+01  0.72461595912E+02  0.70000033372E+02 0.  0.
        -12    1    1    2    0    0 -0.85070063297E+01 -0.13664563461E+02  0.95702016067E+01  0.18726404088E+02  0.00000000000E+00 0.  1.
         11    1    3    3    0    0  0.19444895222E+02 -0.14275638819E+02 -0.27608405226E+01  0.24280034072E+02  0.51100000000E-03 0. -1.
        -11    1    3    3    0    0 -0.11358290885E+02 -0.64025436723E+01  0.57568379487E+00  0.13051235550E+02  0.51100000000E-03 0.  1.
         12    1    3    3    0    0  0.42040199196E+00  0.34342745952E+02 -0.73850448790E+01  0.35130326290E+02  0.00000000000E+00 0. -1.
</event>
<event>
 7    1  0.3440346E-013  0.7246168E+02  0.7816164E-02  0.1226708E+00
        -11   -1    0    0    0    0  0.00000000000E+00  0.00000000000E+00  0.45593999997E+02  0.45594000000E+02  0.51100000000E-03 0.  1.
         11   -1    0    0    0    0 -0.00000000000E+00 -0.00000000000E+00 -0.45593999997E+02  0.45594000000E+02  0.51100000000E-03 0. -1.
    9900012    2    1    2    0    0  0.30418660477E+01  0.13200974872E+02 -0.12928902848E+02  0.72461675868E+02  0.70000137530E+02 0.  0.
        -12    1    1    2    0    0 -0.30418660477E+01 -0.13200974872E+02  0.12928902848E+02  0.18726324132E+02  0.00000000000E+00 0.  1.
         11    1    3    3    0    0  0.10019283656E+02 -0.21103934216E+02 -0.13977876440E+02  0.27223943770E+02  0.51100000000E-03 0. -1.
        -11    1    3    3    0    0  0.59423215516E-01 -0.27388514844E+00  0.90501292136E+01  0.90544675844E+01  0.51100000000E-03 0.  1.
        -12    1    3    3    0    0 -0.70368408238E+01  0.34578794236E+02 -0.80011556216E+01  0.36183264514E+02  0.00000000000E+00 0.  1.
</event>
<event>
 7    1  0.3440346E-013  0.7246153E+02  0.7816164E-02  0.1226708E+00
        -11   -1    0    0    0    0  0.00000000000E+00  0.00000000000E+00  0.45593999997E+02  0.45594000000E+02  0.51100000000E-03 0. -1.
         11   -1    0    0    0    0 -0.00000000000E+00 -0.00000000000E+00 -0.45593999997E+02  0.45594000000E+02  0.51100000000E-03 0.  1.
    9900012    2    1    2    0    0 -0.11650139707E+02 -0.13661879864E+02 -0.53205066226E+01  0.72461534574E+02  0.69999953468E+02 0.  0.
        -12    1    1    2    0    0  0.11650139707E+02  0.13661879864E+02  0.53205066226E+01  0.18726465426E+02  0.00000000000E+00 0.  1.
         11    1    3    3    0    0  0.22041455459E+02 -0.78238924348E+01  0.45787143061E+01  0.23832827708E+02  0.51100000000E-03 0. -1.
        -11    1    3    3    0    0  0.50895642143E+01 -0.65155495831E+01 -0.46565604986E+01  0.94889201809E+01  0.51100000000E-03 0.  1.
        -12    1    3    3    0    0 -0.38781159381E+02  0.67756215378E+00 -0.52426604300E+01  0.39139786686E+02  0.00000000000E+00 0.  1.
</event>
<event>
 7    1  0.3440346E-013  0.7246161E+02  0.7816164E-02  0.1226708E+00
        -11   -1    0    0    0    0  0.00000000000E+00  0.00000000000E+00  0.45593999997E+02  0.45594000000E+02  0.51100000000E-03 0.  1.
         11   -1    0    0    0    0 -0.00000000000E+00 -0.00000000000E+00 -0.45593999997E+02  0.45594000000E+02  0.51100000000E-03 0. -1.
    9900012    2    1    2    0    0 -0.35715147491E+01 -0.30134033864E+00 -0.18380186688E+02  0.72461607227E+02  0.70000048112E+02 0.  0.
        -12    1    1    2    0    0  0.35715147491E+01  0.30134033864E+00  0.18380186688E+02  0.18726392773E+02  0.00000000000E+00 0.  1.
         11    1    3    3    0    0 -0.74004029610E+01 -0.11566779484E+02 -0.25313467670E+02  0.28798055444E+02  0.51100000000E-03 0. -1.
        -11    1    3    3    0    0 -0.18820520752E+02  0.64846837287E+01  0.21094093230E+01  0.20017810379E+02  0.51100000000E-03 0.  1.
         12    1    3    3    0    0  0.22649408964E+02  0.47807554167E+01  0.48238716596E+01  0.23645741404E+02  0.00000000000E+00 0. -1.
</event>
<event>
 7    1  0.3440346E-013  0.7246158E+02  0.7816164E-02  0.1226708E+00
        -11   -1    0    0    0    0  0.00000000000E+00  0.00000000000E+00  0.45593999997E+02  0.45594000000E+02  0.51100000000E-03 0. -1.
         11   -1    0    0    0    0 -0.00000000000E+00 -0.00000000000E+00 -0.45593999997E+02  0.45594000000E+02  0.51100000000E-03 0.  1.
    9900012    2    1    2    0    0  0.30765433533E+01  0.18455047243E+02 -0.79060398103E+00  0.72461576358E+02  0.70000007899E+02 0.  0.
        -12    1    1    2    0    0 -0.30765433533E+01 -0.18455047243E+02  0.79060398103E+00  0.18726423642E+02  0.00000000000E+00 0.  1.
         11    1    3    3    0    0  0.17866641129E+02  0.27382998527E+02 -0.78467284006E+00  0.32705675123E+02  0.51100000000E-03 0. -1.
        -11    1    3    3    0    0 -0.19860789066E+01  0.12954686166E+02 -0.47922373787E+01  0.13954710403E+02  0.51100000000E-03 0.  1.
        -12    1    3    3    0    0 -0.12804018869E+02 -0.21882637449E+02  0.47863062377E+01  0.25801190832E+02  0.00000000000E+00 0.  1.
</event>
<event>
 7    1  0.3440346E-013  0.7246164E+02  0.7816164E-02  0.1226708E+00
        -11   -1    0    0    0    0  0.00000000000E+00  0.00000000000E+00  0.45593999997E+02  0.45594000000E+02  0.51100000000E-03 0. -1.
         11   -1    0    0    0    0 -0.00000000000E+00 -0.00000000000E+00 -0.45593999997E+02  0.45594000000E+02  0.51100000000E-03 0.  1.
    9900012    2    1    2    0    0  0.16044180136E+02 -0.82427629788E+01  0.50316556556E+01  0.72461643804E+02  0.70000095760E+02 0.  0.
        -12    1    1    2    0    0 -0.16044180136E+02  0.82427629788E+01 -0.50316556556E+01  0.18726356196E+02  0.00000000000E+00 0.  1.
         11    1    3    3    0    0  0.41516912005E+01  0.31279483086E+01 -0.12045131088E+01  0.53358647411E+01  0.51100000000E-03 0. -1.
        -11    1    3    3    0    0  0.37983827810E+01  0.12272127847E+02 -0.24408938685E+02  0.27583131107E+02  0.51100000000E-03 0.  1.
         12    1    3    3    0    0  0.80941061543E+01 -0.23642839134E+02  0.30645107450E+02  0.39542647956E+02  0.00000000000E+00 0. -1.
</event>
<event>
 7    1  0.3440346E-013  0.7246156E+02  0.7816164E-02  0.1226708E+00
        -11   -1    0    0    0    0  0.00000000000E+00  0.00000000000E+00  0.45593999997E+02  0.45594000000E+02  0.51100000000E-03 0. -1.
         11   -1    0    0    0    0 -0.00000000000E+00 -0.00000000000E+00 -0.45593999997E+02  0.45594000000E+02  0.51100000000E-03 0.  1.
    9900012    2    1    2    0    0  0.43421173249E+01  0.60035156362E+01 -0.17198357796E+02  0.72461556298E+02  0.69999981767E+02 0.  0.
        -12    1    1    2    0    0 -0.43421173249E+01 -0.60035156362E+01  0.17198357796E+02  0.18726443702E+02  0.00000000000E+00 0.  1.
         11    1    3    3    0    0  0.64081862934E+01 -0.13273816192E+02  0.45034586607E+01  0.15412338825E+02  0.51100000000E-03 0. -1.
        -11    1    3    3    0    0 -0.48579675811E+01 -0.16941496516E+01 -0.32770677277E+02  0.33172085878E+02  0.51100000000E-03 0.  1.
         12    1    3    3    0    0  0.27918986125E+01  0.20971481480E+02  0.11068860820E+02  0.23877131595E+02  0.00000000000E+00 0. -1.
</event>
<event>
 7    1  0.3440346E-013  0.7246158E+02  0.7816164E-02  0.1226708E+00
        -11   -1    0    0    0    0  0.00000000000E+00  0.00000000000E+00  0.45593999997E+02  0.45594000000E+02  0.51100000000E-03 0.  1.
         11   -1    0    0    0    0 -0.00000000000E+00 -0.00000000000E+00 -0.45593999997E+02  0.45594000000E+02  0.51100000000E-03 0. -1.
    9900012    2    1    2    0    0  0.33279548871E+01  0.14424124211E+02 -0.11469447495E+02  0.72461578323E+02  0.70000010459E+02 0.  0.
        -12    1    1    2    0    0 -0.33279548871E+01 -0.14424124211E+02  0.11469447495E+02  0.18726421677E+02  0.00000000000E+00 0.  1.
         11    1    3    3    0    0  0.16343399695E+02  0.89139444497E+01 -0.24044895512E+02  0.30409243984E+02  0.51100000000E-03 0. -1.
        -11    1    3    3    0    0 -0.49371567963E+01  0.15772837066E+02 -0.74621666473E+01  0.18133996738E+02  0.51100000000E-03 0.  1.
        -12    1    3    3    0    0 -0.80782880120E+01 -0.10262657305E+02  0.20037614664E+02  0.23918337601E+02  0.00000000000E+00 0.  1.
</event>
<event>
 7    1  0.3440346E-013  0.7246157E+02  0.7816164E-02  0.1226708E+00
        -11   -1    0    0    0    0  0.00000000000E+00  0.00000000000E+00  0.45593999997E+02  0.45594000000E+02  0.51100000000E-03 0. -1.
         11   -1    0    0    0    0 -0.00000000000E+00 -0.00000000000E+00 -0.45593999997E+02  0.45594000000E+02  0.51100000000E-03 0.  1.
    9900012    2    1    2    0    0  0.88831787073E+01  0.12706718239E+02  0.10502748733E+02  0.72461567256E+02  0.69999996042E+02 0.  0.
        -12    1    1    2    0    0 -0.88831787073E+01 -0.12706718239E+02 -0.10502748733E+02  0.18726432744E+02  0.00000000000E+00 0.  1.
         11    1    3    3    0    0 -0.19083937926E+02 -0.71500917518E+01 -0.56040346178E+01  0.21135886617E+02  0.51100000000E-03 0. -1.
        -11    1    3    3    0    0 -0.81578073920E+01  0.51847408345E+01  0.20694164899E+01  0.98850313017E+01  0.51100000000E-03 0.  1.
        -12    1    3    3    0    0  0.36124924025E+02  0.14672069157E+02  0.14037366861E+02  0.41440649338E+02  0.00000000000E+00 0.  1.
</event>
<event>
 7    1  0.3440346E-013  0.7246156E+02  0.7816164E-02  0.1226708E+00
        -11   -1    0    0    0    0  0.00000000000E+00  0.00000000000E+00  0.45593999997E+02  0.45594000000E+02  0.51100000000E-03 0.  1.
         11   -1    0    0    0    0 -0.00000000000E+00 -0.00000000000E+00 -0.45593999997E+02  0.45594000000E+02  0.51100000000E-03 0. -1.
    9900012    2    1    2    0    0 -0.79425949423E+01  0.16400250729E+02 -0.43158648397E+01  0.72461555391E+02  0.69999980585E+02 0.  0.
        -12    1    1    2    0    0  0.79425949423E+01 -0.16400250729E+02  0.43158648397E+01  0.18726444609E+02  0.00000000000E+00 0.  1.
         11    1    3    3    0    0 -0.45597396488E+01  0.32631625569E+02 -0.15916436458E+02  0.36591626948E+02  0.51100000000E-03 0. -1.
        -11    1    3    3    0    0  0.37733728568E+01  0.15440089093E+01 -0.76748610906E+01  0.86905580517E+01  0.51100000000E-03 0.  1.
        -12    1    3    3    0    0 -0.71562281504E+01 -0.17775383749E+02  0.19275432709E+02  0.27179370391E+02  0.00000000000E+00 0.  1.
</event>
<event>
 7    1  0.3440346E-013  0.7246157E+02  0.7816164E-02  0.1226708E+00
        -11   -1    0    0    0    0  0.00000000000E+00  0.00000000000E+00  0.45593999997E+02  0.45594000000E+02  0.51100000000E-03 0.  1.
         11   -1    0    0    0    0 -0.00000000000E+00 -0.00000000000E+00 -0.45593999997E+02  0.45594000000E+02  0.51100000000E-03 0. -1.
    9900012    2    1    2    0    0  0.44201123237E+01  0.16631679387E+02 -0.73843701259E+01  0.72461572835E+02  0.70000003310E+02 0.  0.
        -12    1    1    2    0    0 -0.44201123237E+01 -0.16631679387E+02  0.73843701259E+01  0.18726427165E+02  0.00000000000E+00 0.  1.
         11    1    3    3    0    0  0.19465065882E+02  0.15476079612E+02 -0.73183738407E+01  0.25922122326E+02  0.51100000000E-03 0. -1.
        -11    1    3    3    0    0  0.15500008230E+02  0.28167816857E+01  0.19966078926E+01  0.15879891610E+02  0.51100000000E-03 0.  1.
         12    1    3    3    0    0 -0.30544961788E+02 -0.16611819102E+01 -0.20626041778E+01  0.30659558900E+02  0.00000000000E+00 0. -1.
</event>
<event>
 7    1  0.3440346E-013  0.7246140E+02  0.7816164E-02  0.1226708E+00
        -11   -1    0    0    0    0  0.00000000000E+00  0.00000000000E+00  0.45593999997E+02  0.45594000000E+02  0.51100000000E-03 0. -1.
         11   -1    0    0    0    0 -0.00000000000E+00 -0.00000000000E+00 -0.45593999997E+02  0.45594000000E+02  0.51100000000E-03 0.  1.
    9900012    2    1    2    0    0  0.28199480089E+01 -0.18352762093E+02 -0.24309370395E+01  0.72461402922E+02  0.69999781966E+02 0.  0.
        -12    1    1    2    0    0 -0.28199480089E+01  0.18352762093E+02  0.24309370395E+01  0.18726597078E+02  0.00000000000E+00 0.  1.
         11    1    3    3    0    0  0.25474431300E+01  0.52531345734E+01  0.74671769612E+00  0.58857860075E+01  0.51100000000E-03 0. -1.
        -11    1    3    3    0    0 -0.12176979343E+02  0.17806652775E+02  0.59538134317E+01  0.22378641684E+02  0.51100000000E-03 0.  1.
         12    1    3    3    0    0  0.12449484221E+02 -0.41412549442E+02 -0.91314681673E+01  0.44196975231E+02  0.00000000000E+00 0. -1.
</event>
<event>
 7    1  0.3440346E-013  0.7246154E+02  0.7816164E-02  0.1226708E+00
        -11   -1    0    0    0    0  0.00000000000E+00  0.00000000000E+00  0.45593999997E+02  0.45594000000E+02  0.51100000000E-03 0.  1.
         11   -1    0    0    0    0 -0.00000000000E+00 -0.00000000000E+00 -0.45593999997E+02  0.45594000000E+02  0.51100000000E-03 0. -1.
    9900012    2    1    2    0    0 -0.11819854621E+02  0.14204202029E+02 -0.30351016365E+01  0.72461543835E+02  0.69999965532E+02 0.  0.
        -12    1    1    2    0    0  0.11819854621E+02 -0.14204202029E+02  0.30351016365E+01  0.18726456165E+02  0.00000000000E+00 0.  1.
         11    1    3    3    0    0 -0.73085057367E+01 -0.46056617619E+01  0.10274745216E+02  0.13423738893E+02  0.51100000000E-03 0. -1.
        -11    1    3    3    0    0  0.11071826779E+02 -0.10618157626E+02  0.10070082646E+02  0.18350400115E+02  0.51100000000E-03 0.  1.
         12    1    3    3    0    0 -0.15583175663E+02  0.29428021417E+02 -0.23379929499E+02  0.40687404828E+02  0.00000000000E+00 0. -1.
</event>
<event>
 7    1  0.3440346E-013  0.7246160E+02  0.7816164E-02  0.1226708E+00
        -11   -1    0    0    0    0  0.00000000000E+00  0.00000000000E+00  0.45593999997E+02  0.45594000000E+02  0.51100000000E-03 0.  1.
         11   -1    0    0    0    0 -0.00000000000E+00 -0.00000000000E+00 -0.45593999997E+02  0.45594000000E+02  0.51100000000E-03 0. -1.
    9900012    2    1    2    0    0  0.12640860842E+02 -0.13119508029E+02 -0.43318682010E+01  0.72461603234E+02  0.70000042910E+02 0.  0.
        -12    1    1    2    0    0 -0.12640860842E+02  0.13119508029E+02  0.43318682010E+01  0.18726396766E+02  0.00000000000E+00 0.  1.
         11    1    3    3    0    0  0.20485910537E+02  0.13463406339E+02  0.22298787846E+01  0.24615202628E+02  0.51100000000E-03 0. -1.
        -11    1    3    3    0    0 -0.23246585392E+02 -0.12417134325E+02 -0.53014935729E+01  0.26882983309E+02  0.51100000000E-03 0.  1.
         12    1    3    3    0    0  0.15401535697E+02 -0.14165780043E+02 -0.12602534126E+01  0.20963417296E+02  0.00000000000E+00 0. -1.
</event>
<event>
 7    1  0.7587190E-013  0.7246154E+02  0.7816164E-02  0.1226708E+00
        -11   -1    0    0    0    0  0.00000000000E+00  0.00000000000E+00  0.45593999997E+02  0.45594000000E+02  0.51100000000E-03 0. -1.
         11   -1    0    0    0    0 -0.00000000000E+00 -0.00000000000E+00 -0.45593999997E+02  0.45594000000E+02  0.51100000000E-03 0.  1.
    9900012    2    1    2    0    0  0.93001284716E+01  0.26376991227E+01  0.16038402811E+02  0.72461542487E+02  0.69999963776E+02 0.  0.
        -12    1    1    2    0    0 -0.93001284716E+01 -0.26376991227E+01 -0.16038402811E+02  0.18726457513E+02  0.00000000000E+00 0.  1.
         11    1    3    3    0    0  0.20303295325E+02 -0.68427840577E+01  0.25743688744E+02  0.33493059059E+02  0.51100000000E-03 0. -1.
        -11    1    3    3    0    0  0.81396247012E+01  0.35725167446E+01 -0.15713201013E+02  0.18053283704E+02  0.51100000000E-03 0.  1.
        -12    1    3    3    0    0 -0.19142791554E+02  0.59079664358E+01  0.60079150800E+01  0.20915199724E+02  0.00000000000E+00 0.  1.
</event>
<event>
 7    1  0.3440346E-013  0.7246158E+02  0.7816164E-02  0.1226708E+00
        -11   -1    0    0    0    0  0.00000000000E+00  0.00000000000E+00  0.45593999997E+02  0.45594000000E+02  0.51100000000E-03 0. -1.
         11   -1    0    0    0    0 -0.00000000000E+00 -0.00000000000E+00 -0.45593999997E+02  0.45594000000E+02  0.51100000000E-03 0.  1.
    9900012    2    1    2    0    0  0.78971308536E+01  0.14548591593E+02 -0.87551563582E+01  0.72461575998E+02  0.70000007430E+02 0.  0.
        -12    1    1    2    0    0 -0.78971308536E+01 -0.14548591593E+02  0.87551563582E+01  0.18726424002E+02  0.00000000000E+00 0.  1.
         11    1    3    3    0    0  0.39039730805E+00 -0.11136790129E+01 -0.78365731949E+01  0.79249334825E+01  0.51100000000E-03 0.  1.
        -11    1    3    3    0    0  0.20483925861E+01  0.33414691869E+02 -0.19102799132E+02  0.38544188665E+02  0.51100000000E-03 0. -1.
         12    1    3    3    0    0  0.54583409595E+01 -0.17752421264E+02  0.18184215969E+02  0.25992453850E+02  0.00000000000E+00 0. -1.
</event>
<event>
 7    1  0.3440346E-013  0.7246163E+02  0.7816164E-02  0.1226708E+00
        -11   -1    0    0    0    0  0.00000000000E+00  0.00000000000E+00  0.45593999997E+02  0.45594000000E+02  0.51100000000E-03 0.  1.
         11   -1    0    0    0    0 -0.00000000000E+00 -0.00000000000E+00 -0.45593999997E+02  0.45594000000E+02  0.51100000000E-03 0. -1.
    9900012    2    1    2    0    0 -0.62645213516E+00 -0.17746489855E+02 -0.59452877588E+01  0.72461633802E+02  0.70000082731E+02 0.  0.
        -12    1    1    2    0    0  0.62645213516E+00  0.17746489855E+02  0.59452877588E+01  0.18726366198E+02  0.00000000000E+00 0.  1.
         11    1    3    3    0    0 -0.20330856486E+02  0.16923601174E+02  0.22630649009E+01  0.26549453199E+02  0.51100000000E-03 0. -1.
        -11    1    3    3    0    0  0.14529432102E+01 -0.17644724612E-01  0.45063815237E+01  0.47348526911E+01  0.51100000000E-03 0.  1.
        -12    1    3    3    0    0  0.18251461140E+02 -0.34652446304E+02 -0.12714734183E+02  0.41177327912E+02  0.00000000000E+00 0.  1.
</event>
<event>
 7    1  0.3440346E-013  0.7246156E+02  0.7816164E-02  0.1226708E+00
        -11   -1    0    0    0    0  0.00000000000E+00  0.00000000000E+00  0.45593999997E+02  0.45594000000E+02  0.51100000000E-03 0.  1.
         11   -1    0    0    0    0 -0.00000000000E+00 -0.00000000000E+00 -0.45593999997E+02  0.45594000000E+02  0.51100000000E-03 0. -1.
    9900012    2    1    2    0    0 -0.10360423672E+02 -0.59542981500E+01 -0.14418302647E+02  0.72461561568E+02  0.69999988632E+02 0.  0.
        -12    1    1    2    0    0  0.10360423672E+02  0.59542981500E+01  0.14418302647E+02  0.18726438432E+02  0.00000000000E+00 0.  1.
         11    1    3    3    0    0 -0.75468609813E+01  0.64704525808E+01 -0.91413416643E+00  0.99828607527E+01  0.51100000000E-03 0. -1.
        -11    1    3    3    0    0 -0.25944892470E+02 -0.20377344418E+02  0.27585151188E+01  0.33105634214E+02  0.51100000000E-03 0.  1.
         12    1    3    3    0    0  0.23131329779E+02  0.79525936871E+01 -0.16262683600E+02  0.29373066601E+02  0.00000000000E+00 0. -1.
</event>
<event>
 7    1  0.3440346E-013  0.7246157E+02  0.7816164E-02  0.1226708E+00
        -11   -1    0    0    0    0  0.00000000000E+00  0.00000000000E+00  0.45593999997E+02  0.45594000000E+02  0.51100000000E-03 0.  1.
         11   -1    0    0    0    0 -0.00000000000E+00 -0.00000000000E+00 -0.45593999997E+02  0.45594000000E+02  0.51100000000E-03 0. -1.
    9900012    2    1    2    0    0  0.10399432422E+02  0.64370681171E+01 -0.14180801392E+02  0.72461570315E+02  0.70000000027E+02 0.  0.
        -12    1    1    2    0    0 -0.10399432422E+02 -0.64370681171E+01  0.14180801392E+02  0.18726429685E+02  0.00000000000E+00 0.  1.
         11    1    3    3    0    0 -0.73623959631E+01  0.69636844208E+00  0.81859813448E+00  0.74404238113E+01  0.51100000000E-03 0. -1.
        -11    1    3    3    0    0 -0.11525462861E+02 -0.11936849122E+02  0.12787814110E+02  0.20948815028E+02  0.51100000000E-03 0.  1.
        -12    1    3    3    0    0  0.29287291246E+02  0.17677548797E+02 -0.27787213636E+02  0.44072331475E+02  0.00000000000E+00 0.  1.
</event>
<event>
 7    1  0.3440346E-013  0.7246180E+02  0.7816164E-02  0.1226707E+00
        -11   -1    0    0    0    0  0.00000000000E+00  0.00000000000E+00  0.45593999997E+02  0.45594000000E+02  0.51100000000E-03 0. -1.
         11   -1    0    0    0    0 -0.00000000000E+00 -0.00000000000E+00 -0.45593999997E+02  0.45594000000E+02  0.51100000000E-03 0.  1.
    9900012    2    1    2    0    0  0.11293256805E+02 -0.12170441880E+02 -0.86610186456E+01  0.72461800471E+02  0.70000299848E+02 0.  0.
        -12    1    1    2    0    0 -0.11293256805E+02  0.12170441880E+02  0.86610186456E+01  0.18726199529E+02  0.00000000000E+00 0.  1.
         11    1    3    3    0    0  0.19770782917E+02 -0.22036313759E+01  0.17487263958E+02  0.26486680603E+02  0.51100000000E-03 0. -1.
        -11    1    3    3    0    0  0.94068030442E+01  0.78920800659E+01 -0.60763381230E+01  0.13700173595E+02  0.51100000000E-03 0.  1.
        -12    1    3    3    0    0 -0.17884329156E+02 -0.17858890570E+02 -0.20071944480E+02  0.32274946274E+02  0.00000000000E+00 0.  1.
</event>
<event>
 7    1  0.3440346E-013  0.7246161E+02  0.7816164E-02  0.1226708E+00
        -11   -1    0    0    0    0  0.00000000000E+00  0.00000000000E+00  0.45593999997E+02  0.45594000000E+02  0.51100000000E-03 0.  1.
         11   -1    0    0    0    0 -0.00000000000E+00 -0.00000000000E+00 -0.45593999997E+02  0.45594000000E+02  0.51100000000E-03 0. -1.
    9900012    2    1    2    0    0 -0.29988209520E+01  0.91040160833E+01 -0.16087318020E+02  0.72461605872E+02  0.70000046347E+02 0.  0.
        -12    1    1    2    0    0  0.29988209520E+01 -0.91040160833E+01  0.16087318020E+02  0.18726394128E+02  0.00000000000E+00 0.  1.
         11    1    3    3    0    0 -0.13162330559E+02  0.24181002899E+01  0.63684568689E+01  0.14820640941E+02  0.51100000000E-03 0. -1.
        -11    1    3    3    0    0 -0.11004098728E+02  0.28903314038E+01  0.12309370032E+02  0.16762004513E+02  0.51100000000E-03 0.  1.
        -12    1    3    3    0    0  0.21167608335E+02  0.37955843895E+01 -0.34765144921E+02  0.40878960418E+02  0.00000000000E+00 0.  1.
</event>
<event>
 7    1  0.3864698E-013  0.7246152E+02  0.7816164E-02  0.1226708E+00
        -11   -1    0    0    0    0  0.00000000000E+00  0.00000000000E+00  0.45593999997E+02  0.45594000000E+02  0.51100000000E-03 0. -1.
         11   -1    0    0    0    0 -0.00000000000E+00 -0.00000000000E+00 -0.45593999997E+02  0.45594000000E+02  0.51100000000E-03 0.  1.
    9900012    2    1    2    0    0 -0.32605680165E+01 -0.10050404191E+02  0.15460886019E+02  0.72461523431E+02  0.69999938952E+02 0.  0.
        -12    1    1    2    0    0  0.32605680165E+01  0.10050404191E+02 -0.15460886019E+02  0.18726476569E+02  0.00000000000E+00 0.  1.
         11    1    3    3    0    0 -0.51378977803E+01 -0.20483610045E+02  0.30849824499E+02  0.37385664979E+02  0.51100000000E-03 0. -1.
        -11    1    3    3    0    0 -0.39680235907E+01  0.71629904907E+01  0.75750256383E+01  0.11155028358E+02  0.51100000000E-03 0.  1.
        -12    1    3    3    0    0  0.58453533545E+01  0.32702153628E+01 -0.22963964118E+02  0.23920830094E+02  0.00000000000E+00 0.  1.
</event>
<event>
 7    1  0.3440346E-013  0.7246154E+02  0.7816164E-02  0.1226708E+00
        -11   -1    0    0    0    0  0.00000000000E+00  0.00000000000E+00  0.45593999997E+02  0.45594000000E+02  0.51100000000E-03 0.  1.
         11   -1    0    0    0    0 -0.00000000000E+00 -0.00000000000E+00 -0.45593999997E+02  0.45594000000E+02  0.51100000000E-03 0. -1.
    9900012    2    1    2    0    0 -0.58611158942E+01  0.17722828125E+02 -0.14929479881E+01  0.72461542514E+02  0.69999963811E+02 0.  0.
        -12    1    1    2    0    0  0.58611158942E+01 -0.17722828125E+02  0.14929479881E+01  0.18726457486E+02  0.00000000000E+00 0.  1.
         11    1    3    3    0    0  0.82148374009E+01  0.16810954493E+02 -0.15127782336E+02  0.24061204108E+02  0.51100000000E-03 0. -1.
        -11    1    3    3    0    0  0.53937061130E+01 -0.81735447408E+01 -0.11650576198E+02  0.15219554043E+02  0.51100000000E-03 0.  1.
        -12    1    3    3    0    0 -0.19469659408E+02  0.90854183735E+01  0.25285410545E+02  0.33180784363E+02  0.00000000000E+00 0.  1.
</event>
<event>
 7    1  0.3440346E-013  0.7246164E+02  0.7816164E-02  0.1226708E+00
        -11   -1    0    0    0    0  0.00000000000E+00  0.00000000000E+00  0.45593999997E+02  0.45594000000E+02  0.51100000000E-03 0.  1.
         11   -1    0    0    0    0 -0.00000000000E+00 -0.00000000000E+00 -0.45593999997E+02  0.45594000000E+02  0.51100000000E-03 0. -1.
    9900012    2    1    2    0    0  0.14363833237E+02  0.52725370893E+01 -0.10796170370E+02  0.72461637639E+02  0.70000087728E+02 0.  0.
        -12    1    1    2    0    0 -0.14363833237E+02 -0.52725370893E+01  0.10796170370E+02  0.18726362361E+02  0.00000000000E+00 0.  1.
         11    1    3    3    0    0  0.17736830802E+01  0.25007821953E+02  0.80175703532E+01  0.26321446487E+02  0.51100000000E-03 0. -1.
        -11    1    3    3    0    0  0.15414313307E+02  0.11170267935E+00  0.38442783473E+01  0.15886850176E+02  0.51100000000E-03 0.  1.
        -12    1    3    3    0    0 -0.28241631501E+01 -0.19846987543E+02 -0.22658019070E+02  0.30253340977E+02  0.00000000000E+00 0.  1.
</event>
<event>
 7    1  0.3440346E-013  0.7246178E+02  0.7816164E-02  0.1226707E+00
        -11   -1    0    0    0    0  0.00000000000E+00  0.00000000000E+00  0.45593999997E+02  0.45594000000E+02  0.51100000000E-03 0.  1.
         11   -1    0    0    0    0 -0.00000000000E+00 -0.00000000000E+00 -0.45593999997E+02  0.45594000000E+02  0.51100000000E-03 0. -1.
    9900012    2    1    2    0    0 -0.17870487554E+02  0.98550636881E+00 -0.55087020141E+01  0.72461779182E+02  0.70000272115E+02 0.  0.
        -12    1    1    2    0    0  0.17870487554E+02 -0.98550636881E+00  0.55087020141E+01  0.18726220818E+02  0.00000000000E+00 0.  1.
         11    1    3    3    0    0 -0.19319923724E+02  0.19261977164E+02  0.55933513967E+01  0.27849035838E+02  0.51100000000E-03 0. -1.
        -11    1    3    3    0    0  0.71995226357E+01 -0.10040311956E+02  0.13342917103E+02  0.18184455654E+02  0.51100000000E-03 0.  1.
        -12    1    3    3    0    0 -0.57500864662E+01 -0.82361588395E+01 -0.24444970514E+02  0.26428287690E+02  0.00000000000E+00 0.  1.
</event>
<event>
 7    1  0.3440346E-013  0.7246154E+02  0.7816164E-02  0.1226708E+00
        -11   -1    0    0    0    0  0.00000000000E+00  0.00000000000E+00  0.45593999997E+02  0.45594000000E+02  0.51100000000E-03 0.  1.
         11   -1    0    0    0    0 -0.00000000000E+00 -0.00000000000E+00 -0.45593999997E+02  0.45594000000E+02  0.51100000000E-03 0. -1.
    9900012    2    1    2    0    0 -0.84702049029E+01 -0.16663502552E+02  0.11241172327E+01  0.72461539364E+02  0.69999959707E+02 0.  0.
        -12    1    1    2    0    0  0.84702049029E+01  0.16663502552E+02 -0.11241172327E+01  0.18726460636E+02  0.00000000000E+00 0.  1.
         11    1    3    3    0    0 -0.21352592304E+02 -0.16507372450E+02 -0.16548003053E+02  0.31658536741E+02  0.51100000000E-03 0.  1.
        -11    1    3    3    0    0  0.13295918436E+02  0.28800979574E+01 -0.74391932257E+01  0.15505418647E+02  0.51100000000E-03 0. -1.
        -12    1    3    3    0    0 -0.41353103499E+00 -0.30362280591E+01  0.25111313512E+02  0.25297583976E+02  0.00000000000E+00 0.  1.
</event>
<event>
 7    1  0.3440346E-013  0.7246158E+02  0.7816164E-02  0.1226708E+00
        -11   -1    0    0    0    0  0.00000000000E+00  0.00000000000E+00  0.45593999997E+02  0.45594000000E+02  0.51100000000E-03 0.  1.
         11   -1    0    0    0    0 -0.00000000000E+00 -0.00000000000E+00 -0.45593999997E+02  0.45594000000E+02  0.51100000000E-03 0. -1.
    9900012    2    1    2    0    0 -0.50614828383E+01  0.79777308443E+01 -0.16168369658E+02  0.72461575479E+02  0.70000006754E+02 0.  0.
        -12    1    1    2    0    0  0.50614828383E+01 -0.79777308443E+01  0.16168369658E+02  0.18726424521E+02  0.00000000000E+00 0.  1.
         11    1    3    3    0    0 -0.25532680031E+02  0.76549823905E+00 -0.26304015210E+02  0.36666128151E+02  0.51100000000E-03 0. -1.
        -11    1    3    3    0    0 -0.65225915908E+01  0.12155669910E+01  0.26835379607E+01  0.71570371256E+01  0.51100000000E-03 0.  1.
        -12    1    3    3    0    0  0.26993788784E+02  0.59966656143E+01  0.74521075914E+01  0.28638410203E+02  0.00000000000E+00 0.  1.
</event>
<event>
 7    1  0.3440346E-013  0.7246155E+02  0.7816164E-02  0.1226708E+00
        -11   -1    0    0    0    0  0.00000000000E+00  0.00000000000E+00  0.45593999997E+02  0.45594000000E+02  0.51100000000E-03 0.  1.
         11   -1    0    0    0    0 -0.00000000000E+00 -0.00000000000E+00 -0.45593999997E+02  0.45594000000E+02  0.51100000000E-03 0. -1.
    9900012    2    1    2    0    0  0.91389022476E+01  0.42133825726E+01 -0.15792646067E+02  0.72461553546E+02  0.69999978183E+02 0.  0.
        -12    1    1    2    0    0 -0.91389022476E+01 -0.42133825726E+01  0.15792646067E+02  0.18726446454E+02  0.00000000000E+00 0.  1.
         11    1    3    3    0    0 -0.78423971637E+01  0.13699949383E+02 -0.56170994014E+01  0.16755405466E+02  0.51100000000E-03 0. -1.
        -11    1    3    3    0    0 -0.12767012830E+02 -0.23042149624E+01  0.12189770693E+02  0.17801587935E+02  0.51100000000E-03 0.  1.
         12    1    3    3    0    0  0.29748312241E+02 -0.71823518480E+01 -0.22365317358E+02  0.37904560146E+02  0.00000000000E+00 0. -1.
</event>
<event>
 7    1  0.3440346E-013  0.7246156E+02  0.7816164E-02  0.1226708E+00
        -11   -1    0    0    0    0  0.00000000000E+00  0.00000000000E+00  0.45593999997E+02  0.45594000000E+02  0.51100000000E-03 0. -1.
         11   -1    0    0    0    0 -0.00000000000E+00 -0.00000000000E+00 -0.45593999997E+02  0.45594000000E+02  0.51100000000E-03 0.  1.
    9900012    2    1    2    0    0 -0.30210214363E+01  0.15327494019E+02 -0.10325740556E+02  0.72461559829E+02  0.69999986367E+02 0.  0.
        -12    1    1    2    0    0  0.30210214363E+01 -0.15327494019E+02  0.10325740556E+02  0.18726440171E+02  0.00000000000E+00 0.  1.
         11    1    3    3    0    0 -0.68007459716E+01 -0.12470977530E+01  0.10986195426E+02  0.12980827738E+02  0.51100000000E-03 0. -1.
        -11    1    3    3    0    0  0.19381083838E+02 -0.68730376390E+01  0.47538423702E+01  0.21106019868E+02  0.51100000000E-03 0.  1.
         12    1    3    3    0    0 -0.15601359303E+02  0.23447629411E+02 -0.26065778352E+02  0.38374712223E+02  0.00000000000E+00 0. -1.
</event>
<event>
 7    1  0.3440346E-013  0.7246144E+02  0.7816164E-02  0.1226708E+00
        -11   -1    0    0    0    0  0.00000000000E+00  0.00000000000E+00  0.45593999997E+02  0.45594000000E+02  0.51100000000E-03 0. -1.
         11   -1    0    0    0    0 -0.00000000000E+00 -0.00000000000E+00 -0.45593999997E+02  0.45594000000E+02  0.51100000000E-03 0.  1.
    9900012    2    1    2    0    0 -0.10547554854E+02 -0.73707057669E+00  0.15456064473E+02  0.72461438238E+02  0.69999827972E+02 0.  0.
        -12    1    1    2    0    0  0.10547554854E+02  0.73707057669E+00 -0.15456064473E+02  0.18726561762E+02  0.00000000000E+00 0.  1.
         11    1    3    3    0    0 -0.15397831216E+02  0.23909786772E+02  0.20825238602E+02  0.35248569797E+02  0.51100000000E-03 0. -1.
        -11    1    3    3    0    0  0.13534275039E+01  0.58555932949E+01 -0.19621735799E+01  0.63221724322E+01  0.51100000000E-03 0.  1.
        -12    1    3    3    0    0  0.34968488581E+01 -0.30502450643E+02 -0.34070005489E+01  0.30890696009E+02  0.00000000000E+00 0.  1.
</event>
<event>
 7    1  0.3440346E-013  0.7246142E+02  0.7816164E-02  0.1226708E+00
        -11   -1    0    0    0    0  0.00000000000E+00  0.00000000000E+00  0.45593999997E+02  0.45594000000E+02  0.51100000000E-03 0.  1.
         11   -1    0    0    0    0 -0.00000000000E+00 -0.00000000000E+00 -0.45593999997E+02  0.45594000000E+02  0.51100000000E-03 0. -1.
    9900012    2    1    2    0    0 -0.15581099109E+01 -0.56121145812E+00 -0.18653209317E+02  0.72461417754E+02  0.69999801288E+02 0.  0.
        -12    1    1    2    0    0  0.15581099109E+01  0.56121145812E+00  0.18653209317E+02  0.18726582246E+02  0.00000000000E+00 0.  1.
         11    1    3    3    0    0 -0.97686087887E+01 -0.10775837479E+02 -0.25310555210E+02  0.29191926904E+02  0.51100000000E-03 0. -1.
        -11    1    3    3    0    0 -0.64291861532E+01  0.19066965587E+02 -0.70776211615E+01  0.21330174234E+02  0.51100000000E-03 0.  1.
        -12    1    3    3    0    0  0.14639685031E+02 -0.88523395652E+01  0.13734967055E+02  0.21939316616E+02  0.00000000000E+00 0.  1.
</event>
<event>
 7    1  0.3440346E-013  0.7246158E+02  0.7816164E-02  0.1226708E+00
        -11   -1    0    0    0    0  0.00000000000E+00  0.00000000000E+00  0.45593999997E+02  0.45594000000E+02  0.51100000000E-03 0.  1.
         11   -1    0    0    0    0 -0.00000000000E+00 -0.00000000000E+00 -0.45593999997E+02  0.45594000000E+02  0.51100000000E-03 0. -1.
    9900012    2    1    2    0    0 -0.18385288727E+02  0.33075493672E+01 -0.13115624791E+01  0.72461576943E+02  0.70000008661E+02 0.  0.
        -12    1    1    2    0    0  0.18385288727E+02 -0.33075493672E+01  0.13115624791E+01  0.18726423057E+02  0.00000000000E+00 0.  1.
         11    1    3    3    0    0 -0.18419727014E+01 -0.30896006921E+01 -0.15257547167E+01  0.39072270968E+01  0.51100000000E-03 0. -1.
        -11    1    3    3    0    0  0.19120329036E+01 -0.25881467182E+02  0.13268490665E+02  0.29147196402E+02  0.51100000000E-03 0.  1.
        -12    1    3    3    0    0 -0.18455348929E+02  0.32278617242E+02 -0.13054298427E+02  0.39407153444E+02  0.00000000000E+00 0.  1.
</event>
<event>
 7    1  0.3440346E-013  0.7246152E+02  0.7816164E-02  0.1226708E+00
        -11   -1    0    0    0    0  0.00000000000E+00  0.00000000000E+00  0.45593999997E+02  0.45594000000E+02  0.51100000000E-03 0.  1.
         11   -1    0    0    0    0 -0.00000000000E+00 -0.00000000000E+00 -0.45593999997E+02  0.45594000000E+02  0.51100000000E-03 0. -1.
    9900012    2    1    2    0    0  0.12277040979E+02  0.11370315813E+02 -0.84066145260E+01  0.72461521830E+02  0.69999936866E+02 0.  0.
        -12    1    1    2    0    0 -0.12277040979E+02 -0.11370315813E+02  0.84066145260E+01  0.18726478170E+02  0.00000000000E+00 0.  1.
         11    1    3    3    0    0  0.50596323595E+01  0.95198463702E+01 -0.35122856622E+02  0.36740201579E+02  0.51100000000E-03 0. -1.
        -11    1    3    3    0    0  0.47004172488E+01  0.41604682000E+01 -0.21639720445E+01  0.66397434609E+01  0.51100000000E-03 0.  1.
        -12    1    3    3    0    0  0.25169913703E+01 -0.23099987577E+01  0.28880214140E+02  0.29081576790E+02  0.00000000000E+00 0.  1.
</event>
<event>
 7    1  0.3440346E-013  0.7246150E+02  0.7816164E-02  0.1226708E+00
        -11   -1    0    0    0    0  0.00000000000E+00  0.00000000000E+00  0.45593999997E+02  0.45594000000E+02  0.51100000000E-03 0.  1.
         11   -1    0    0    0    0 -0.00000000000E+00 -0.00000000000E+00 -0.45593999997E+02  0.45594000000E+02  0.51100000000E-03 0. -1.
    9900012    2    1    2    0    0  0.97374709838E+00  0.66541279350E+01 -0.17477304620E+02  0.72461500627E+02  0.69999909246E+02 0.  0.
        -12    1    1    2    0    0 -0.97374709838E+00 -0.66541279350E+01  0.17477304620E+02  0.18726499373E+02  0.00000000000E+00 0.  1.
         11    1    3    3    0    0  0.31466731313E+01  0.13067812184E+01 -0.12325296196E+02  0.12787578173E+02  0.51100000000E-03 0. -1.
        -11    1    3    3    0    0 -0.23510782052E+02  0.10713443949E+01 -0.21950319979E+02  0.32182622623E+02  0.51100000000E-03 0.  1.
         12    1    3    3    0    0  0.21337856019E+02  0.42760023217E+01  0.16798311555E+02  0.27491299831E+02  0.00000000000E+00 0. -1.
</event>
<event>
 7    1  0.3440346E-013  0.7246166E+02  0.7816164E-02  0.1226708E+00
        -11   -1    0    0    0    0  0.00000000000E+00  0.00000000000E+00  0.45593999997E+02  0.45594000000E+02  0.51100000000E-03 0.  1.
         11   -1    0    0    0    0 -0.00000000000E+00 -0.00000000000E+00 -0.45593999997E+02  0.45594000000E+02  0.51100000000E-03 0. -1.
    9900012    2    1    2    0    0  0.36525801493E+01  0.14128513567E+02 -0.11735400474E+02  0.72461658616E+02  0.70000115055E+02 0.  0.
        -12    1    1    2    0    0 -0.36525801493E+01 -0.14128513567E+02  0.11735400474E+02  0.18726341384E+02  0.00000000000E+00 0.  1.
         11    1    3    3    0    0  0.14061914323E+01  0.33891592133E+02 -0.10114148635E+02  0.35396516700E+02  0.51100000000E-03 0. -1.
        -11    1    3    3    0    0  0.12524467910E+02  0.21259330003E+01 -0.21131336900E+01  0.12878168418E+02  0.51100000000E-03 0.  1.
        -12    1    3    3    0    0 -0.10278079193E+02 -0.21889011566E+02  0.49188185172E+00  0.24186973498E+02  0.00000000000E+00 0.  1.
</event>
<event>
 7    1  0.3440346E-013  0.7246178E+02  0.7816164E-02  0.1226707E+00
        -11   -1    0    0    0    0  0.00000000000E+00  0.00000000000E+00  0.45593999997E+02  0.45594000000E+02  0.51100000000E-03 0. -1.
         11   -1    0    0    0    0 -0.00000000000E+00 -0.00000000000E+00 -0.45593999997E+02  0.45594000000E+02  0.51100000000E-03 0.  1.
    9900012    2    1    2    0    0 -0.59220669532E+00 -0.18608479728E+02 -0.20112678716E+01  0.72461777076E+02  0.70000269371E+02 0.  0.
        -12    1    1    2    0    0  0.59220669532E+00  0.18608479728E+02  0.20112678716E+01  0.18726222924E+02  0.00000000000E+00 0.  1.
         11    1    3    3    0    0  0.65366448189E+01  0.10406842995E+02  0.22516994791E+02  0.25652390947E+02  0.51100000000E-03 0. -1.
        -11    1    3    3    0    0  0.10012221343E+02 -0.12665083162E+02 -0.89805767057E+01  0.18474297441E+02  0.51100000000E-03 0.  1.
        -12    1    3    3    0    0 -0.17141072857E+02 -0.16350239560E+02 -0.15547685957E+02  0.28335088688E+02  0.00000000000E+00 0.  1.
</event>
<event>
 7    1  0.3440346E-013  0.7246164E+02  0.7816164E-02  0.1226708E+00
        -11   -1    0    0    0    0  0.00000000000E+00  0.00000000000E+00  0.45593999997E+02  0.45594000000E+02  0.51100000000E-03 0.  1.
         11   -1    0    0    0    0 -0.00000000000E+00 -0.00000000000E+00 -0.45593999997E+02  0.45594000000E+02  0.51100000000E-03 0. -1.
    9900012    2    1    2    0    0 -0.25379239360E+00  0.15998980655E+02 -0.97285512282E+01  0.72461641529E+02  0.70000092797E+02 0.  0.
        -12    1    1    2    0    0  0.25379239360E+00 -0.15998980655E+02  0.97285512282E+01  0.18726358471E+02  0.00000000000E+00 0.  1.
         11    1    3    3    0    0  0.69080553868E+01  0.79725753518E+00 -0.99492912204E+01  0.12138584961E+02  0.51100000000E-03 0. -1.
        -11    1    3    3    0    0 -0.16576739246E+02  0.33888473615E+02 -0.66339555678E+01  0.38304390019E+02  0.51100000000E-03 0.  1.
        -12    1    3    3    0    0  0.94148914657E+01 -0.18686750495E+02  0.68546955600E+01  0.22018666549E+02  0.00000000000E+00 0.  1.
</event>
<event>
 7    1  0.4024430E-013  0.7246154E+02  0.7816164E-02  0.1226708E+00
        -11   -1    0    0    0    0  0.00000000000E+00  0.00000000000E+00  0.45593999997E+02  0.45594000000E+02  0.51100000000E-03 0. -1.
         11   -1    0    0    0    0 -0.00000000000E+00 -0.00000000000E+00 -0.45593999997E+02  0.45594000000E+02  0.51100000000E-03 0.  1.
    9900012    2    1    2    0    0  0.93861841323E+01  0.16203110960E+02  0.19740810994E+00  0.72461542052E+02  0.69999963209E+02 0.  0.
        -12    1    1    2    0    0 -0.93861841323E+01 -0.16203110960E+02 -0.19740810994E+00  0.18726457948E+02  0.00000000000E+00 0.  1.
         11    1    3    3    0    0 -0.19968382909E+02  0.18370760374E+02  0.47129276361E+01  0.27539659400E+02  0.51100000000E-03 0. -1.
        -11    1    3    3    0    0 -0.22409628463E+01 -0.10576527360E+02  0.33031050105E+01  0.11304660475E+02  0.51100000000E-03 0.  1.
        -12    1    3    3    0    0  0.31595529888E+02  0.84088779461E+01 -0.78186245368E+01  0.33617222177E+02  0.00000000000E+00 0.  1.
</event>
<event>
 7    1  0.3440346E-013  0.7246157E+02  0.7816164E-02  0.1226708E+00
        -11   -1    0    0    0    0  0.00000000000E+00  0.00000000000E+00  0.45593999997E+02  0.45594000000E+02  0.51100000000E-03 0.  1.
         11   -1    0    0    0    0 -0.00000000000E+00 -0.00000000000E+00 -0.45593999997E+02  0.45594000000E+02  0.51100000000E-03 0. -1.
    9900012    2    1    2    0    0 -0.14679683080E+02  0.90804441262E+01 -0.72616542613E+01  0.72461569922E+02  0.69999999515E+02 0.  0.
        -12    1    1    2    0    0  0.14679683080E+02 -0.90804441262E+01  0.72616542613E+01  0.18726430078E+02  0.00000000000E+00 0.  1.
         11    1    3    3    0    0  0.43244601569E+01 -0.45512568146E+01  0.39130484913E+01  0.73977593228E+01  0.51100000000E-03 0. -1.
        -11    1    3    3    0    0  0.14924030354E+02  0.38589541605E+01  0.14692027191E+02  0.21294925980E+02  0.51100000000E-03 0.  1.
         12    1    3    3    0    0 -0.33928173591E+02  0.97727467802E+01 -0.25866729944E+02  0.43768884620E+02  0.00000000000E+00 0. -1.
</event>
<event>
 7    1  0.3440346E-013  0.7246153E+02  0.7816164E-02  0.1226708E+00
        -11   -1    0    0    0    0  0.00000000000E+00  0.00000000000E+00  0.45593999997E+02  0.45594000000E+02  0.51100000000E-03 0. -1.
         11   -1    0    0    0    0 -0.00000000000E+00 -0.00000000000E+00 -0.45593999997E+02  0.45594000000E+02  0.51100000000E-03 0.  1.
    9900012    2    1    2    0    0  0.11322526486E+02  0.14416668488E+02  0.38263352949E+01  0.72461527345E+02  0.69999944051E+02 0.  0.
        -12    1    1    2    0    0 -0.11322526486E+02 -0.14416668488E+02 -0.38263352949E+01  0.18726472655E+02  0.00000000000E+00 0.  1.
         11    1    3    3    0    0  0.14018946257E+02  0.77274972325E+00 -0.17655256604E+02  0.22557395291E+02  0.51100000000E-03 0. -1.
        -11    1    3    3    0    0  0.13899058206E+02 -0.88462260957E+01  0.12026480769E+02  0.20397935560E+02  0.51100000000E-03 0.  1.
         12    1    3    3    0    0 -0.16595477977E+02  0.22490144860E+02  0.94551111299E+01  0.29506196495E+02  0.00000000000E+00 0. -1.
</event>
<event>
 7    1  0.3440346E-013  0.7246159E+02  0.7816164E-02  0.1226708E+00
        -11   -1    0    0    0    0  0.00000000000E+00  0.00000000000E+00  0.45593999997E+02  0.45594000000E+02  0.51100000000E-03 0. -1.
         11   -1    0    0    0    0 -0.00000000000E+00 -0.00000000000E+00 -0.45593999997E+02  0.45594000000E+02  0.51100000000E-03 0.  1.
    9900012    2    1    2    0    0  0.10954468939E+02  0.12298379412E+02  0.89122248701E+01  0.72461594097E+02  0.70000031008E+02 0.  0.
        -12    1    1    2    0    0 -0.10954468939E+02 -0.12298379412E+02 -0.89122248701E+01  0.18726405903E+02  0.00000000000E+00 0.  1.
         11    1    3    3    0    0 -0.80981854134E+01  0.13549398097E+02  0.30191551803E+02  0.34068997582E+02  0.51100000000E-03 0. -1.
        -11    1    3    3    0    0  0.18173076167E+01  0.82831339036E+01  0.11326701071E+01  0.85554576775E+01  0.51100000000E-03 0.  1.
        -12    1    3    3    0    0  0.17235346736E+02 -0.95341525883E+01 -0.22411997040E+02  0.29837138837E+02  0.00000000000E+00 0.  1.
</event>
<event>
 7    1  0.3440346E-013  0.7246147E+02  0.7816164E-02  0.1226708E+00
        -11   -1    0    0    0    0  0.00000000000E+00  0.00000000000E+00  0.45593999997E+02  0.45594000000E+02  0.51100000000E-03 0. -1.
         11   -1    0    0    0    0 -0.00000000000E+00 -0.00000000000E+00 -0.45593999997E+02  0.45594000000E+02  0.51100000000E-03 0.  1.
    9900012    2    1    2    0    0 -0.43743393062E+01 -0.17736738873E+02  0.41178068281E+01  0.72461465796E+02  0.69999863871E+02 0.  0.
        -12    1    1    2    0    0  0.43743393062E+01  0.17736738873E+02 -0.41178068281E+01  0.18726534204E+02  0.00000000000E+00 0.  1.
         11    1    3    3    0    0  0.10157601586E+02 -0.20894068725E+02  0.74256357761E+01  0.24390142370E+02  0.51100000000E-03 0.  1.
        -11    1    3    3    0    0 -0.10412156052E+02  0.19549367201E+02  0.12066730500E+02  0.25222940686E+02  0.51100000000E-03 0. -1.
         12    1    3    3    0    0 -0.41197848405E+01 -0.16392037349E+02 -0.15374559448E+02  0.22848382740E+02  0.00000000000E+00 0. -1.
</event>
<event>
 7    1  0.3440346E-013  0.7246160E+02  0.7816164E-02  0.1226708E+00
        -11   -1    0    0    0    0  0.00000000000E+00  0.00000000000E+00  0.45593999997E+02  0.45594000000E+02  0.51100000000E-03 0.  1.
         11   -1    0    0    0    0 -0.00000000000E+00 -0.00000000000E+00 -0.45593999997E+02  0.45594000000E+02  0.51100000000E-03 0. -1.
    9900012    2    1    2    0    0 -0.12066596595E+02 -0.13726069543E+02 -0.40829279963E+01  0.72461600466E+02  0.70000039304E+02 0.  0.
        -12    1    1    2    0    0  0.12066596595E+02  0.13726069543E+02  0.40829279963E+01  0.18726399534E+02  0.00000000000E+00 0.  1.
         11    1    3    3    0    0 -0.55966080325E+01 -0.55177348741E+01  0.20538548926E+01  0.81231607020E+01  0.51100000000E-03 0. -1.
        -11    1    3    3    0    0  0.12154947252E+02 -0.22280075076E+02  0.17725589799E+02  0.30957083553E+02  0.51100000000E-03 0.  1.
         12    1    3    3    0    0 -0.18624935815E+02  0.14071740407E+02 -0.23862372688E+02  0.33381356211E+02  0.00000000000E+00 0. -1.
</event>
<event>
 7    1  0.3440346E-013  0.7246159E+02  0.7816164E-02  0.1226708E+00
        -11   -1    0    0    0    0  0.00000000000E+00  0.00000000000E+00  0.45593999997E+02  0.45594000000E+02  0.51100000000E-03 0.  1.
         11   -1    0    0    0    0 -0.00000000000E+00 -0.00000000000E+00 -0.45593999997E+02  0.45594000000E+02  0.51100000000E-03 0. -1.
    9900012    2    1    2    0    0  0.78264422426E+01  0.60661633915E+01 -0.15894241079E+02  0.72461589881E+02  0.70000025516E+02 0.  0.
        -12    1    1    2    0    0 -0.78264422426E+01 -0.60661633915E+01  0.15894241079E+02  0.18726410119E+02  0.00000000000E+00 0.  1.
         11    1    3    3    0    0 -0.13657254165E+02 -0.12388726808E+02  0.76520091963E+01  0.19963826994E+02  0.51100000000E-03 0. -1.
        -11    1    3    3    0    0 -0.20826798608E+00 -0.70022260781E+01 -0.17041960259E+02  0.18425605969E+02  0.51100000000E-03 0.  1.
         12    1    3    3    0    0  0.21691964394E+02  0.25457116277E+02 -0.65042900158E+01  0.34072156918E+02  0.00000000000E+00 0. -1.
</event>
<event>
 7    1  0.3440346E-013  0.7246155E+02  0.7816164E-02  0.1226708E+00
        -11   -1    0    0    0    0  0.00000000000E+00  0.00000000000E+00  0.45593999997E+02  0.45594000000E+02  0.51100000000E-03 0.  1.
         11   -1    0    0    0    0 -0.00000000000E+00 -0.00000000000E+00 -0.45593999997E+02  0.45594000000E+02  0.51100000000E-03 0. -1.
    9900012    2    1    2    0    0  0.10174431656E+01 -0.60165315142E+01 -0.17704403490E+02  0.72461554929E+02  0.69999979984E+02 0.  0.
        -12    1    1    2    0    0 -0.10174431656E+01  0.60165315142E+01  0.17704403490E+02  0.18726445071E+02  0.00000000000E+00 0.  1.
         11    1    3    3    0    0  0.23347397194E+02  0.11557099291E+02 -0.19183773260E+02  0.32352506186E+02  0.51100000000E-03 0. -1.
        -11    1    3    3    0    0 -0.93224902933E+01 -0.61391023487E+01 -0.13284353710E+02  0.17351410798E+02  0.51100000000E-03 0.  1.
        -12    1    3    3    0    0 -0.13007463735E+02 -0.11434528456E+02  0.14763723480E+02  0.22757637945E+02  0.00000000000E+00 0.  1.
</event>
<event>
 7    1  0.3440346E-013  0.7246151E+02  0.7816164E-02  0.1226708E+00
        -11   -1    0    0    0    0  0.00000000000E+00  0.00000000000E+00  0.45593999997E+02  0.45594000000E+02  0.51100000000E-03 0.  1.
         11   -1    0    0    0    0 -0.00000000000E+00 -0.00000000000E+00 -0.45593999997E+02  0.45594000000E+02  0.51100000000E-03 0. -1.
    9900012    2    1    2    0    0 -0.13511771981E+02  0.97781976073E+01 -0.85147174096E+01  0.72461506920E+02  0.69999917443E+02 0.  0.
        -12    1    1    2    0    0  0.13511771981E+02 -0.97781976073E+01  0.85147174096E+01  0.18726493080E+02  0.00000000000E+00 0.  1.
         11    1    3    3    0    0 -0.19723376339E+02 -0.10851000545E+02 -0.22667738534E+01  0.22625075712E+02  0.51100000000E-03 0.  1.
        -11    1    3    3    0    0 -0.16551715883E+02  0.33499607958E+01  0.70692518068E+01  0.18307262421E+02  0.51100000000E-03 0. -1.
        -12    1    3    3    0    0  0.22763320240E+02  0.17279237357E+02 -0.13317195363E+02  0.31529168786E+02  0.00000000000E+00 0.  1.
</event>
<event>
 7    1  0.3440346E-013  0.7246154E+02  0.7816164E-02  0.1226708E+00
        -11   -1    0    0    0    0  0.00000000000E+00  0.00000000000E+00  0.45593999997E+02  0.45594000000E+02  0.51100000000E-03 0.  1.
         11   -1    0    0    0    0 -0.00000000000E+00 -0.00000000000E+00 -0.45593999997E+02  0.45594000000E+02  0.51100000000E-03 0. -1.
    9900012    2    1    2    0    0 -0.91762391511E+01  0.16224862917E+02  0.17974735959E+01  0.72461536026E+02  0.69999955359E+02 0.  0.
        -12    1    1    2    0    0  0.91762391511E+01 -0.16224862917E+02 -0.17974735959E+01  0.18726463974E+02  0.00000000000E+00 0.  1.
         11    1    3    3    0    0  0.15119081328E+02  0.16240951250E+02  0.75914562959E+01  0.23451765960E+02  0.51100000000E-03 0. -1.
        -11    1    3    3    0    0  0.11465583517E+02  0.50753455251E+01 -0.18259563173E+01  0.12670945281E+02  0.51100000000E-03 0.  1.
        -12    1    3    3    0    0 -0.35760903996E+02 -0.50914338582E+01 -0.39680263827E+01  0.36338824785E+02  0.00000000000E+00 0.  1.
</event>
<event>
 7    1  0.3440346E-013  0.7246156E+02  0.7816164E-02  0.1226708E+00
        -11   -1    0    0    0    0  0.00000000000E+00  0.00000000000E+00  0.45593999997E+02  0.45594000000E+02  0.51100000000E-03 0. -1.
         11   -1    0    0    0    0 -0.00000000000E+00 -0.00000000000E+00 -0.45593999997E+02  0.45594000000E+02  0.51100000000E-03 0.  1.
    9900012    2    1    2    0    0 -0.10339890904E+02 -0.15611895363E+02  0.18701967845E+00  0.72461558878E+02  0.69999985128E+02 0.  0.
        -12    1    1    2    0    0  0.10339890904E+02  0.15611895363E+02 -0.18701967845E+00  0.18726441122E+02  0.00000000000E+00 0.  1.
         11    1    3    3    0    0  0.43945372870E+00 -0.71279476559E+01 -0.45945722108E+01  0.84918108449E+01  0.51100000000E-03 0. -1.
        -11    1    3    3    0    0  0.11302434363E+02  0.83825904114E+01 -0.21518047194E+02  0.25710682602E+02  0.51100000000E-03 0.  1.
         12    1    3    3    0    0 -0.22081778997E+02 -0.16866538118E+02  0.26299639083E+02  0.38259065431E+02  0.00000000000E+00 0. -1.
</event>
<event>
 7    1  0.3440346E-013  0.7246157E+02  0.7816164E-02  0.1226708E+00
        -11   -1    0    0    0    0  0.00000000000E+00  0.00000000000E+00  0.45593999997E+02  0.45594000000E+02  0.51100000000E-03 0.  1.
         11   -1    0    0    0    0 -0.00000000000E+00 -0.00000000000E+00 -0.45593999997E+02  0.45594000000E+02  0.51100000000E-03 0. -1.
    9900012    2    1    2    0    0 -0.34366337327E+01  0.95899788204E+01 -0.15713087657E+02  0.72461567641E+02  0.69999996543E+02 0.  0.
        -12    1    1    2    0    0  0.34366337327E+01 -0.95899788204E+01  0.15713087657E+02  0.18726432359E+02  0.00000000000E+00 0.  1.
         11    1    3    3    0    0  0.99753094815E+01 -0.17899754941E+02 -0.22010125365E+02  0.30072473211E+02  0.51100000000E-03 0. -1.
        -11    1    3    3    0    0 -0.67124496882E+01  0.46820576811E+01  0.14989676222E+02  0.17078320715E+02  0.51100000000E-03 0.  1.
        -12    1    3    3    0    0 -0.66994935260E+01  0.22807676080E+02 -0.86926385151E+01  0.25310773714E+02  0.00000000000E+00 0.  1.
</event>
<event>
 7    1  0.3440346E-013  0.7246158E+02  0.7816164E-02  0.1226708E+00
        -11   -1    0    0    0    0  0.00000000000E+00  0.00000000000E+00  0.45593999997E+02  0.45594000000E+02  0.51100000000E-03 0. -1.
         11   -1    0    0    0    0 -0.00000000000E+00 -0.00000000000E+00 -0.45593999997E+02  0.45594000000E+02  0.51100000000E-03 0.  1.
    9900012    2    1    2    0    0  0.15587507165E+02  0.13096213215E+01  0.10295302340E+02  0.72461581819E+02  0.70000015013E+02 0.  0.
        -12    1    1    2    0    0 -0.15587507165E+02 -0.13096213215E+01 -0.10295302340E+02  0.18726418181E+02  0.00000000000E+00 0.  1.
         11    1    3    3    0    0 -0.19578540678E+00  0.28765141545E+02 -0.11435286907E+02  0.30955411271E+02  0.51100000000E-03 0.  1.
        -11    1    3    3    0    0  0.63226587589E+01 -0.11929324004E-01  0.34794284685E+01  0.72168260904E+01  0.51100000000E-03 0. -1.
        -12    1    3    3    0    0  0.94606338131E+01 -0.27443590900E+02  0.18251160778E+02  0.34289344458E+02  0.00000000000E+00 0.  1.
</event>
<event>
 7    1  0.3440346E-013  0.7246147E+02  0.7816164E-02  0.1226708E+00
        -11   -1    0    0    0    0  0.00000000000E+00  0.00000000000E+00  0.45593999997E+02  0.45594000000E+02  0.51100000000E-03 0. -1.
         11   -1    0    0    0    0 -0.00000000000E+00 -0.00000000000E+00 -0.45593999997E+02  0.45594000000E+02  0.51100000000E-03 0.  1.
    9900012    2    1    2    0    0  0.19369874839E+01 -0.18300467103E+02 -0.34675296017E+01  0.72461473941E+02  0.69999874482E+02 0.  0.
        -12    1    1    2    0    0 -0.19369874839E+01  0.18300467103E+02  0.34675296017E+01  0.18726526059E+02  0.00000000000E+00 0.  1.
         11    1    3    3    0    0  0.11557536621E+02 -0.15289285175E+02 -0.13649256939E+02  0.23529579452E+02  0.51100000000E-03 0. -1.
        -11    1    3    3    0    0 -0.20453559943E+02 -0.17808851656E+02 -0.15447678752E+01  0.27164123761E+02  0.51100000000E-03 0.  1.
         12    1    3    3    0    0  0.10833010806E+02  0.14797669728E+02  0.11726495213E+02  0.21767770728E+02  0.00000000000E+00 0. -1.
</event>
<event>
 7    1  0.4246061E-013  0.7246177E+02  0.7816164E-02  0.1226707E+00
        -11   -1    0    0    0    0  0.00000000000E+00  0.00000000000E+00  0.45593999997E+02  0.45594000000E+02  0.51100000000E-03 0. -1.
         11   -1    0    0    0    0 -0.00000000000E+00 -0.00000000000E+00 -0.45593999997E+02  0.45594000000E+02  0.51100000000E-03 0.  1.
    9900012    2    1    2    0    0  0.23172188855E+01  0.28050091331E+01  0.18369381811E+02  0.72461767926E+02  0.70000257451E+02 0.  0.
        -12    1    1    2    0    0 -0.23172188855E+01 -0.28050091331E+01 -0.18369381811E+02  0.18726232074E+02  0.00000000000E+00 0.  1.
         11    1    3    3    0    0 -0.67600363331E+01 -0.33047044238E+01  0.34575808863E+02  0.35385105925E+02  0.51100000000E-03 0. -1.
        -11    1    3    3    0    0  0.16279856435E+02 -0.26592037647E+01  0.93201416524E+00  0.16521916985E+02  0.51100000000E-03 0.  1.
        -12    1    3    3    0    0 -0.72026012163E+01  0.87689173215E+01 -0.17138441217E+02  0.20554745015E+02  0.00000000000E+00 0.  1.
</event>
<event>
 7    1  0.3440346E-013  0.7246160E+02  0.7816164E-02  0.1226708E+00
        -11   -1    0    0    0    0  0.00000000000E+00  0.00000000000E+00  0.45593999997E+02  0.45594000000E+02  0.51100000000E-03 0. -1.
         11   -1    0    0    0    0 -0.00000000000E+00 -0.00000000000E+00 -0.45593999997E+02  0.45594000000E+02  0.51100000000E-03 0.  1.
    9900012    2    1    2    0    0 -0.15527680223E+02  0.49292306485E-01 -0.10467413398E+02  0.72461600825E+02  0.70000039771E+02 0.  0.
        -12    1    1    2    0    0  0.15527680223E+02 -0.49292306485E-01  0.10467413398E+02  0.18726399175E+02  0.00000000000E+00 0.  1.
         11    1    3    3    0    0  0.21856710477E+02 -0.92324708866E+01 -0.45312615653E+01  0.24155468184E+02  0.51100000000E-03 0. -1.
        -11    1    3    3    0    0 -0.21512348114E+01 -0.54012288112E+01  0.59590754941E+01  0.83253627483E+01  0.51100000000E-03 0.  1.
        -12    1    3    3    0    0 -0.35233155888E+02  0.14682992004E+02 -0.11895227327E+02  0.39980769893E+02  0.00000000000E+00 0.  1.
</event>
<event>
 7    1  0.3440346E-013  0.7246176E+02  0.7816164E-02  0.1226708E+00
        -11   -1    0    0    0    0  0.00000000000E+00  0.00000000000E+00  0.45593999997E+02  0.45594000000E+02  0.51100000000E-03 0. -1.
         11   -1    0    0    0    0 -0.00000000000E+00 -0.00000000000E+00 -0.45593999997E+02  0.45594000000E+02  0.51100000000E-03 0.  1.
    9900012    2    1    2    0    0 -0.79074961107E+01  0.64188450697E+01  0.15714393983E+02  0.72461755181E+02  0.70000240849E+02 0.  0.
        -12    1    1    2    0    0  0.79074961107E+01 -0.64188450697E+01 -0.15714393983E+02  0.18726244819E+02  0.00000000000E+00 0.  1.
         11    1    3    3    0    0 -0.64704465764E+01 -0.56499133904E+01 -0.97393007675E+00  0.86450413690E+01  0.51100000000E-03 0. -1.
        -11    1    3    3    0    0 -0.30514059787E+02  0.51747883462E+01  0.13493561278E+02  0.33763330335E+02  0.51100000000E-03 0.  1.
        -12    1    3    3    0    0  0.29077010253E+02  0.68939701138E+01  0.31947627820E+01  0.30053383477E+02  0.00000000000E+00 0.  1.
</event>
<event>
 7    1  0.3440346E-013  0.7246156E+02  0.7816164E-02  0.1226708E+00
        -11   -1    0    0    0    0  0.00000000000E+00  0.00000000000E+00  0.45593999997E+02  0.45594000000E+02  0.51100000000E-03 0.  1.
         11   -1    0    0    0    0 -0.00000000000E+00 -0.00000000000E+00 -0.45593999997E+02  0.45594000000E+02  0.51100000000E-03 0. -1.
    9900012    2    1    2    0    0 -0.14358598281E+02 -0.11811476424E+02 -0.22359101853E+01  0.72461558419E+02  0.69999984530E+02 0.  0.
        -12    1    1    2    0    0  0.14358598281E+02  0.11811476424E+02  0.22359101853E+01  0.18726441581E+02  0.00000000000E+00 0.  1.
         11    1    3    3    0    0  0.15287119318E+02 -0.97460561831E+01 -0.17954327382E+02  0.25515475700E+02  0.51100000000E-03 0. -1.
        -11    1    3    3    0    0 -0.25143513042E+02 -0.93405000120E+01 -0.23795701240E+01  0.26927746709E+02  0.51100000000E-03 0.  1.
        -12    1    3    3    0    0 -0.45022045571E+01  0.72750797707E+01  0.18097987321E+02  0.20018336010E+02  0.00000000000E+00 0.  1.
</event>
<event>
 7    1  0.3440346E-013  0.7246143E+02  0.7816164E-02  0.1226708E+00
        -11   -1    0    0    0    0  0.00000000000E+00  0.00000000000E+00  0.45593999997E+02  0.45594000000E+02  0.51100000000E-03 0. -1.
         11   -1    0    0    0    0 -0.00000000000E+00 -0.00000000000E+00 -0.45593999997E+02  0.45594000000E+02  0.51100000000E-03 0.  1.
    9900012    2    1    2    0    0  0.10424188438E+02  0.13597131409E+02 -0.75590153454E+01  0.72461430636E+02  0.69999818069E+02 0.  0.
        -12    1    1    2    0    0 -0.10424188438E+02 -0.13597131409E+02  0.75590153454E+01  0.18726569364E+02  0.00000000000E+00 0.  1.
         11    1    3    3    0    0  0.24465825953E+02  0.90033575400E+01 -0.16658587487E+02  0.30937770183E+02  0.51100000000E-03 0. -1.
        -11    1    3    3    0    0  0.11512346863E+02 -0.57337973273E+01  0.41994410237E+01  0.13529444455E+02  0.51100000000E-03 0.  1.
         12    1    3    3    0    0 -0.25553984377E+02  0.10327571197E+02  0.49001311182E+01  0.27994215998E+02  0.00000000000E+00 0. -1.
</event>
<event>
 7    1  0.3440346E-013  0.7246128E+02  0.7816164E-02  0.1226709E+00
        -11   -1    0    0    0    0  0.00000000000E+00  0.00000000000E+00  0.45593999997E+02  0.45594000000E+02  0.51100000000E-03 0. -1.
         11   -1    0    0    0    0 -0.00000000000E+00 -0.00000000000E+00 -0.45593999997E+02  0.45594000000E+02  0.51100000000E-03 0.  1.
    9900012    2    1    2    0    0  0.18575789759E+02 -0.76097438382E+00  0.22474557320E+01  0.72461278331E+02  0.69999619663E+02 0.  0.
        -12    1    1    2    0    0 -0.18575789759E+02  0.76097438382E+00 -0.22474557320E+01  0.18726721669E+02  0.00000000000E+00 0.  1.
         11    1    3    3    0    0  0.28310797304E+01 -0.22344287905E+00 -0.25689305388E+01  0.38294051149E+01  0.51100000000E-03 0. -1.
        -11    1    3    3    0    0  0.29517166195E+02 -0.13897875480E+02 -0.19227830768E+02  0.37869823334E+02  0.51100000000E-03 0.  1.
         12    1    3    3    0    0 -0.13772456166E+02  0.13360343975E+02  0.24044217039E+02  0.30762049883E+02  0.00000000000E+00 0. -1.
</event>
<event>
 7    1  0.3440346E-013  0.7246158E+02  0.7816164E-02  0.1226708E+00
        -11   -1    0    0    0    0  0.00000000000E+00  0.00000000000E+00  0.45593999997E+02  0.45594000000E+02  0.51100000000E-03 0. -1.
         11   -1    0    0    0    0 -0.00000000000E+00 -0.00000000000E+00 -0.45593999997E+02  0.45594000000E+02  0.51100000000E-03 0.  1.
    9900012    2    1    2    0    0 -0.99685177320E+01 -0.11974587249E+02  0.10388304553E+02  0.72461575967E+02  0.70000007390E+02 0.  0.
        -12    1    1    2    0    0  0.99685177320E+01  0.11974587249E+02 -0.10388304553E+02  0.18726424033E+02  0.00000000000E+00 0.  1.
         11    1    3    3    0    0 -0.45465144778E+01 -0.33364399196E+01 -0.82939361769E+01  0.10029556461E+02  0.51100000000E-03 0. -1.
        -11    1    3    3    0    0 -0.26676768572E+02 -0.18221510945E+02 -0.39213144733E+00  0.32308314873E+02  0.51100000000E-03 0.  1.
         12    1    3    3    0    0  0.21254765318E+02  0.95833636161E+01  0.19074372178E+02  0.30123704634E+02  0.00000000000E+00 0. -1.
</event>
<event>
 7    1  0.3440346E-013  0.7246155E+02  0.7816164E-02  0.1226708E+00
        -11   -1    0    0    0    0  0.00000000000E+00  0.00000000000E+00  0.45593999997E+02  0.45594000000E+02  0.51100000000E-03 0. -1.
         11   -1    0    0    0    0 -0.00000000000E+00 -0.00000000000E+00 -0.45593999997E+02  0.45594000000E+02  0.51100000000E-03 0.  1.
    9900012    2    1    2    0    0  0.13068323180E+02 -0.62506802094E+01  0.11867086527E+02  0.72461553021E+02  0.69999977499E+02 0.  0.
        -12    1    1    2    0    0 -0.13068323180E+02  0.62506802094E+01 -0.11867086527E+02  0.18726446979E+02  0.00000000000E+00 0.  1.
         11    1    3    3    0    0  0.18510018752E+02 -0.87972488383E+01  0.15701479346E+02  0.25817607078E+02  0.51100000000E-03 0. -1.
        -11    1    3    3    0    0  0.26904225708E+01 -0.15068186651E+02  0.13663337131E+02  0.20517685161E+02  0.51100000000E-03 0.  1.
        -12    1    3    3    0    0 -0.81321181427E+01  0.17614755280E+02 -0.17497729950E+02  0.26126260782E+02  0.00000000000E+00 0.  1.
</event>
<event>
 7    1  0.3440346E-013  0.7246160E+02  0.7816164E-02  0.1226708E+00
        -11   -1    0    0    0    0  0.00000000000E+00  0.00000000000E+00  0.45593999997E+02  0.45594000000E+02  0.51100000000E-03 0.  1.
         11   -1    0    0    0    0 -0.00000000000E+00 -0.00000000000E+00 -0.45593999997E+02  0.45594000000E+02  0.51100000000E-03 0. -1.
    9900012    2    1    2    0    0  0.11297189739E+02  0.17235129811E+01 -0.14835129886E+02  0.72461599605E+02  0.70000038183E+02 0.  0.
        -12    1    1    2    0    0 -0.11297189739E+02 -0.17235129811E+01  0.14835129886E+02  0.18726400395E+02  0.00000000000E+00 0.  1.
         11    1    3    3    0    0 -0.12463051946E+02  0.14569230238E+02  0.46649041085E+01  0.19731990882E+02  0.51100000000E-03 0. -1.
        -11    1    3    3    0    0  0.26104355459E+02 -0.43798291281E+00  0.36478229608E+01  0.26361635298E+02  0.51100000000E-03 0.  1.
        -12    1    3    3    0    0 -0.23441137737E+01 -0.12407734344E+02 -0.23147856955E+02  0.26367973425E+02  0.00000000000E+00 0.  1.
</event>
<event>
 7    1  0.3440346E-013  0.7246169E+02  0.7816164E-02  0.1226708E+00
        -11   -1    0    0    0    0  0.00000000000E+00  0.00000000000E+00  0.45593999997E+02  0.45594000000E+02  0.51100000000E-03 0. -1.
         11   -1    0    0    0    0 -0.00000000000E+00 -0.00000000000E+00 -0.45593999997E+02  0.45594000000E+02  0.51100000000E-03 0.  1.
    9900012    2    1    2    0    0  0.81548783799E+01  0.15604675165E+02  0.63770555472E+01  0.72461687874E+02  0.70000153169E+02 0.  0.
        -12    1    1    2    0    0 -0.81548783799E+01 -0.15604675165E+02 -0.63770555472E+01  0.18726312126E+02  0.00000000000E+00 0.  1.
         11    1    3    3    0    0  0.13587363545E+02  0.12825051541E+02 -0.10301909233E+02  0.21336066395E+02  0.51100000000E-03 0. -1.
        -11    1    3    3    0    0  0.18402622320E+02  0.11057929646E+02  0.11544260800E+01  0.21500395720E+02  0.51100000000E-03 0.  1.
        -12    1    3    3    0    0 -0.23835107484E+02 -0.82783060218E+01  0.15524538701E+02  0.29625225759E+02  0.00000000000E+00 0.  1.
</event>
<event>
 7    1  0.3440346E-013  0.7246154E+02  0.7816164E-02  0.1226708E+00
        -11   -1    0    0    0    0  0.00000000000E+00  0.00000000000E+00  0.45593999997E+02  0.45594000000E+02  0.51100000000E-03 0.  1.
         11   -1    0    0    0    0 -0.00000000000E+00 -0.00000000000E+00 -0.45593999997E+02  0.45594000000E+02  0.51100000000E-03 0. -1.
    9900012    2    1    2    0    0 -0.18086059814E+02 -0.48220270746E+01 -0.56810438707E+00  0.72461541518E+02  0.69999962513E+02 0.  0.
        -12    1    1    2    0    0  0.18086059814E+02  0.48220270746E+01  0.56810438707E+00  0.18726458482E+02  0.00000000000E+00 0.  1.
         11    1    3    3    0    0  0.63578898845E+01 -0.19890894113E+00  0.57914096183E+01  0.86024853489E+01  0.51100000000E-03 0. -1.
        -11    1    3    3    0    0 -0.10137421368E+02 -0.28038200005E+02  0.10551603416E+02  0.31626639189E+02  0.51100000000E-03 0.  1.
         12    1    3    3    0    0 -0.14306528330E+02  0.23415081871E+02 -0.16911117421E+02  0.32232416979E+02  0.00000000000E+00 0. -1.
</event>
<event>
 7    1  0.3440346E-013  0.7246155E+02  0.7816164E-02  0.1226708E+00
        -11   -1    0    0    0    0  0.00000000000E+00  0.00000000000E+00  0.45593999997E+02  0.45594000000E+02  0.51100000000E-03 0.  1.
         11   -1    0    0    0    0 -0.00000000000E+00 -0.00000000000E+00 -0.45593999997E+02  0.45594000000E+02  0.51100000000E-03 0. -1.
    9900012    2    1    2    0    0 -0.22938459209E+01  0.17758360187E+02 -0.54825807490E+01  0.72461554066E+02  0.69999978860E+02 0.  0.
        -12    1    1    2    0    0  0.22938459209E+01 -0.17758360187E+02  0.54825807490E+01  0.18726445934E+02  0.00000000000E+00 0.  1.
         11    1    3    3    0    0 -0.63803439848E+01  0.37695956324E+01  0.19924128296E+01  0.76738744934E+01  0.51100000000E-03 0. -1.
        -11    1    3    3    0    0  0.14479282137E+02  0.32755173989E+02  0.99290107417E+01  0.37163642029E+02  0.51100000000E-03 0.  1.
         12    1    3    3    0    0 -0.10392784073E+02 -0.18766409434E+02 -0.17404004320E+02  0.27624037544E+02  0.00000000000E+00 0. -1.
</event>
<event>
 7    1  0.3440346E-013  0.7246187E+02  0.7816164E-02  0.1226707E+00
        -11   -1    0    0    0    0  0.00000000000E+00  0.00000000000E+00  0.45593999997E+02  0.45594000000E+02  0.51100000000E-03 0. -1.
         11   -1    0    0    0    0 -0.00000000000E+00 -0.00000000000E+00 -0.45593999997E+02  0.45594000000E+02  0.51100000000E-03 0.  1.
    9900012    2    1    2    0    0  0.17793701145E+02 -0.22791239086E+01 -0.53719515115E+01  0.72461866676E+02  0.70000386091E+02 0.  0.
        -12    1    1    2    0    0 -0.17793701145E+02  0.22791239086E+01  0.53719515115E+01  0.18726133324E+02  0.00000000000E+00 0.  1.
         11    1    3    3    0    0  0.17028543142E+02 -0.11519555947E+02 -0.80185053275E+01  0.22067348702E+02  0.51100000000E-03 0. -1.
        -11    1    3    3    0    0  0.36924456303E+01 -0.18776272957E+02 -0.73575239807E+01  0.20501603359E+02  0.51100000000E-03 0.  1.
        -12    1    3    3    0    0 -0.29272876276E+01  0.28016704995E+02  0.10004077797E+02  0.29892914616E+02  0.00000000000E+00 0.  1.
</event>
<event>
 7    1  0.3440346E-013  0.7246165E+02  0.7816164E-02  0.1226708E+00
        -11   -1    0    0    0    0  0.00000000000E+00  0.00000000000E+00  0.45593999997E+02  0.45594000000E+02  0.51100000000E-03 0.  1.
         11   -1    0    0    0    0 -0.00000000000E+00 -0.00000000000E+00 -0.45593999997E+02  0.45594000000E+02  0.51100000000E-03 0. -1.
    9900012    2    1    2    0    0  0.77539154334E+01  0.41927931359E+01 -0.16521906441E+02  0.72461651950E+02  0.70000106372E+02 0.  0.
        -12    1    1    2    0    0 -0.77539154334E+01 -0.41927931359E+01  0.16521906441E+02  0.18726348050E+02  0.00000000000E+00 0.  1.
         11    1    3    3    0    0 -0.46473006723E+01 -0.11298388599E+02  0.17468490386E+01  0.12341088700E+02  0.51100000000E-03 0. -1.
        -11    1    3    3    0    0 -0.17424189632E+02 -0.79785415293E+01 -0.40168456021E+01  0.19580463685E+02  0.51100000000E-03 0.  1.
         12    1    3    3    0    0  0.29825405738E+02  0.23469723265E+02 -0.14251909878E+02  0.40540099565E+02  0.00000000000E+00 0. -1.
</event>
<event>
 7    1  0.3440346E-013  0.7246158E+02  0.7816164E-02  0.1226708E+00
        -11   -1    0    0    0    0  0.00000000000E+00  0.00000000000E+00  0.45593999997E+02  0.45594000000E+02  0.51100000000E-03 0. -1.
         11   -1    0    0    0    0 -0.00000000000E+00 -0.00000000000E+00 -0.45593999997E+02  0.45594000000E+02  0.51100000000E-03 0.  1.
    9900012    2    1    2    0    0  0.20151924482E+01  0.44009401503E+01  0.18090038865E+02  0.72461580670E+02  0.70000013516E+02 0.  0.
        -12    1    1    2    0    0 -0.20151924482E+01 -0.44009401503E+01 -0.18090038865E+02  0.18726419330E+02  0.00000000000E+00 0.  1.
         11    1    3    3    0    0 -0.62697215927E+01 -0.19691763553E+02  0.28616529419E+02  0.35298452047E+02  0.51100000000E-03 0. -1.
        -11    1    3    3    0    0  0.61606820724E+01  0.12252857614E+02  0.73933529253E+01  0.15580378399E+02  0.51100000000E-03 0.  1.
        -12    1    3    3    0    0  0.21242319685E+01  0.11839846089E+02 -0.17919843480E+02  0.21582750223E+02  0.00000000000E+00 0.  1.
</event>
<event>
 7    1  0.3440346E-013  0.7246100E+02  0.7816164E-02  0.1226710E+00
        -11   -1    0    0    0    0  0.00000000000E+00  0.00000000000E+00  0.45593999997E+02  0.45594000000E+02  0.51100000000E-03 0.  1.
         11   -1    0    0    0    0 -0.00000000000E+00 -0.00000000000E+00 -0.45593999997E+02  0.45594000000E+02  0.51100000000E-03 0. -1.
    9900012    2    1    2    0    0  0.11472843891E+02  0.11056362846E+02 -0.98402860846E+01  0.72460999798E+02  0.69999256819E+02 0.  0.
        -12    1    1    2    0    0 -0.11472843891E+02 -0.11056362846E+02  0.98402860846E+01  0.18727000202E+02  0.00000000000E+00 0.  1.
         11    1    3    3    0    0  0.23998529743E+02  0.75444694038E+01 -0.79018484307E+01  0.26368307820E+02  0.51100000000E-03 0.  1.
        -11    1    3    3    0    0 -0.24746226355E+02 -0.10036870156E+02  0.37830132423E+01  0.26970829999E+02  0.51100000000E-03 0. -1.
         12    1    3    3    0    0  0.12220540504E+02  0.13548763598E+02 -0.57214508961E+01  0.19121861980E+02  0.00000000000E+00 0. -1.
</event>
<event>
 7    1  0.3440346E-013  0.7246158E+02  0.7816164E-02  0.1226708E+00
        -11   -1    0    0    0    0  0.00000000000E+00  0.00000000000E+00  0.45593999997E+02  0.45594000000E+02  0.51100000000E-03 0.  1.
         11   -1    0    0    0    0 -0.00000000000E+00 -0.00000000000E+00 -0.45593999997E+02  0.45594000000E+02  0.51100000000E-03 0. -1.
    9900012    2    1    2    0    0 -0.13008930692E+01  0.67693424769E+00 -0.18668906289E+02  0.72461584839E+02  0.70000018947E+02 0.  0.
        -12    1    1    2    0    0  0.13008930692E+01 -0.67693424769E+00  0.18668906289E+02  0.18726415161E+02  0.00000000000E+00 0.  1.
         11    1    3    3    0    0  0.54181279901E+01 -0.41877027254E+01  0.74921227731E+01  0.10150116696E+02  0.51100000000E-03 0. -1.
        -11    1    3    3    0    0 -0.47464809861E+01 -0.70908582021E+01  0.16168404891E+02  0.18281867213E+02  0.51100000000E-03 0.  1.
         12    1    3    3    0    0 -0.19725400731E+01  0.11955495175E+02 -0.42329433954E+02  0.44029600930E+02  0.00000000000E+00 0. -1.
</event>
<event>
 7    1  0.3440346E-013  0.7246160E+02  0.7816164E-02  0.1226708E+00
        -11   -1    0    0    0    0  0.00000000000E+00  0.00000000000E+00  0.45593999997E+02  0.45594000000E+02  0.51100000000E-03 0. -1.
         11   -1    0    0    0    0 -0.00000000000E+00 -0.00000000000E+00 -0.45593999997E+02  0.45594000000E+02  0.51100000000E-03 0.  1.
    9900012    2    1    2    0    0  0.41873184180E+01 -0.12843451399E+02  0.12968811141E+02  0.72461603075E+02  0.70000042703E+02 0.  0.
        -12    1    1    2    0    0 -0.41873184180E+01  0.12843451399E+02 -0.12968811141E+02  0.18726396925E+02  0.00000000000E+00 0.  1.
         11    1    3    3    0    0 -0.86756670779E+00 -0.24294198523E+02  0.20901114240E+02  0.32059590307E+02  0.51100000000E-03 0. -1.
        -11    1    3    3    0    0 -0.67646161296E+01 -0.50147606750E+01 -0.16400214250E+02  0.18435695911E+02  0.51100000000E-03 0.  1.
         12    1    3    3    0    0  0.11819501255E+02  0.16465507799E+02  0.84679111509E+01  0.21966316857E+02  0.00000000000E+00 0. -1.
</event>
<event>
 7    1  0.3440346E-013  0.7246158E+02  0.7816164E-02  0.1226708E+00
        -11   -1    0    0    0    0  0.00000000000E+00  0.00000000000E+00  0.45593999997E+02  0.45594000000E+02  0.51100000000E-03 0.  1.
         11   -1    0    0    0    0 -0.00000000000E+00 -0.00000000000E+00 -0.45593999997E+02  0.45594000000E+02  0.51100000000E-03 0. -1.
    9900012    2    1    2    0    0 -0.13684183380E+02 -0.24254035029E+01 -0.12551461374E+02  0.72461584445E+02  0.70000018434E+02 0.  0.
        -12    1    1    2    0    0  0.13684183380E+02  0.24254035029E+01  0.12551461374E+02  0.18726415555E+02  0.00000000000E+00 0.  1.
         11    1    3    3    0    0  0.10810386548E+02 -0.63054316133E-01  0.12687103182E+02  0.16668263874E+02  0.51100000000E-03 0. -1.
        -11    1    3    3    0    0  0.70222348898E+01 -0.11929592238E+02  0.71247473937E+00  0.13861261643E+02  0.51100000000E-03 0.  1.
         12    1    3    3    0    0 -0.31516804818E+02  0.95672430513E+01 -0.25951039295E+02  0.41932058928E+02  0.00000000000E+00 0. -1.
</event>
<event>
 7    1  0.3440346E-013  0.7246159E+02  0.7816164E-02  0.1226708E+00
        -11   -1    0    0    0    0  0.00000000000E+00  0.00000000000E+00  0.45593999997E+02  0.45594000000E+02  0.51100000000E-03 0.  1.
         11   -1    0    0    0    0 -0.00000000000E+00 -0.00000000000E+00 -0.45593999997E+02  0.45594000000E+02  0.51100000000E-03 0. -1.
    9900012    2    1    2    0    0  0.63704416398E+01  0.16253918842E+02 -0.67754067841E+01  0.72461587063E+02  0.70000021844E+02 0.  0.
        -12    1    1    2    0    0 -0.63704416398E+01 -0.16253918842E+02  0.67754067841E+01  0.18726412937E+02  0.00000000000E+00 0.  1.
         11    1    3    3    0    0 -0.12786380090E+02 -0.17755339701E+02 -0.81505163891E+01  0.23348972598E+02  0.51100000000E-03 0. -1.
        -11    1    3    3    0    0 -0.60883896282E+01  0.16419773582E+02  0.47887846896E+01  0.18155162126E+02  0.51100000000E-03 0.  1.
         12    1    3    3    0    0  0.25245211358E+02  0.17589484961E+02 -0.34136750846E+01  0.30957452339E+02  0.00000000000E+00 0. -1.
</event>
<event>
 7    1  0.3440346E-013  0.7246136E+02  0.7816164E-02  0.1226709E+00
        -11   -1    0    0    0    0  0.00000000000E+00  0.00000000000E+00  0.45593999997E+02  0.45594000000E+02  0.51100000000E-03 0. -1.
         11   -1    0    0    0    0 -0.00000000000E+00 -0.00000000000E+00 -0.45593999997E+02  0.45594000000E+02  0.51100000000E-03 0.  1.
    9900012    2    1    2    0    0 -0.28091997920E+01 -0.18454368797E+02 -0.14938823790E+01  0.72461360800E+02  0.69999727095E+02 0.  0.
        -12    1    1    2    0    0  0.28091997920E+01  0.18454368797E+02  0.14938823790E+01  0.18726639200E+02  0.00000000000E+00 0.  1.
         11    1    3    3    0    0 -0.94123514831E+01 -0.12573865638E+02  0.44774375459E+01  0.16332235143E+02  0.51100000000E-03 0.  1.
        -11    1    3    3    0    0  0.15716708835E+02  0.16332198820E+02 -0.18307051729E+02  0.29135953703E+02  0.51100000000E-03 0. -1.
         12    1    3    3    0    0 -0.91135571439E+01 -0.22212701979E+02  0.12335731804E+02  0.26993171955E+02  0.00000000000E+00 0. -1.
</event>
<event>
 7    1  0.3440346E-013  0.7246157E+02  0.7816164E-02  0.1226708E+00
        -11   -1    0    0    0    0  0.00000000000E+00  0.00000000000E+00  0.45593999997E+02  0.45594000000E+02  0.51100000000E-03 0.  1.
         11   -1    0    0    0    0 -0.00000000000E+00 -0.00000000000E+00 -0.45593999997E+02  0.45594000000E+02  0.51100000000E-03 0. -1.
    9900012    2    1    2    0    0  0.78013188180E+01  0.11275743505E+02 -0.12754463847E+02  0.72461566413E+02  0.69999994943E+02 0.  0.
        -12    1    1    2    0    0 -0.78013188180E+01 -0.11275743505E+02  0.12754463847E+02  0.18726433587E+02  0.00000000000E+00 0.  1.
         11    1    3    3    0    0  0.90589413056E+00  0.32725651790E+02 -0.75196382924E+00  0.32746822427E+02  0.51100000000E-03 0. -1.
        -11    1    3    3    0    0 -0.29230742110E+01  0.21569689800E+01 -0.13620166462E+02  0.14096304932E+02  0.51100000000E-03 0.  1.
        -12    1    3    3    0    0  0.98184988985E+01 -0.23606877265E+02  0.16176664443E+01  0.25618439053E+02  0.00000000000E+00 0.  1.
</event>
<event>
 7    1  0.3440346E-013  0.7246156E+02  0.7816164E-02  0.1226708E+00
        -11   -1    0    0    0    0  0.00000000000E+00  0.00000000000E+00  0.45593999997E+02  0.45594000000E+02  0.51100000000E-03 0.  1.
         11   -1    0    0    0    0 -0.00000000000E+00 -0.00000000000E+00 -0.45593999997E+02  0.45594000000E+02  0.51100000000E-03 0. -1.
    9900012    2    1    2    0    0  0.16631158638E+02  0.62955511899E+01  0.58694317499E+01  0.72461557960E+02  0.69999983932E+02 0.  0.
        -12    1    1    2    0    0 -0.16631158638E+02 -0.62955511899E+01 -0.58694317499E+01  0.18726442040E+02  0.00000000000E+00 0.  1.
         11    1    3    3    0    0 -0.21070762668E+02 -0.11718645040E+02  0.59249357442E+01  0.24827576298E+02  0.51100000000E-03 0. -1.
        -11    1    3    3    0    0  0.18760300430E+01  0.10959937300E+02 -0.13097470942E+00  0.11120111014E+02  0.51100000000E-03 0.  1.
        -12    1    3    3    0    0  0.35825891263E+02  0.70542589301E+01  0.75470715079E-01  0.36513870648E+02  0.00000000000E+00 0.  1.
</event>
<event>
 7    1  0.3440346E-013  0.7246160E+02  0.7816164E-02  0.1226708E+00
        -11   -1    0    0    0    0  0.00000000000E+00  0.00000000000E+00  0.45593999997E+02  0.45594000000E+02  0.51100000000E-03 0.  1.
         11   -1    0    0    0    0 -0.00000000000E+00 -0.00000000000E+00 -0.45593999997E+02  0.45594000000E+02  0.51100000000E-03 0. -1.
    9900012    2    1    2    0    0  0.11005663416E+02 -0.15015419922E+02 -0.20224846242E+01  0.72461604011E+02  0.70000043923E+02 0.  0.
        -12    1    1    2    0    0 -0.11005663416E+02  0.15015419922E+02  0.20224846242E+01  0.18726395989E+02  0.00000000000E+00 0.  1.
         11    1    3    3    0    0  0.13734917875E+02 -0.94328457555E+01  0.51362198358E+01  0.17435805188E+02  0.51100000000E-03 0. -1.
        -11    1    3    3    0    0  0.10051264787E+02 -0.18819377798E+02  0.15106254536E+02  0.26141840618E+02  0.51100000000E-03 0.  1.
         12    1    3    3    0    0 -0.12780519246E+02  0.13236803632E+02 -0.22264958996E+02  0.28883958206E+02  0.00000000000E+00 0. -1.
</event>
<event>
 7    1  0.3440346E-013  0.7246159E+02  0.7816164E-02  0.1226708E+00
        -11   -1    0    0    0    0  0.00000000000E+00  0.00000000000E+00  0.45593999997E+02  0.45594000000E+02  0.51100000000E-03 0.  1.
         11   -1    0    0    0    0 -0.00000000000E+00 -0.00000000000E+00 -0.45593999997E+02  0.45594000000E+02  0.51100000000E-03 0. -1.
    9900012    2    1    2    0    0  0.64174862716E+01  0.19469295650E+01 -0.17484382404E+02  0.72461593703E+02  0.70000030494E+02 0.  0.
        -12    1    1    2    0    0 -0.64174862716E+01 -0.19469295650E+01  0.17484382404E+02  0.18726406297E+02  0.00000000000E+00 0.  1.
         11    1    3    3    0    0  0.82054330470E+01  0.28747568418E+02 -0.17449312470E+02  0.34615463703E+02  0.51100000000E-03 0. -1.
        -11    1    3    3    0    0 -0.74334472561E+01  0.25409731256E+01  0.11681727789E+01  0.79421225398E+01  0.51100000000E-03 0.  1.
        -12    1    3    3    0    0  0.56455004806E+01 -0.29341611978E+02 -0.12032427123E+01  0.29904007460E+02  0.00000000000E+00 0.  1.
</event>
<event>
 7    1  0.3440346E-013  0.7246152E+02  0.7816164E-02  0.1226708E+00
        -11   -1    0    0    0    0  0.00000000000E+00  0.00000000000E+00  0.45593999997E+02  0.45594000000E+02  0.51100000000E-03 0.  1.
         11   -1    0    0    0    0 -0.00000000000E+00 -0.00000000000E+00 -0.45593999997E+02  0.45594000000E+02  0.51100000000E-03 0. -1.
    9900012    2    1    2    0    0 -0.17070429187E+02 -0.51143471598E+00 -0.76824503603E+01  0.72461517104E+02  0.69999930710E+02 0.  0.
        -12    1    1    2    0    0  0.17070429187E+02  0.51143471598E+00  0.76824503603E+01  0.18726482896E+02  0.00000000000E+00 0.  1.
         11    1    3    3    0    0  0.94019969778E+01  0.58779568923E+01 -0.28610648914E+01  0.11451358739E+02  0.51100000000E-03 0. -1.
        -11    1    3    3    0    0  0.11069519410E+02  0.75623508543E+01  0.11595876601E+02  0.17725342446E+02  0.51100000000E-03 0.  1.
         12    1    3    3    0    0 -0.37541945575E+02 -0.13951742463E+02 -0.16417262070E+02  0.43284815919E+02  0.00000000000E+00 0. -1.
</event>
<event>
 7    1  0.3440346E-013  0.7246160E+02  0.7816164E-02  0.1226708E+00
        -11   -1    0    0    0    0  0.00000000000E+00  0.00000000000E+00  0.45593999997E+02  0.45594000000E+02  0.51100000000E-03 0.  1.
         11   -1    0    0    0    0 -0.00000000000E+00 -0.00000000000E+00 -0.45593999997E+02  0.45594000000E+02  0.51100000000E-03 0. -1.
    9900012    2    1    2    0    0 -0.15666826540E+02  0.10058070490E+01 -0.10208676118E+02  0.72461596989E+02  0.70000034774E+02 0.  0.
        -12    1    1    2    0    0  0.15666826540E+02 -0.10058070490E+01  0.10208676118E+02  0.18726403011E+02  0.00000000000E+00 0.  1.
         11    1    3    3    0    0  0.87700509248E+01  0.12331885634E+02 -0.62642312616E+01  0.16377722372E+02  0.51100000000E-03 0. -1.
        -11    1    3    3    0    0 -0.22176127252E+02  0.15250594940E+02 -0.10036364987E+02  0.28724377946E+02  0.51100000000E-03 0.  1.
        -12    1    3    3    0    0 -0.22607502127E+01 -0.26576673526E+02  0.60919201305E+01  0.27359496671E+02  0.00000000000E+00 0.  1.
</event>
<event>
 7    1  0.3440346E-013  0.7246130E+02  0.7816164E-02  0.1226709E+00
        -11   -1    0    0    0    0  0.00000000000E+00  0.00000000000E+00  0.45593999997E+02  0.45594000000E+02  0.51100000000E-03 0.  1.
         11   -1    0    0    0    0 -0.00000000000E+00 -0.00000000000E+00 -0.45593999997E+02  0.45594000000E+02  0.51100000000E-03 0. -1.
    9900012    2    1    2    0    0  0.97865017973E+01 -0.14249774891E+02 -0.72012325039E+01  0.72461295767E+02  0.69999642376E+02 0.  0.
        -12    1    1    2    0    0 -0.97865017973E+01  0.14249774891E+02  0.72012325039E+01  0.18726704233E+02  0.00000000000E+00 0.  1.
         11    1    3    3    0    0  0.16108432818E+02 -0.15261493851E+02  0.20772571107E+02  0.30395633125E+02  0.51100000000E-03 0.  1.
        -11    1    3    3    0    0 -0.80512519128E+01 -0.10689189980E+02 -0.20068880973E+01  0.13531778888E+02  0.51100000000E-03 0. -1.
        -12    1    3    3    0    0  0.17293208918E+01  0.11700908941E+02 -0.25966915513E+02  0.28533883753E+02  0.00000000000E+00 0.  1.
</event>
<event>
 7    1  0.3967709E-013  0.7246157E+02  0.7816164E-02  0.1226708E+00
        -11   -1    0    0    0    0  0.00000000000E+00  0.00000000000E+00  0.45593999997E+02  0.45594000000E+02  0.51100000000E-03 0. -1.
         11   -1    0    0    0    0 -0.00000000000E+00 -0.00000000000E+00 -0.45593999997E+02  0.45594000000E+02  0.51100000000E-03 0.  1.
    9900012    2    1    2    0    0  0.58856524040E+01 -0.12171849790E+02  0.12957022575E+02  0.72461567731E+02  0.69999996660E+02 0.  0.
        -12    1    1    2    0    0 -0.58856524040E+01  0.12171849790E+02 -0.12957022575E+02  0.18726432269E+02  0.00000000000E+00 0.  1.
         11    1    3    3    0    0 -0.70550898202E+01 -0.30740181412E+01  0.20305223716E+02  0.21714649210E+02  0.51100000000E-03 0. -1.
        -11    1    3    3    0    0  0.12299541404E+00  0.11642368345E+02 -0.20102687980E+02  0.23230969262E+02  0.51100000000E-03 0.  1.
         12    1    3    3    0    0  0.12817746810E+02 -0.20740199994E+02  0.12754486839E+02  0.27515949259E+02  0.00000000000E+00 0. -1.
</event>
<event>
 7    1  0.3440346E-013  0.7246150E+02  0.7816164E-02  0.1226708E+00
        -11   -1    0    0    0    0  0.00000000000E+00  0.00000000000E+00  0.45593999997E+02  0.45594000000E+02  0.51100000000E-03 0.  1.
         11   -1    0    0    0    0 -0.00000000000E+00 -0.00000000000E+00 -0.45593999997E+02  0.45594000000E+02  0.51100000000E-03 0. -1.
    9900012    2    1    2    0    0  0.15028694381E+02  0.10759827549E+02 -0.30077006569E+01  0.72461499875E+02  0.69999908266E+02 0.  0.
        -12    1    1    2    0    0 -0.15028694381E+02 -0.10759827549E+02  0.30077006569E+01  0.18726500125E+02  0.00000000000E+00 0.  1.
         11    1    3    3    0    0  0.17789004143E+02  0.32428016678E+02  0.86688833325E+01  0.37989136244E+02  0.51100000000E-03 0.  1.
        -11    1    3    3    0    0 -0.13213738732E+01 -0.19477230255E+01 -0.14330200901E+02  0.14522200660E+02  0.51100000000E-03 0. -1.
        -12    1    3    3    0    0 -0.14389358889E+01 -0.19720466104E+02  0.26536169118E+01  0.19950162970E+02  0.00000000000E+00 0.  1.
</event>
<event>
 7    1  0.3440346E-013  0.7246166E+02  0.7816164E-02  0.1226708E+00
        -11   -1    0    0    0    0  0.00000000000E+00  0.00000000000E+00  0.45593999997E+02  0.45594000000E+02  0.51100000000E-03 0. -1.
         11   -1    0    0    0    0 -0.00000000000E+00 -0.00000000000E+00 -0.45593999997E+02  0.45594000000E+02  0.51100000000E-03 0.  1.
    9900012    2    1    2    0    0  0.15578299236E+02  0.10745140008E+00  0.10391376281E+02  0.72461664163E+02  0.70000122281E+02 0.  0.
        -12    1    1    2    0    0 -0.15578299236E+02 -0.10745140008E+00 -0.10391376281E+02  0.18726335837E+02  0.00000000000E+00 0.  1.
         11    1    3    3    0    0 -0.30305127626E+01  0.20349839708E+02 -0.81675426819E+01  0.22136140979E+02  0.51100000000E-03 0. -1.
        -11    1    3    3    0    0  0.23308550412E+02 -0.66764972537E+01 -0.29924912695E+01  0.24429882156E+02  0.51100000000E-03 0.  1.
         12    1    3    3    0    0 -0.46997384142E+01 -0.13565891054E+02  0.21551410232E+02  0.25895641028E+02  0.00000000000E+00 0. -1.
</event>
<event>
 7    1  0.3440346E-013  0.7246157E+02  0.7816164E-02  0.1226708E+00
        -11   -1    0    0    0    0  0.00000000000E+00  0.00000000000E+00  0.45593999997E+02  0.45594000000E+02  0.51100000000E-03 0. -1.
         11   -1    0    0    0    0 -0.00000000000E+00 -0.00000000000E+00 -0.45593999997E+02  0.45594000000E+02  0.51100000000E-03 0.  1.
    9900012    2    1    2    0    0 -0.13363218619E+02  0.67739982992E+01  0.11234605340E+02  0.72461574234E+02  0.70000005132E+02 0.  0.
        -12    1    1    2    0    0  0.13363218619E+02 -0.67739982992E+01 -0.11234605340E+02  0.18726425766E+02  0.00000000000E+00 0.  1.
         11    1    3    3    0    0 -0.10204695513E+02  0.13921125908E+02  0.95415044713E+01  0.19722420361E+02  0.51100000000E-03 0. -1.
        -11    1    3    3    0    0  0.77406153341E+01  0.15683980175E+02  0.15974501978E+02  0.23687318835E+02  0.51100000000E-03 0.  1.
        -12    1    3    3    0    0 -0.10899138440E+02 -0.22831107784E+02 -0.14281401110E+02  0.29051835037E+02  0.00000000000E+00 0.  1.
</event>
<event>
 7    1  0.3440346E-013  0.7246150E+02  0.7816164E-02  0.1226708E+00
        -11   -1    0    0    0    0  0.00000000000E+00  0.00000000000E+00  0.45593999997E+02  0.45594000000E+02  0.51100000000E-03 0.  1.
         11   -1    0    0    0    0 -0.00000000000E+00 -0.00000000000E+00 -0.45593999997E+02  0.45594000000E+02  0.51100000000E-03 0. -1.
    9900012    2    1    2    0    0  0.95484983241E+01  0.87703175256E+01 -0.13512563733E+02  0.72461503574E+02  0.69999913084E+02 0.  0.
        -12    1    1    2    0    0 -0.95484983241E+01 -0.87703175256E+01  0.13512563733E+02  0.18726496426E+02  0.00000000000E+00 0.  1.
         11    1    3    3    0    0 -0.22612869876E+02  0.11374244039E+02  0.25504759724E+01  0.25440523568E+02  0.51100000000E-03 0. -1.
        -11    1    3    3    0    0 -0.27791574146E+01 -0.80199836299E+01 -0.55194069166E+01  0.10124608947E+02  0.51100000000E-03 0.  1.
        -12    1    3    3    0    0  0.34940525614E+02  0.54160571162E+01 -0.10543632789E+02  0.36896371059E+02  0.00000000000E+00 0.  1.
</event>
<event>
 7    1  0.3440346E-013  0.7246165E+02  0.7816164E-02  0.1226708E+00
        -11   -1    0    0    0    0  0.00000000000E+00  0.00000000000E+00  0.45593999997E+02  0.45594000000E+02  0.51100000000E-03 0. -1.
         11   -1    0    0    0    0 -0.00000000000E+00 -0.00000000000E+00 -0.45593999997E+02  0.45594000000E+02  0.51100000000E-03 0.  1.
    9900012    2    1    2    0    0  0.99936777032E+01  0.88040277495E+01  0.13164026845E+02  0.72461652214E+02  0.70000106715E+02 0.  0.
        -12    1    1    2    0    0 -0.99936777032E+01 -0.88040277495E+01 -0.13164026845E+02  0.18726347786E+02  0.00000000000E+00 0.  1.
         11    1    3    3    0    0 -0.50594047867E+01  0.96432029291E+01 -0.71073902581E+01  0.13003996927E+02  0.51100000000E-03 0. -1.
        -11    1    3    3    0    0 -0.22623921504E+01 -0.83658582641E+01 -0.16209320634E+02  0.18380644124E+02  0.51100000000E-03 0.  1.
         12    1    3    3    0    0  0.17315474640E+02  0.75266830845E+01  0.36480737737E+02  0.41077011163E+02  0.00000000000E+00 0. -1.
</event>
<event>
 7    1  0.3440346E-013  0.7246158E+02  0.7816164E-02  0.1226708E+00
        -11   -1    0    0    0    0  0.00000000000E+00  0.00000000000E+00  0.45593999997E+02  0.45594000000E+02  0.51100000000E-03 0. -1.
         11   -1    0    0    0    0 -0.00000000000E+00 -0.00000000000E+00 -0.45593999997E+02  0.45594000000E+02  0.51100000000E-03 0.  1.
    9900012    2    1    2    0    0 -0.11237093646E+02 -0.51100621680E+01  0.14081680534E+02  0.72461581879E+02  0.70000015091E+02 0.  0.
        -12    1    1    2    0    0  0.11237093646E+02  0.51100621680E+01 -0.14081680534E+02  0.18726418121E+02  0.00000000000E+00 0.  1.
         11    1    3    3    0    0  0.95572392373E+01 -0.11454205087E+02  0.10527817646E+02  0.18258548154E+02  0.51100000000E-03 0. -1.
        -11    1    3    3    0    0 -0.29690270327E+01 -0.13309847936E+02  0.19086432302E+02  0.23457601580E+02  0.51100000000E-03 0.  1.
        -12    1    3    3    0    0 -0.17825305851E+02  0.19653990855E+02 -0.15532569414E+02  0.30745432146E+02  0.00000000000E+00 0.  1.
</event>
<event>
 7    1  0.3440346E-013  0.7246171E+02  0.7816164E-02  0.1226708E+00
        -11   -1    0    0    0    0  0.00000000000E+00  0.00000000000E+00  0.45593999997E+02  0.45594000000E+02  0.51100000000E-03 0. -1.
         11   -1    0    0    0    0 -0.00000000000E+00 -0.00000000000E+00 -0.45593999997E+02  0.45594000000E+02  0.51100000000E-03 0.  1.
    9900012    2    1    2    0    0 -0.91774248209E+01  0.71002107765E+00  0.16307813432E+02  0.72461707383E+02  0.70000178583E+02 0.  0.
        -12    1    1    2    0    0  0.91774248209E+01 -0.71002107765E+00 -0.16307813432E+02  0.18726292617E+02  0.00000000000E+00 0.  1.
         11    1    3    3    0    0 -0.76888254058E+01 -0.98736141231E+01  0.13323074282E+02  0.18278692529E+02  0.51100000000E-03 0. -1.
        -11    1    3    3    0    0 -0.24173145640E+02  0.14379436322E+02 -0.71929358410E+01  0.29031835721E+02  0.51100000000E-03 0.  1.
        -12    1    3    3    0    0  0.22684546225E+02 -0.37958011208E+01  0.10177674991E+02  0.25151179133E+02  0.00000000000E+00 0.  1.
</event>
<event>
 7    1  0.3440346E-013  0.7246171E+02  0.7816164E-02  0.1226708E+00
        -11   -1    0    0    0    0  0.00000000000E+00  0.00000000000E+00  0.45593999997E+02  0.45594000000E+02  0.51100000000E-03 0.  1.
         11   -1    0    0    0    0 -0.00000000000E+00 -0.00000000000E+00 -0.45593999997E+02  0.45594000000E+02  0.51100000000E-03 0. -1.
    9900012    2    1    2    0    0  0.53347418715E+01  0.14600264913E+02 -0.10442547097E+02  0.72461708423E+02  0.70000179938E+02 0.  0.
        -12    1    1    2    0    0 -0.53347418715E+01 -0.14600264913E+02  0.10442547097E+02  0.18726291577E+02  0.00000000000E+00 0.  1.
         11    1    3    3    0    0 -0.49173283135E+00  0.76561065400E+01 -0.28959888317E+01  0.82002756114E+01  0.51100000000E-03 0. -1.
        -11    1    3    3    0    0  0.24190065439E+02  0.15885106764E+01  0.19515570916E+02  0.31121377549E+02  0.51100000000E-03 0.  1.
         12    1    3    3    0    0 -0.18363590736E+02  0.53556476969E+01 -0.27062129181E+02  0.33140055262E+02  0.00000000000E+00 0. -1.
</event>
<event>
 7    1  0.3440346E-013  0.7246155E+02  0.7816164E-02  0.1226708E+00
        -11   -1    0    0    0    0  0.00000000000E+00  0.00000000000E+00  0.45593999997E+02  0.45594000000E+02  0.51100000000E-03 0.  1.
         11   -1    0    0    0    0 -0.00000000000E+00 -0.00000000000E+00 -0.45593999997E+02  0.45594000000E+02  0.51100000000E-03 0. -1.
    9900012    2    1    2    0    0 -0.42253800159E+01  0.18072155415E+02  0.24946394099E+01  0.72461551767E+02  0.69999975865E+02 0.  0.
        -12    1    1    2    0    0  0.42253800159E+01 -0.18072155415E+02 -0.24946394099E+01  0.18726448233E+02  0.00000000000E+00 0.  1.
         11    1    3    3    0    0  0.17496649270E+01  0.10465933512E+02 -0.56597197675E+00  0.10626260687E+02  0.51100000000E-03 0. -1.
        -11    1    3    3    0    0 -0.17833648054E+02  0.15886868334E+02  0.25627351839E+02  0.35031311008E+02  0.51100000000E-03 0.  1.
         12    1    3    3    0    0  0.11858603111E+02 -0.82806464310E+01 -0.22566740453E+02  0.26803980072E+02  0.00000000000E+00 0. -1.
</event>
<event>
 7    1  0.3440346E-013  0.7246168E+02  0.7816164E-02  0.1226708E+00
        -11   -1    0    0    0    0  0.00000000000E+00  0.00000000000E+00  0.45593999997E+02  0.45594000000E+02  0.51100000000E-03 0. -1.
         11   -1    0    0    0    0 -0.00000000000E+00 -0.00000000000E+00 -0.45593999997E+02  0.45594000000E+02  0.51100000000E-03 0.  1.
    9900012    2    1    2    0    0 -0.36589017284E+01  0.11833408962E+02  0.14044856865E+02  0.72461678048E+02  0.70000140369E+02 0.  0.
        -12    1    1    2    0    0  0.36589017284E+01 -0.11833408962E+02 -0.14044856865E+02  0.18726321952E+02  0.00000000000E+00 0.  1.
         11    1    3    3    0    0  0.44536137862E+00 -0.19384512752E+02 -0.13398603332E+02  0.23568628575E+02  0.51100000000E-03 0. -1.
        -11    1    3    3    0    0 -0.68935137367E+01 -0.95648463229E+00  0.76066778250E+00  0.70010006589E+01  0.51100000000E-03 0.  1.
         12    1    3    3    0    0  0.27892506297E+01  0.32174406346E+02  0.26682792414E+02  0.41892048814E+02  0.00000000000E+00 0. -1.
</event>
<event>
 7    1  0.3440346E-013  0.7246092E+02  0.7816164E-02  0.1226710E+00
        -11   -1    0    0    0    0  0.00000000000E+00  0.00000000000E+00  0.45593999997E+02  0.45594000000E+02  0.51100000000E-03 0. -1.
         11   -1    0    0    0    0 -0.00000000000E+00 -0.00000000000E+00 -0.45593999997E+02  0.45594000000E+02  0.51100000000E-03 0.  1.
    9900012    2    1    2    0    0 -0.20686298656E+01  0.18350843111E+02  0.31097745825E+01  0.72460924137E+02  0.69999158255E+02 0.  0.
        -12    1    1    2    0    0  0.20686298656E+01 -0.18350843111E+02 -0.31097745825E+01  0.18727075863E+02  0.00000000000E+00 0.  1.
         11    1    3    3    0    0 -0.77769063617E+01  0.16482216140E+02  0.14198867795E+02  0.23103064047E+02  0.51100000000E-03 0. -1.
        -11    1    3    3    0    0 -0.20935514041E+02  0.99986447977E+00 -0.14452796546E+01  0.21009148261E+02  0.51100000000E-03 0.  1.
        -12    1    3    3    0    0  0.26643790537E+02  0.86876249194E+00 -0.96438135576E+01  0.28348711829E+02  0.00000000000E+00 0.  1.
</event>
<event>
 7    1  0.3440346E-013  0.7246158E+02  0.7816164E-02  0.1226708E+00
        -11   -1    0    0    0    0  0.00000000000E+00  0.00000000000E+00  0.45593999997E+02  0.45594000000E+02  0.51100000000E-03 0. -1.
         11   -1    0    0    0    0 -0.00000000000E+00 -0.00000000000E+00 -0.45593999997E+02  0.45594000000E+02  0.51100000000E-03 0.  1.
    9900012    2    1    2    0    0  0.18251822675E+02  0.10558562547E+01 -0.40539832854E+01  0.72461584330E+02  0.70000018284E+02 0.  0.
        -12    1    1    2    0    0 -0.18251822675E+02 -0.10558562547E+01  0.40539832854E+01  0.18726415670E+02  0.00000000000E+00 0.  1.
         11    1    3    3    0    0  0.16265929579E+02  0.28106778729E+02 -0.10663933212E+02  0.34180271318E+02  0.51100000000E-03 0. -1.
        -11    1    3    3    0    0  0.16189962896E+01 -0.18931346423E+01  0.12246452151E+02  0.12497227625E+02  0.51100000000E-03 0.  1.
        -12    1    3    3    0    0  0.36689680575E+00 -0.25157787832E+02 -0.56365022253E+01  0.25784085386E+02  0.00000000000E+00 0.  1.
</event>
<event>
 7    1  0.3440346E-013  0.7246156E+02  0.7816164E-02  0.1226708E+00
        -11   -1    0    0    0    0  0.00000000000E+00  0.00000000000E+00  0.45593999997E+02  0.45594000000E+02  0.51100000000E-03 0.  1.
         11   -1    0    0    0    0 -0.00000000000E+00 -0.00000000000E+00 -0.45593999997E+02  0.45594000000E+02  0.51100000000E-03 0. -1.
    9900012    2    1    2    0    0 -0.70526170512E-01  0.16694422087E+02 -0.84835672572E+01  0.72461558368E+02  0.69999984464E+02 0.  0.
        -12    1    1    2    0    0  0.70526170512E-01 -0.16694422087E+02  0.84835672572E+01  0.18726441632E+02  0.00000000000E+00 0.  1.
         11    1    3    3    0    0 -0.40470701968E+01  0.20071828598E+01 -0.94716691567E+00  0.46156999077E+01  0.51100000000E-03 0. -1.
        -11    1    3    3    0    0  0.11382503589E+02 -0.21925316874E+02 -0.16146187784E+02  0.29512375171E+02  0.51100000000E-03 0.  1.
         12    1    3    3    0    0 -0.74059595630E+01  0.36612556102E+02  0.86097874428E+01  0.38333483290E+02  0.00000000000E+00 0. -1.
</event>
<event>
 7    1  0.3440346E-013  0.7246157E+02  0.7816164E-02  0.1226708E+00
        -11   -1    0    0    0    0  0.00000000000E+00  0.00000000000E+00  0.45593999997E+02  0.45594000000E+02  0.51100000000E-03 0. -1.
         11   -1    0    0    0    0 -0.00000000000E+00 -0.00000000000E+00 -0.45593999997E+02  0.45594000000E+02  0.51100000000E-03 0.  1.
    9900012    2    1    2    0    0  0.46461589149E+01 -0.68324616962E+01  0.16805058983E+02  0.72461565932E+02  0.69999994317E+02 0.  0.
        -12    1    1    2    0    0 -0.46461589149E+01  0.68324616962E+01 -0.16805058983E+02  0.18726434068E+02  0.00000000000E+00 0.  1.
         11    1    3    3    0    0 -0.32243154794E+01 -0.18285220111E+01  0.23833095511E+02  0.24119621576E+02  0.51100000000E-03 0. -1.
        -11    1    3    3    0    0  0.17791890813E+02  0.59465657968E+00  0.15171693584E+02  0.23389854245E+02  0.51100000000E-03 0.  1.
        -12    1    3    3    0    0 -0.99214164188E+01 -0.55985962648E+01 -0.22199730112E+02  0.24952090111E+02  0.00000000000E+00 0.  1.
</event>
<event>
 7    1  0.3440346E-013  0.7246156E+02  0.7816164E-02  0.1226708E+00
        -11   -1    0    0    0    0  0.00000000000E+00  0.00000000000E+00  0.45593999997E+02  0.45594000000E+02  0.51100000000E-03 0.  1.
         11   -1    0    0    0    0 -0.00000000000E+00 -0.00000000000E+00 -0.45593999997E+02  0.45594000000E+02  0.51100000000E-03 0. -1.
    9900012    2    1    2    0    0  0.17708063732E+02  0.49224727936E+01  0.35879213866E+01  0.72461563088E+02  0.69999990612E+02 0.  0.
        -12    1    1    2    0    0 -0.17708063732E+02 -0.49224727936E+01 -0.35879213866E+01  0.18726436912E+02  0.00000000000E+00 0.  1.
         11    1    3    3    0    0 -0.10493595128E+01  0.20684906477E+02  0.11276588065E+02  0.23582365233E+02  0.51100000000E-03 0. -1.
        -11    1    3    3    0    0  0.97957029772E+01  0.10211220200E+02  0.89640144362E+01  0.16750473720E+02  0.51100000000E-03 0.  1.
         12    1    3    3    0    0  0.89617202681E+01 -0.25973653883E+02 -0.16652681114E+02  0.32128724134E+02  0.00000000000E+00 0. -1.
</event>
<event>
 7    1  0.3440346E-013  0.7246159E+02  0.7816164E-02  0.1226708E+00
        -11   -1    0    0    0    0  0.00000000000E+00  0.00000000000E+00  0.45593999997E+02  0.45594000000E+02  0.51100000000E-03 0. -1.
         11   -1    0    0    0    0 -0.00000000000E+00 -0.00000000000E+00 -0.45593999997E+02  0.45594000000E+02  0.51100000000E-03 0.  1.
    9900012    2    1    2    0    0  0.10065816878E+02  0.12655768869E+02  0.94440078964E+01  0.72461589767E+02  0.70000025367E+02 0.  0.
        -12    1    1    2    0    0 -0.10065816878E+02 -0.12655768869E+02 -0.94440078964E+01  0.18726410233E+02  0.00000000000E+00 0.  1.
         11    1    3    3    0    0  0.59918645960E+01  0.19031591330E+02  0.10601093423E+02  0.22593961404E+02  0.51100000000E-03 0. -1.
        -11    1    3    3    0    0 -0.66163282718E+01  0.20172596237E+02 -0.81852028126E+00  0.21245691668E+02  0.51100000000E-03 0.  1.
         12    1    3    3    0    0  0.10690280553E+02 -0.26548418699E+02 -0.33856524567E+00  0.28621936695E+02  0.00000000000E+00 0. -1.
</event>
<event>
 7    1  0.3440346E-013  0.7246164E+02  0.7816164E-02  0.1226708E+00
        -11   -1    0    0    0    0  0.00000000000E+00  0.00000000000E+00  0.45593999997E+02  0.45594000000E+02  0.51100000000E-03 0.  1.
         11   -1    0    0    0    0 -0.00000000000E+00 -0.00000000000E+00 -0.45593999997E+02  0.45594000000E+02  0.51100000000E-03 0. -1.
    9900012    2    1    2    0    0  0.67680456925E+00  0.12029509100E+02 -0.14335600803E+02  0.72461638794E+02  0.70000089234E+02 0.  0.
        -12    1    1    2    0    0 -0.67680456925E+00 -0.12029509100E+02  0.14335600803E+02  0.18726361206E+02  0.00000000000E+00 0.  1.
         11    1    3    3    0    0 -0.12138500538E+02  0.18156897836E+02 -0.28047636422E+02  0.35548362036E+02  0.51100000000E-03 0. -1.
        -11    1    3    3    0    0  0.11653253415E+02  0.10887973958E+02  0.16699644685E+01  0.16035431820E+02  0.51100000000E-03 0.  1.
         12    1    3    3    0    0  0.11620516925E+01 -0.17015362694E+02  0.12042071150E+02  0.20877844939E+02  0.00000000000E+00 0. -1.
</event>
<event>
 7    1  0.3440346E-013  0.7246158E+02  0.7816164E-02  0.1226708E+00
        -11   -1    0    0    0    0  0.00000000000E+00  0.00000000000E+00  0.45593999997E+02  0.45594000000E+02  0.51100000000E-03 0.  1.
         11   -1    0    0    0    0 -0.00000000000E+00 -0.00000000000E+00 -0.45593999997E+02  0.45594000000E+02  0.51100000000E-03 0. -1.
    9900012    2    1    2    0    0 -0.92318792133E+01 -0.10372956663E+02 -0.12563954253E+02  0.72461580956E+02  0.70000013888E+02 0.  0.
        -12    1    1    2    0    0  0.92318792133E+01  0.10372956663E+02  0.12563954253E+02  0.18726419044E+02  0.00000000000E+00 0.  1.
         11    1    3    3    0    0  0.17936306105E+02  0.13918544637E+02  0.82582709840E+01  0.24158559589E+02  0.51100000000E-03 0. -1.
        -11    1    3    3    0    0  0.40219966505E+00 -0.93679107165E+01  0.19218579867E+01  0.95714708454E+01  0.51100000000E-03 0.  1.
        -12    1    3    3    0    0 -0.27570384983E+02 -0.14923590584E+02 -0.22744083224E+02  0.38731550521E+02  0.00000000000E+00 0.  1.
</event>
<event>
 7    1  0.3440346E-013  0.7246157E+02  0.7816164E-02  0.1226708E+00
        -11   -1    0    0    0    0  0.00000000000E+00  0.00000000000E+00  0.45593999997E+02  0.45594000000E+02  0.51100000000E-03 0. -1.
         11   -1    0    0    0    0 -0.00000000000E+00 -0.00000000000E+00 -0.45593999997E+02  0.45594000000E+02  0.51100000000E-03 0.  1.
    9900012    2    1    2    0    0  0.60861796707E+01 -0.97869004579E+01  0.14759880676E+02  0.72461572655E+02  0.70000003075E+02 0.  0.
        -12    1    1    2    0    0 -0.60861796707E+01  0.97869004579E+01 -0.14759880676E+02  0.18726427345E+02  0.00000000000E+00 0.  1.
         11    1    3    3    0    0  0.46465374071E+01  0.10749783193E+02  0.11852478411E+02  0.16662214538E+02  0.51100000000E-03 0. -1.
        -11    1    3    3    0    0  0.78659350566E+01  0.48833490519E+01 -0.19321325503E+02  0.21425070635E+02  0.51100000000E-03 0.  1.
        -12    1    3    3    0    0 -0.64262927930E+01 -0.25420032703E+02  0.22228727768E+02  0.34374287481E+02  0.00000000000E+00 0.  1.
</event>
<event>
 7    1  0.3440346E-013  0.7246156E+02  0.7816164E-02  0.1226708E+00
        -11   -1    0    0    0    0  0.00000000000E+00  0.00000000000E+00  0.45593999997E+02  0.45594000000E+02  0.51100000000E-03 0.  1.
         11   -1    0    0    0    0 -0.00000000000E+00 -0.00000000000E+00 -0.45593999997E+02  0.45594000000E+02  0.51100000000E-03 0. -1.
    9900012    2    1    2    0    0  0.10060966858E+02 -0.11644199516E+02 -0.10670946488E+02  0.72461560524E+02  0.69999987273E+02 0.  0.
        -12    1    1    2    0    0 -0.10060966858E+02  0.11644199516E+02  0.10670946488E+02  0.18726439476E+02  0.00000000000E+00 0.  1.
         11    1    3    3    0    0 -0.18615848563E+02  0.58882806693E+01  0.62126786588E+00  0.19534780290E+02  0.51100000000E-03 0. -1.
        -11    1    3    3    0    0  0.40151082483E+01  0.10082910792E+02  0.56209658941E+01  0.12222170107E+02  0.51100000000E-03 0.  1.
        -12    1    3    3    0    0  0.24661707172E+02 -0.27615390978E+02 -0.16913180248E+02  0.40704610127E+02  0.00000000000E+00 0.  1.
</event>
<event>
 7    1  0.3440346E-013  0.7246157E+02  0.7816164E-02  0.1226708E+00
        -11   -1    0    0    0    0  0.00000000000E+00  0.00000000000E+00  0.45593999997E+02  0.45594000000E+02  0.51100000000E-03 0.  1.
         11   -1    0    0    0    0 -0.00000000000E+00 -0.00000000000E+00 -0.45593999997E+02  0.45594000000E+02  0.51100000000E-03 0. -1.
    9900012    2    1    2    0    0 -0.10989884931E+02  0.14159153857E+02  0.54240295192E+01  0.72461566678E+02  0.69999995289E+02 0.  0.
        -12    1    1    2    0    0  0.10989884931E+02 -0.14159153857E+02 -0.54240295192E+01  0.18726433322E+02  0.00000000000E+00 0.  1.
         11    1    3    3    0    0  0.84356413688E+01 -0.13416239428E+02  0.66710267985E+00  0.15861921446E+02  0.51100000000E-03 0.  1.
        -11    1    3    3    0    0 -0.28465814786E+02  0.62176129810E+01 -0.78858517360E+01  0.30185227852E+02  0.51100000000E-03 0. -1.
        -12    1    3    3    0    0  0.90402884859E+01  0.21357780305E+02  0.12642778575E+02  0.26414417381E+02  0.00000000000E+00 0.  1.
</event>
<event>
 7    1  0.3440346E-013  0.7246169E+02  0.7816164E-02  0.1226708E+00
        -11   -1    0    0    0    0  0.00000000000E+00  0.00000000000E+00  0.45593999997E+02  0.45594000000E+02  0.51100000000E-03 0.  1.
         11   -1    0    0    0    0 -0.00000000000E+00 -0.00000000000E+00 -0.45593999997E+02  0.45594000000E+02  0.51100000000E-03 0. -1.
    9900012    2    1    2    0    0  0.83553286053E+01  0.10006564335E+02 -0.13443649990E+02  0.72461693078E+02  0.70000159948E+02 0.  0.
        -12    1    1    2    0    0 -0.83553286053E+01 -0.10006564335E+02  0.13443649990E+02  0.18726306922E+02  0.00000000000E+00 0.  1.
         11    1    3    3    0    0  0.25729814353E+02 -0.63914543084E+01 -0.10630215285E+02  0.28563534657E+02  0.51100000000E-03 0. -1.
        -11    1    3    3    0    0 -0.69954586188E+01 -0.11656909731E+02  0.14926569620E+01  0.13676549668E+02  0.51100000000E-03 0.  1.
         12    1    3    3    0    0 -0.10379027129E+02  0.28054928374E+02 -0.43060916666E+01  0.30221608753E+02  0.00000000000E+00 0. -1.
</event>
<event>
 7    1  0.3440346E-013  0.7246155E+02  0.7816164E-02  0.1226708E+00
        -11   -1    0    0    0    0  0.00000000000E+00  0.00000000000E+00  0.45593999997E+02  0.45594000000E+02  0.51100000000E-03 0.  1.
         11   -1    0    0    0    0 -0.00000000000E+00 -0.00000000000E+00 -0.45593999997E+02  0.45594000000E+02  0.51100000000E-03 0. -1.
    9900012    2    1    2    0    0 -0.17144709051E+02  0.72702742825E+01 -0.19702710584E+01  0.72461550667E+02  0.69999974431E+02 0.  0.
        -12    1    1    2    0    0  0.17144709051E+02 -0.72702742825E+01  0.19702710584E+01  0.18726449333E+02  0.00000000000E+00 0.  1.
         11    1    3    3    0    0 -0.93090749671E+01  0.49935337397E+01 -0.84401441302E+01  0.13521475110E+02  0.51100000000E-03 0. -1.
        -11    1    3    3    0    0 -0.22125439646E+02 -0.21481869005E+02  0.26261137184E+01  0.30949995945E+02  0.51100000000E-03 0.  1.
         12    1    3    3    0    0  0.14289805562E+02  0.23758609548E+02  0.38437593535E+01  0.27990079611E+02  0.00000000000E+00 0. -1.
</event>
<event>
 7    1  0.3440346E-013  0.7246171E+02  0.7816164E-02  0.1226708E+00
        -11   -1    0    0    0    0  0.00000000000E+00  0.00000000000E+00  0.45593999997E+02  0.45594000000E+02  0.51100000000E-03 0. -1.
         11   -1    0    0    0    0 -0.00000000000E+00 -0.00000000000E+00 -0.45593999997E+02  0.45594000000E+02  0.51100000000E-03 0.  1.
    9900012    2    1    2    0    0 -0.40849424436E+01 -0.17940118606E+02  0.34841434325E+01  0.72461711905E+02  0.70000184474E+02 0.  0.
        -12    1    1    2    0    0  0.40849424436E+01  0.17940118606E+02 -0.34841434325E+01  0.18726288095E+02  0.00000000000E+00 0.  1.
         11    1    3    3    0    0  0.77728178143E+01 -0.68143028837E+01  0.20129010029E+02  0.22628045996E+02  0.51100000000E-03 0. -1.
        -11    1    3    3    0    0  0.20124589909E+01  0.15105975111E+02  0.10665197847E+01  0.15276712342E+02  0.51100000000E-03 0.  1.
        -12    1    3    3    0    0 -0.13870219249E+02 -0.26231790833E+02 -0.17711386381E+02  0.34556953568E+02  0.00000000000E+00 0.  1.
</event>
<event>
 7    1  0.3440346E-013  0.7246160E+02  0.7816164E-02  0.1226708E+00
        -11   -1    0    0    0    0  0.00000000000E+00  0.00000000000E+00  0.45593999997E+02  0.45594000000E+02  0.51100000000E-03 0. -1.
         11   -1    0    0    0    0 -0.00000000000E+00 -0.00000000000E+00 -0.45593999997E+02  0.45594000000E+02  0.51100000000E-03 0.  1.
    9900012    2    1    2    0    0  0.40366790454E+01 -0.17985622918E+02  0.33016113208E+01  0.72461600272E+02  0.70000039051E+02 0.  0.
        -12    1    1    2    0    0 -0.40366790454E+01  0.17985622918E+02 -0.33016113208E+01  0.18726399728E+02  0.00000000000E+00 0.  1.
         11    1    3    3    0    0 -0.17774859891E+01  0.17507562321E+02  0.15397239516E+02  0.23382668364E+02  0.51100000000E-03 0. -1.
        -11    1    3    3    0    0  0.30771046019E+00 -0.19969206193E+01 -0.14882358428E+02  0.15018887121E+02  0.51100000000E-03 0.  1.
        -12    1    3    3    0    0  0.55064545743E+01 -0.33496264620E+02  0.27867302336E+01  0.34060044787E+02  0.00000000000E+00 0.  1.
</event>
<event>
 7    1  0.3440346E-013  0.7246158E+02  0.7816164E-02  0.1226708E+00
        -11   -1    0    0    0    0  0.00000000000E+00  0.00000000000E+00  0.45593999997E+02  0.45594000000E+02  0.51100000000E-03 0. -1.
         11   -1    0    0    0    0 -0.00000000000E+00 -0.00000000000E+00 -0.45593999997E+02  0.45594000000E+02  0.51100000000E-03 0.  1.
    9900012    2    1    2    0    0 -0.16485165095E+02 -0.65485448036E+01  0.60028864520E+01  0.72461581415E+02  0.70000014487E+02 0.  0.
        -12    1    1    2    0    0  0.16485165095E+02  0.65485448036E+01 -0.60028864520E+01  0.18726418585E+02  0.00000000000E+00 0.  1.
         11    1    3    3    0    0  0.14065324624E+02  0.12306606276E+02 -0.13918635295E+02  0.23302667734E+02  0.51100000000E-03 0. -1.
        -11    1    3    3    0    0 -0.30144292390E+00 -0.46727622563E+01 -0.54668420653E+01  0.71980509423E+01  0.51100000000E-03 0.  1.
        -12    1    3    3    0    0 -0.30249046795E+02 -0.14182388823E+02  0.25388363812E+02  0.41960862739E+02  0.00000000000E+00 0.  1.
</event>
<event>
 7    1  0.3440346E-013  0.7246162E+02  0.7816164E-02  0.1226708E+00
        -11   -1    0    0    0    0  0.00000000000E+00  0.00000000000E+00  0.45593999997E+02  0.45594000000E+02  0.51100000000E-03 0.  1.
         11   -1    0    0    0    0 -0.00000000000E+00 -0.00000000000E+00 -0.45593999997E+02  0.45594000000E+02  0.51100000000E-03 0. -1.
    9900012    2    1    2    0    0 -0.12487910407E+02 -0.12671269770E+02  0.58453608886E+01  0.72461622138E+02  0.70000067536E+02 0.  0.
        -12    1    1    2    0    0  0.12487910407E+02  0.12671269770E+02 -0.58453608886E+01  0.18726377862E+02  0.00000000000E+00 0.  1.
         11    1    3    3    0    0 -0.27179852000E+02  0.81226054365E+01  0.89971017946E+01  0.29760190100E+02  0.51100000000E-03 0. -1.
        -11    1    3    3    0    0 -0.64275969268E+01 -0.17309861954E+02 -0.89579866325E+01  0.20522934681E+02  0.51100000000E-03 0.  1.
        -12    1    3    3    0    0  0.21119538519E+02 -0.34840132518E+01  0.58062457265E+01  0.22178497358E+02  0.00000000000E+00 0.  1.
</event>
<event>
 7    1  0.3440346E-013  0.7246125E+02  0.7816164E-02  0.1226709E+00
        -11   -1    0    0    0    0  0.00000000000E+00  0.00000000000E+00  0.45593999997E+02  0.45594000000E+02  0.51100000000E-03 0. -1.
         11   -1    0    0    0    0 -0.00000000000E+00 -0.00000000000E+00 -0.45593999997E+02  0.45594000000E+02  0.51100000000E-03 0.  1.
    9900012    2    1    2    0    0  0.11905351370E+02  0.14394470346E+02 -0.13239386884E+01  0.72461254916E+02  0.69999589160E+02 0.  0.
        -12    1    1    2    0    0 -0.11905351370E+02 -0.14394470346E+02  0.13239386884E+01  0.18726745084E+02  0.00000000000E+00 0.  1.
         11    1    3    3    0    0  0.38516697733E+01  0.20719976730E+02  0.23311002083E+02  0.31425397596E+02  0.51100000000E-03 0. -1.
        -11    1    3    3    0    0  0.70936925138E+01  0.10883093581E+02 -0.29247640523E+01  0.13316022093E+02  0.51100000000E-03 0.  1.
        -12    1    3    3    0    0  0.95998908331E+00 -0.17208599965E+02 -0.21710176719E+02  0.27719835226E+02  0.00000000000E+00 0.  1.
</event>
<event>
 7    1  0.3440346E-013  0.7246154E+02  0.7816164E-02  0.1226708E+00
        -11   -1    0    0    0    0  0.00000000000E+00  0.00000000000E+00  0.45593999997E+02  0.45594000000E+02  0.51100000000E-03 0.  1.
         11   -1    0    0    0    0 -0.00000000000E+00 -0.00000000000E+00 -0.45593999997E+02  0.45594000000E+02  0.51100000000E-03 0. -1.
    9900012    2    1    2    0    0  0.25024894397E+01  0.18134939447E+02 -0.39423134505E+01  0.72461539644E+02  0.69999960072E+02 0.  0.
        -12    1    1    2    0    0 -0.25024894397E+01 -0.18134939447E+02  0.39423134505E+01  0.18726460356E+02  0.00000000000E+00 0.  1.
         11    1    3    3    0    0  0.22928145381E+02 -0.48525438292E+01  0.38304196040E+00  0.23439150019E+02  0.51100000000E-03 0.  1.
        -11    1    3    3    0    0 -0.53854497915E+01  0.30135883786E+02  0.31382669852E+01  0.30773743370E+02  0.51100000000E-03 0. -1.
         12    1    3    3    0    0 -0.15040206149E+02 -0.71484005106E+01 -0.74636223962E+01  0.18248646255E+02  0.00000000000E+00 0. -1.
</event>
<event>
 7    1  0.3440346E-013  0.7246159E+02  0.7816164E-02  0.1226708E+00
        -11   -1    0    0    0    0  0.00000000000E+00  0.00000000000E+00  0.45593999997E+02  0.45594000000E+02  0.51100000000E-03 0.  1.
         11   -1    0    0    0    0 -0.00000000000E+00 -0.00000000000E+00 -0.45593999997E+02  0.45594000000E+02  0.51100000000E-03 0. -1.
    9900012    2    1    2    0    0  0.15952218095E+02 -0.53607544458E+01 -0.82138636266E+01  0.72461588009E+02  0.70000023076E+02 0.  0.
        -12    1    1    2    0    0 -0.15952218095E+02  0.53607544458E+01  0.82138636266E+01  0.18726411991E+02  0.00000000000E+00 0.  1.
         11    1    3    3    0    0  0.12812690525E+01 -0.22859114771E+02 -0.62071703534E+01  0.23721503801E+02  0.51100000000E-03 0. -1.
        -11    1    3    3    0    0 -0.14410633508E+02  0.21839440152E+01  0.44604284494E+01  0.15242420797E+02  0.51100000000E-03 0.  1.
         12    1    3    3    0    0  0.29081582551E+02  0.15314416310E+02 -0.64671217227E+01  0.33497663410E+02  0.00000000000E+00 0. -1.
</event>
<event>
 7    1  0.3440346E-013  0.7246156E+02  0.7816164E-02  0.1226708E+00
        -11   -1    0    0    0    0  0.00000000000E+00  0.00000000000E+00  0.45593999997E+02  0.45594000000E+02  0.51100000000E-03 0.  1.
         11   -1    0    0    0    0 -0.00000000000E+00 -0.00000000000E+00 -0.45593999997E+02  0.45594000000E+02  0.51100000000E-03 0. -1.
    9900012    2    1    2    0    0 -0.78709314852E+01 -0.47480743279E+01 -0.16315135745E+02  0.72461563429E+02  0.69999991057E+02 0.  0.
        -12    1    1    2    0    0  0.78709314852E+01  0.47480743279E+01  0.16315135745E+02  0.18726436571E+02  0.00000000000E+00 0.  1.
         11    1    3    3    0    0  0.17372516646E+00 -0.16702507048E+02 -0.59517556693E+00  0.16714010779E+02  0.51100000000E-03 0. -1.
        -11    1    3    3    0    0 -0.85114482645E+01 -0.16907793630E+02  0.57377619997E+01  0.19779791455E+02  0.51100000000E-03 0.  1.
         12    1    3    3    0    0  0.46679161283E+00  0.28862226350E+02 -0.21457722178E+02  0.35967761194E+02  0.00000000000E+00 0. -1.
</event>
<event>
 7    1  0.3440346E-013  0.7246143E+02  0.7816164E-02  0.1226708E+00
        -11   -1    0    0    0    0  0.00000000000E+00  0.00000000000E+00  0.45593999997E+02  0.45594000000E+02  0.51100000000E-03 0. -1.
         11   -1    0    0    0    0 -0.00000000000E+00 -0.00000000000E+00 -0.45593999997E+02  0.45594000000E+02  0.51100000000E-03 0.  1.
    9900012    2    1    2    0    0 -0.15181678810E+02 -0.10963464888E+02  0.58532755681E-01  0.72461431709E+02  0.69999819467E+02 0.  0.
        -12    1    1    2    0    0  0.15181678810E+02  0.10963464888E+02 -0.58532755681E-01  0.18726568291E+02  0.00000000000E+00 0.  1.
         11    1    3    3    0    0 -0.23243972949E+02 -0.32616529927E+02  0.13454652710E+02  0.42251011618E+02  0.51100000000E-03 0. -1.
        -11    1    3    3    0    0 -0.35680689409E+00 -0.18506103649E+01 -0.20574195942E+01  0.27901694447E+01  0.51100000000E-03 0.  1.
        -12    1    3    3    0    0  0.84191010328E+01  0.23503675404E+02 -0.11338700360E+02  0.27420250647E+02  0.00000000000E+00 0.  1.
</event>
<event>
 7    1  0.3440346E-013  0.7246157E+02  0.7816164E-02  0.1226708E+00
        -11   -1    0    0    0    0  0.00000000000E+00  0.00000000000E+00  0.45593999997E+02  0.45594000000E+02  0.51100000000E-03 0.  1.
         11   -1    0    0    0    0 -0.00000000000E+00 -0.00000000000E+00 -0.45593999997E+02  0.45594000000E+02  0.51100000000E-03 0. -1.
    9900012    2    1    2    0    0 -0.90515953066E+00  0.81285677042E+01 -0.16845953255E+02  0.72461573011E+02  0.70000003539E+02 0.  0.
        -12    1    1    2    0    0  0.90515953066E+00 -0.81285677042E+01  0.16845953255E+02  0.18726426989E+02  0.00000000000E+00 0.  1.
         11    1    3    3    0    0 -0.75041881630E+00  0.72966564995E+01  0.11990954842E+02  0.14056575784E+02  0.51100000000E-03 0. -1.
        -11    1    3    3    0    0 -0.51567147019E+01 -0.75071881731E+01  0.12765379755E+02  0.15681342459E+02  0.51100000000E-03 0.  1.
         12    1    3    3    0    0  0.50019739876E+01  0.83390993778E+01 -0.41602287852E+02  0.42723654768E+02  0.00000000000E+00 0. -1.
</event>
<event>
 7    1  0.3440346E-013  0.7246161E+02  0.7816164E-02  0.1226708E+00
        -11   -1    0    0    0    0  0.00000000000E+00  0.00000000000E+00  0.45593999997E+02  0.45594000000E+02  0.51100000000E-03 0.  1.
         11   -1    0    0    0    0 -0.00000000000E+00 -0.00000000000E+00 -0.45593999997E+02  0.45594000000E+02  0.51100000000E-03 0. -1.
    9900012    2    1    2    0    0  0.10764000106E+02  0.13858055857E+02 -0.65397510931E+01  0.72461608068E+02  0.70000049208E+02 0.  0.
        -12    1    1    2    0    0 -0.10764000106E+02 -0.13858055857E+02  0.65397510931E+01  0.18726391932E+02  0.00000000000E+00 0.  1.
         11    1    3    3    0    0 -0.70998199050E+01 -0.20198993085E+02 -0.78991645089E+01  0.22821121019E+02  0.51100000000E-03 0. -1.
        -11    1    3    3    0    0  0.12241785523E+02 -0.10558994345E+01 -0.54374032370E+01  0.13436576596E+02  0.51100000000E-03 0.  1.
        -12    1    3    3    0    0  0.56220344882E+01  0.35112948377E+02  0.67968166528E+01  0.36203910453E+02  0.00000000000E+00 0.  1.
</event>
<event>
 7    1  0.3440346E-013  0.7246156E+02  0.7816164E-02  0.1226708E+00
        -11   -1    0    0    0    0  0.00000000000E+00  0.00000000000E+00  0.45593999997E+02  0.45594000000E+02  0.51100000000E-03 0. -1.
         11   -1    0    0    0    0 -0.00000000000E+00 -0.00000000000E+00 -0.45593999997E+02  0.45594000000E+02  0.51100000000E-03 0.  1.
    9900012    2    1    2    0    0 -0.15575140761E+02 -0.75565012530E+01  0.71409962193E+01  0.72461560191E+02  0.69999986839E+02 0.  0.
        -12    1    1    2    0    0  0.15575140761E+02  0.75565012530E+01 -0.71409962193E+01  0.18726439809E+02  0.00000000000E+00 0.  1.
         11    1    3    3    0    0 -0.17222069323E+01 -0.79360051368E+01  0.10891037177E+02  0.13585318005E+02  0.51100000000E-03 0. -1.
        -11    1    3    3    0    0  0.15728007087E+02  0.18263042939E+02  0.43180546650E-01  0.24102091385E+02  0.51100000000E-03 0.  1.
         12    1    3    3    0    0 -0.29580940916E+02 -0.17883539055E+02 -0.37932215043E+01  0.34774150801E+02  0.00000000000E+00 0. -1.
</event>
<event>
 7    1  0.3440346E-013  0.7246166E+02  0.7816164E-02  0.1226708E+00
        -11   -1    0    0    0    0  0.00000000000E+00  0.00000000000E+00  0.45593999997E+02  0.45594000000E+02  0.51100000000E-03 0.  1.
         11   -1    0    0    0    0 -0.00000000000E+00 -0.00000000000E+00 -0.45593999997E+02  0.45594000000E+02  0.51100000000E-03 0. -1.
    9900012    2    1    2    0    0 -0.70906036327E+01 -0.73579689979E+00 -0.17316396001E+02  0.72461664869E+02  0.70000123201E+02 0.  0.
        -12    1    1    2    0    0  0.70906036327E+01  0.73579689979E+00  0.17316396001E+02  0.18726335131E+02  0.00000000000E+00 0.  1.
         11    1    3    3    0    0  0.13322503711E+01 -0.29738353717E+02 -0.10002057503E+02  0.31403594179E+02  0.51100000000E-03 0. -1.
        -11    1    3    3    0    0 -0.53420779357E+01 -0.30792916830E+00  0.65750306668E+01  0.84772428050E+01  0.51100000000E-03 0.  1.
        -12    1    3    3    0    0 -0.30807760681E+01  0.29310485985E+02 -0.13889369165E+02  0.32580827885E+02  0.00000000000E+00 0.  1.
</event>
<event>
 7    1  0.3440346E-013  0.7246169E+02  0.7816164E-02  0.1226708E+00
        -11   -1    0    0    0    0  0.00000000000E+00  0.00000000000E+00  0.45593999997E+02  0.45594000000E+02  0.51100000000E-03 0. -1.
         11   -1    0    0    0    0 -0.00000000000E+00 -0.00000000000E+00 -0.45593999997E+02  0.45594000000E+02  0.51100000000E-03 0.  1.
    9900012    2    1    2    0    0 -0.14047185788E+02 -0.20167022906E+01  0.12218183532E+02  0.72461694291E+02  0.70000161528E+02 0.  0.
        -12    1    1    2    0    0  0.14047185788E+02  0.20167022906E+01 -0.12218183532E+02  0.18726305709E+02  0.00000000000E+00 0.  1.
         11    1    3    3    0    0 -0.35501088358E+01 -0.30212557430E+01  0.62573544493E+01  0.78029317552E+01  0.51100000000E-03 0.  1.
        -11    1    3    3    0    0 -0.59482268633E+01  0.20426424881E+02 -0.21808958602E+02  0.30467210436E+02  0.51100000000E-03 0. -1.
         12    1    3    3    0    0 -0.45488500885E+01 -0.19421871429E+02  0.27769787685E+02  0.34191552099E+02  0.00000000000E+00 0. -1.
</event>
<event>
 7    1  0.3440346E-013  0.7246161E+02  0.7816164E-02  0.1226708E+00
        -11   -1    0    0    0    0  0.00000000000E+00  0.00000000000E+00  0.45593999997E+02  0.45594000000E+02  0.51100000000E-03 0. -1.
         11   -1    0    0    0    0 -0.00000000000E+00 -0.00000000000E+00 -0.45593999997E+02  0.45594000000E+02  0.51100000000E-03 0.  1.
    9900012    2    1    2    0    0  0.17283175762E+02 -0.55883062553E+01  0.45541414771E+01  0.72461613915E+02  0.70000056824E+02 0.  0.
        -12    1    1    2    0    0 -0.17283175762E+02  0.55883062553E+01 -0.45541414771E+01  0.18726386085E+02  0.00000000000E+00 0.  1.
         11    1    3    3    0    0 -0.63026448767E+00  0.75699473644E+01 -0.15547766698E+02  0.17304172502E+02  0.51100000000E-03 0. -1.
        -11    1    3    3    0    0  0.14629706628E+02 -0.18583310136E+02 -0.90503423845E+01  0.25323436362E+02  0.51100000000E-03 0.  1.
         12    1    3    3    0    0  0.32837336214E+01  0.54250565164E+01  0.29152250559E+02  0.29834005051E+02  0.00000000000E+00 0. -1.
</event>
<event>
 7    1  0.3440346E-013  0.7246156E+02  0.7816164E-02  0.1226708E+00
        -11   -1    0    0    0    0  0.00000000000E+00  0.00000000000E+00  0.45593999997E+02  0.45594000000E+02  0.51100000000E-03 0. -1.
         11   -1    0    0    0    0 -0.00000000000E+00 -0.00000000000E+00 -0.45593999997E+02  0.45594000000E+02  0.51100000000E-03 0.  1.
    9900012    2    1    2    0    0 -0.16436200015E+02  0.82984060170E+01  0.34157669217E+01  0.72461556744E+02  0.69999982348E+02 0.  0.
        -12    1    1    2    0    0  0.16436200015E+02 -0.82984060170E+01 -0.34157669217E+01  0.18726443256E+02  0.00000000000E+00 0.  1.
         11    1    3    3    0    0  0.75555705300E+01  0.28207507468E+02 -0.11118886311E+02  0.31247075970E+02  0.51100000000E-03 0. -1.
        -11    1    3    3    0    0 -0.38895567589E+01 -0.10686917848E+02 -0.43061607794E+01  0.12160669628E+02  0.51100000000E-03 0.  1.
        -12    1    3    3    0    0 -0.20102213786E+02 -0.92221836027E+01  0.18840814012E+02  0.29053811147E+02  0.00000000000E+00 0.  1.
</event>
<event>
 7    1  0.3440346E-013  0.7246096E+02  0.7816164E-02  0.1226710E+00
        -11   -1    0    0    0    0  0.00000000000E+00  0.00000000000E+00  0.45593999997E+02  0.45594000000E+02  0.51100000000E-03 0.  1.
         11   -1    0    0    0    0 -0.00000000000E+00 -0.00000000000E+00 -0.45593999997E+02  0.45594000000E+02  0.51100000000E-03 0. -1.
    9900012    2    1    2    0    0  0.16092425847E+02  0.65609383356E+01 -0.69778158888E+01  0.72460960830E+02  0.69999206055E+02 0.  0.
        -12    1    1    2    0    0 -0.16092425847E+02 -0.65609383356E+01  0.69778158888E+01  0.18727039170E+02  0.00000000000E+00 0.  1.
         11    1    3    3    0    0  0.28818037836E+02 -0.78350335128E+00  0.50185152349E+01  0.29262239792E+02  0.51100000000E-03 0. -1.
        -11    1    3    3    0    0  0.38172187092E+01 -0.13483107295E+02 -0.84545803537E+01  0.16365979049E+02  0.51100000000E-03 0.  1.
         12    1    3    3    0    0 -0.16542830698E+02  0.20827548982E+02 -0.35417507700E+01  0.26832741989E+02  0.00000000000E+00 0. -1.
</event>
<event>
 7    1  0.3440346E-013  0.7246162E+02  0.7816164E-02  0.1226708E+00
        -11   -1    0    0    0    0  0.00000000000E+00  0.00000000000E+00  0.45593999997E+02  0.45594000000E+02  0.51100000000E-03 0.  1.
         11   -1    0    0    0    0 -0.00000000000E+00 -0.00000000000E+00 -0.45593999997E+02  0.45594000000E+02  0.51100000000E-03 0. -1.
    9900012    2    1    2    0    0 -0.16853809441E+02  0.56394692872E+01 -0.59010735006E+01  0.72461623549E+02  0.70000069374E+02 0.  0.
        -12    1    1    2    0    0  0.16853809441E+02 -0.56394692872E+01  0.59010735006E+01  0.18726376451E+02  0.00000000000E+00 0.  1.
         11    1    3    3    0    0  0.28842911613E+01  0.50917445051E+01 -0.27510925304E+02  0.28126429012E+02  0.51100000000E-03 0. -1.
        -11    1    3    3    0    0  0.91629145173E+01 -0.18549283084E+01  0.27634538216E+01  0.97486634348E+01  0.51100000000E-03 0.  1.
        -12    1    3    3    0    0 -0.28901015120E+02  0.24026530905E+01  0.18846397982E+02  0.34586531103E+02  0.00000000000E+00 0.  1.
</event>
<event>
 7    1  0.3440346E-013  0.7246159E+02  0.7816164E-02  0.1226708E+00
        -11   -1    0    0    0    0  0.00000000000E+00  0.00000000000E+00  0.45593999997E+02  0.45594000000E+02  0.51100000000E-03 0.  1.
         11   -1    0    0    0    0 -0.00000000000E+00 -0.00000000000E+00 -0.45593999997E+02  0.45594000000E+02  0.51100000000E-03 0. -1.
    9900012    2    1    2    0    0  0.43068699339E+01  0.98964950917E+01 -0.15303223568E+02  0.72461590966E+02  0.70000026929E+02 0.  0.
        -12    1    1    2    0    0 -0.43068699339E+01 -0.98964950917E+01  0.15303223568E+02  0.18726409034E+02  0.00000000000E+00 0.  1.
         11    1    3    3    0    0  0.14680445521E+02  0.13589883008E+02 -0.43044006845E+01  0.20462850886E+02  0.51100000000E-03 0. -1.
        -11    1    3    3    0    0  0.13439465446E+02  0.62235668929E+01  0.10715572364E+02  0.18280467929E+02  0.51100000000E-03 0.  1.
        -12    1    3    3    0    0 -0.23813041033E+02 -0.99169548090E+01 -0.21714395248E+02  0.33718272152E+02  0.00000000000E+00 0.  1.
</event>
<event>
 7    1  0.3440346E-013  0.7246156E+02  0.7816164E-02  0.1226708E+00
        -11   -1    0    0    0    0  0.00000000000E+00  0.00000000000E+00  0.45593999997E+02  0.45594000000E+02  0.51100000000E-03 0.  1.
         11   -1    0    0    0    0 -0.00000000000E+00 -0.00000000000E+00 -0.45593999997E+02  0.45594000000E+02  0.51100000000E-03 0. -1.
    9900012    2    1    2    0    0  0.37341423760E+01  0.11795302958E+02 -0.14057266735E+02  0.72461555084E+02  0.69999980185E+02 0.  0.
        -12    1    1    2    0    0 -0.37341423760E+01 -0.11795302958E+02  0.14057266735E+02  0.18726444916E+02  0.00000000000E+00 0.  1.
         11    1    3    3    0    0  0.13043098272E+02  0.15827780088E+02  0.31600106475E+01  0.20751546993E+02  0.51100000000E-03 0. -1.
        -11    1    3    3    0    0 -0.13968220082E+02  0.14017922427E+02  0.71396554908E+01  0.21037775601E+02  0.51100000000E-03 0.  1.
        -12    1    3    3    0    0  0.46592641856E+01 -0.18050399557E+02 -0.24356932873E+02  0.30672232490E+02  0.00000000000E+00 0.  1.
</event>
<event>
 7    1  0.3440346E-013  0.7246157E+02  0.7816164E-02  0.1226708E+00
        -11   -1    0    0    0    0  0.00000000000E+00  0.00000000000E+00  0.45593999997E+02  0.45594000000E+02  0.51100000000E-03 0. -1.
         11   -1    0    0    0    0 -0.00000000000E+00 -0.00000000000E+00 -0.45593999997E+02  0.45594000000E+02  0.51100000000E-03 0.  1.
    9900012    2    1    2    0    0  0.15543086836E+02 -0.13840532301E+01 -0.10352583996E+02  0.72461570893E+02  0.70000000779E+02 0.  0.
        -12    1    1    2    0    0 -0.15543086836E+02  0.13840532301E+01  0.10352583996E+02  0.18726429107E+02  0.00000000000E+00 0.  1.
         11    1    3    3    0    0 -0.21818241674E+02  0.84178052287E+01  0.12587172222E+01  0.23419638851E+02  0.51100000000E-03 0. -1.
        -11    1    3    3    0    0 -0.11618650377E+01 -0.12200119316E+01 -0.93598375629E+01  0.95102533586E+01  0.51100000000E-03 0.  1.
        -12    1    3    3    0    0  0.38523193547E+02 -0.85818465273E+01 -0.22514636549E+01  0.39531678683E+02  0.00000000000E+00 0.  1.
</event>
<event>
 7    1  0.3440346E-013  0.7246139E+02  0.7816164E-02  0.1226708E+00
        -11   -1    0    0    0    0  0.00000000000E+00  0.00000000000E+00  0.45593999997E+02  0.45594000000E+02  0.51100000000E-03 0.  1.
         11   -1    0    0    0    0 -0.00000000000E+00 -0.00000000000E+00 -0.45593999997E+02  0.45594000000E+02  0.51100000000E-03 0. -1.
    9900012    2    1    2    0    0  0.18643674081E+02  0.17446805308E+01 -0.23547704984E+00  0.72461389446E+02  0.69999764411E+02 0.  0.
        -12    1    1    2    0    0 -0.18643674081E+02 -0.17446805308E+01  0.23547704984E+00  0.18726610554E+02  0.00000000000E+00 0.  1.
         11    1    3    3    0    0 -0.18640412830E+02  0.10165556610E+02 -0.16304770837E+02  0.26770302276E+02  0.51100000000E-03 0. -1.
        -11    1    3    3    0    0  0.11069994894E+02 -0.98203862286E+01 -0.21388183817E+00  0.14799679670E+02  0.51100000000E-03 0.  1.
        -12    1    3    3    0    0  0.26214092016E+02  0.13995101492E+01  0.16283175625E+02  0.30891407500E+02  0.00000000000E+00 0.  1.
</event>
<event>
 7    1  0.3440346E-013  0.7246163E+02  0.7816164E-02  0.1226708E+00
        -11   -1    0    0    0    0  0.00000000000E+00  0.00000000000E+00  0.45593999997E+02  0.45594000000E+02  0.51100000000E-03 0.  1.
         11   -1    0    0    0    0 -0.00000000000E+00 -0.00000000000E+00 -0.45593999997E+02  0.45594000000E+02  0.51100000000E-03 0. -1.
    9900012    2    1    2    0    0  0.15179613660E+01 -0.18278379187E+02  0.37780562536E+01  0.72461626580E+02  0.70000073323E+02 0.  0.
        -12    1    1    2    0    0 -0.15179613660E+01  0.18278379187E+02 -0.37780562536E+01  0.18726373420E+02  0.00000000000E+00 0.  1.
         11    1    3    3    0    0  0.11566319419E+01 -0.37223010525E+01  0.40632026487E+00  0.39189818822E+01  0.51100000000E-03 0. -1.
        -11    1    3    3    0    0  0.11170765205E+02 -0.94843754438E+01  0.33266797268E+02  0.36351329736E+02  0.51100000000E-03 0.  1.
         12    1    3    3    0    0 -0.10809435781E+02 -0.50717026904E+01 -0.29895061280E+02  0.32191314962E+02  0.00000000000E+00 0. -1.
</event>
<event>
 7    1  0.3440346E-013  0.7246152E+02  0.7816164E-02  0.1226708E+00
        -11   -1    0    0    0    0  0.00000000000E+00  0.00000000000E+00  0.45593999997E+02  0.45594000000E+02  0.51100000000E-03 0.  1.
         11   -1    0    0    0    0 -0.00000000000E+00 -0.00000000000E+00 -0.45593999997E+02  0.45594000000E+02  0.51100000000E-03 0. -1.
    9900012    2    1    2    0    0  0.92931337091E+01 -0.13358190428E+02 -0.92670063482E+01  0.72461521626E+02  0.69999936600E+02 0.  0.
        -12    1    1    2    0    0 -0.92931337091E+01  0.13358190428E+02  0.92670063482E+01  0.18726478374E+02  0.00000000000E+00 0.  1.
         11    1    3    3    0    0 -0.34975832289E+01  0.45243929421E+01  0.11271852551E+02  0.12639536389E+02  0.51100000000E-03 0. -1.
        -11    1    3    3    0    0  0.25570524465E+02  0.41226881866E+01  0.17966895295E+01  0.25962980816E+02  0.51100000000E-03 0.  1.
         12    1    3    3    0    0 -0.12779807528E+02 -0.22005271557E+02 -0.22335548429E+02  0.33859004420E+02  0.00000000000E+00 0. -1.
</event>
<event>
 7    1  0.3440346E-013  0.7246160E+02  0.7816164E-02  0.1226708E+00
        -11   -1    0    0    0    0  0.00000000000E+00  0.00000000000E+00  0.45593999997E+02  0.45594000000E+02  0.51100000000E-03 0.  1.
         11   -1    0    0    0    0 -0.00000000000E+00 -0.00000000000E+00 -0.45593999997E+02  0.45594000000E+02  0.51100000000E-03 0. -1.
    9900012    2    1    2    0    0  0.61367763089E+01 -0.17090426832E+02  0.45755254979E+01  0.72461597614E+02  0.70000035588E+02 0.  0.
        -12    1    1    2    0    0 -0.61367763089E+01  0.17090426832E+02 -0.45755254979E+01  0.18726402386E+02  0.00000000000E+00 0.  1.
         11    1    3    3    0    0  0.18411418997E+02  0.18645611599E+02  0.29414025955E+01  0.26368371790E+02  0.51100000000E-03 0. -1.
        -11    1    3    3    0    0  0.55278442011E+01 -0.14451499808E+01  0.46108577132E+01  0.73420384833E+01  0.51100000000E-03 0.  1.
         12    1    3    3    0    0 -0.17802486889E+02 -0.34290888450E+02 -0.29767348108E+01  0.38751187340E+02  0.00000000000E+00 0. -1.
</event>
<event>
 7    1  0.3440346E-013  0.7246164E+02  0.7816164E-02  0.1226708E+00
        -11   -1    0    0    0    0  0.00000000000E+00  0.00000000000E+00  0.45593999997E+02  0.45594000000E+02  0.51100000000E-03 0.  1.
         11   -1    0    0    0    0 -0.00000000000E+00 -0.00000000000E+00 -0.45593999997E+02  0.45594000000E+02  0.51100000000E-03 0. -1.
    9900012    2    1    2    0    0  0.15574802909E+01  0.10320851271E+02 -0.15547695005E+02  0.72461640615E+02  0.70000091606E+02 0.  0.
        -12    1    1    2    0    0 -0.15574802909E+01 -0.10320851271E+02  0.15547695005E+02  0.18726359385E+02  0.00000000000E+00 0.  1.
         11    1    3    3    0    0 -0.10446787557E+02  0.28523598464E+01 -0.72143773249E+00  0.10853193061E+02  0.51100000000E-03 0. -1.
        -11    1    3    3    0    0  0.12587040252E+02  0.80757273988E+01  0.20995303996E+02  0.25777000320E+02  0.51100000000E-03 0.  1.
         12    1    3    3    0    0 -0.58277240419E+00 -0.60723597408E+00 -0.35821561269E+02  0.35831447235E+02  0.00000000000E+00 0. -1.
</event>
<event>
 7    1  0.4626580E-013  0.7246150E+02  0.7816164E-02  0.1226708E+00
        -11   -1    0    0    0    0  0.00000000000E+00  0.00000000000E+00  0.45593999997E+02  0.45594000000E+02  0.51100000000E-03 0.  1.
         11   -1    0    0    0    0 -0.00000000000E+00 -0.00000000000E+00 -0.45593999997E+02  0.45594000000E+02  0.51100000000E-03 0. -1.
    9900012    2    1    2    0    0  0.89724779575E+01  0.14530455749E+02 -0.76838878222E+01  0.72461504411E+02  0.69999914175E+02 0.  0.
        -12    1    1    2    0    0 -0.89724779575E+01 -0.14530455749E+02  0.76838878222E+01  0.18726495589E+02  0.00000000000E+00 0.  1.
         11    1    3    3    0    0 -0.12765614503E+01  0.17034801646E+02 -0.14435632349E+02  0.22365186291E+02  0.51100000000E-03 0. -1.
        -11    1    3    3    0    0  0.20240507818E+02  0.17000358368E+02  0.93282934421E+01  0.28030472707E+02  0.51100000000E-03 0.  1.
        -12    1    3    3    0    0 -0.99914684103E+01 -0.19504704265E+02 -0.25765489152E+01  0.22065845413E+02  0.00000000000E+00 0.  1.
</event>
<event>
 7    1  0.3440346E-013  0.7246156E+02  0.7816164E-02  0.1226708E+00
        -11   -1    0    0    0    0  0.00000000000E+00  0.00000000000E+00  0.45593999997E+02  0.45594000000E+02  0.51100000000E-03 0.  1.
         11   -1    0    0    0    0 -0.00000000000E+00 -0.00000000000E+00 -0.45593999997E+02  0.45594000000E+02  0.51100000000E-03 0. -1.
    9900012    2    1    2    0    0  0.88221815106E+01  0.14414923760E+02 -0.80658924728E+01  0.72461560536E+02  0.69999987288E+02 0.  0.
        -12    1    1    2    0    0 -0.88221815106E+01 -0.14414923760E+02  0.80658924728E+01  0.18726439464E+02  0.00000000000E+00 0.  1.
         11    1    3    3    0    0  0.32402126610E+01 -0.18049369276E+02 -0.56659471032E+01  0.19193271378E+02  0.51100000000E-03 0. -1.
        -11    1    3    3    0    0 -0.32008820996E+01  0.10277584973E+02 -0.20609940468E+02  0.23251753599E+02  0.51100000000E-03 0.  1.
        -12    1    3    3    0    0  0.87828509492E+01  0.22186708063E+02  0.18209995098E+02  0.30016535559E+02  0.00000000000E+00 0.  1.
</event>
<event>
 7    1  0.3440346E-013  0.7246158E+02  0.7816164E-02  0.1226708E+00
        -11   -1    0    0    0    0  0.00000000000E+00  0.00000000000E+00  0.45593999997E+02  0.45594000000E+02  0.51100000000E-03 0. -1.
         11   -1    0    0    0    0 -0.00000000000E+00 -0.00000000000E+00 -0.45593999997E+02  0.45594000000E+02  0.51100000000E-03 0.  1.
    9900012    2    1    2    0    0 -0.98047307549E+01 -0.60948517143E+01 -0.14744453044E+02  0.72461578608E+02  0.70000010830E+02 0.  0.
        -12    1    1    2    0    0  0.98047307549E+01  0.60948517143E+01  0.14744453044E+02  0.18726421392E+02  0.00000000000E+00 0.  1.
         11    1    3    3    0    0  0.76961972239E+01 -0.37476953378E+01  0.16687180771E+02  0.18754697395E+02  0.51100000000E-03 0. -1.
        -11    1    3    3    0    0  0.11521880816E+02 -0.76826495735E+01 -0.12433715913E+02  0.18611129296E+02  0.51100000000E-03 0.  1.
        -12    1    3    3    0    0 -0.29022808794E+02  0.53354931970E+01 -0.18997917902E+02  0.35095751917E+02  0.00000000000E+00 0.  1.
</event>
<event>
 7    1  0.3440346E-013  0.7246119E+02  0.7816164E-02  0.1226709E+00
        -11   -1    0    0    0    0  0.00000000000E+00  0.00000000000E+00  0.45593999997E+02  0.45594000000E+02  0.51100000000E-03 0.  1.
         11   -1    0    0    0    0 -0.00000000000E+00 -0.00000000000E+00 -0.45593999997E+02  0.45594000000E+02  0.51100000000E-03 0. -1.
    9900012    2    1    2    0    0 -0.83867098547E+01  0.61362334489E+01 -0.15578928509E+02  0.72461193635E+02  0.69999509330E+02 0.  0.
        -12    1    1    2    0    0  0.83867098547E+01 -0.61362334489E+01  0.15578928509E+02  0.18726806365E+02  0.00000000000E+00 0.  1.
         11    1    3    3    0    0 -0.24281057849E+02 -0.85925994912E+01  0.15603909148E+02  0.30114523361E+02  0.51100000000E-03 0. -1.
        -11    1    3    3    0    0 -0.35642020759E+01 -0.32056588621E+00 -0.69448562644E+01  0.78126389728E+01  0.51100000000E-03 0.  1.
        -12    1    3    3    0    0  0.19458550070E+02  0.15049398826E+02 -0.24237981393E+02  0.34534031301E+02  0.00000000000E+00 0.  1.
</event>
<event>
 7    1  0.3440346E-013  0.7246156E+02  0.7816164E-02  0.1226708E+00
        -11   -1    0    0    0    0  0.00000000000E+00  0.00000000000E+00  0.45593999997E+02  0.45594000000E+02  0.51100000000E-03 0. -1.
         11   -1    0    0    0    0 -0.00000000000E+00 -0.00000000000E+00 -0.45593999997E+02  0.45594000000E+02  0.51100000000E-03 0.  1.
    9900012    2    1    2    0    0  0.77825013124E+01  0.45360864963E+01  0.16417559121E+02  0.72461557335E+02  0.69999983118E+02 0.  0.
        -12    1    1    2    0    0 -0.77825013124E+01 -0.45360864963E+01 -0.16417559121E+02  0.18726442665E+02  0.00000000000E+00 0.  1.
         11    1    3    3    0    0  0.36189545347E+01  0.76318158268E+01 -0.19886129212E+02  0.21605545123E+02  0.51100000000E-03 0. -1.
        -11    1    3    3    0    0 -0.76637004905E+01  0.12127641218E+02  0.74780323003E+01  0.16178162877E+02  0.51100000000E-03 0.  1.
         12    1    3    3    0    0  0.11827247268E+02 -0.15223370549E+02  0.28825656033E+02  0.34677849336E+02  0.00000000000E+00 0. -1.
</event>
<event>
 7    1  0.3440346E-013  0.7246204E+02  0.7816164E-02  0.1226707E+00
        -11   -1    0    0    0    0  0.00000000000E+00  0.00000000000E+00  0.45593999997E+02  0.45594000000E+02  0.51100000000E-03 0.  1.
         11   -1    0    0    0    0 -0.00000000000E+00 -0.00000000000E+00 -0.45593999997E+02  0.45594000000E+02  0.51100000000E-03 0. -1.
    9900012    2    1    2    0    0  0.52780766810E+01  0.76732225213E+01 -0.16245778317E+02  0.72462035394E+02  0.70000605876E+02 0.  0.
        -12    1    1    2    0    0 -0.52780766810E+01 -0.76732225213E+01  0.16245778317E+02  0.18725964606E+02  0.00000000000E+00 0.  1.
         11    1    3    3    0    0 -0.13015261031E+01  0.19053797607E+02 -0.85601431260E+01  0.20928861030E+02  0.51100000000E-03 0. -1.
        -11    1    3    3    0    0 -0.15226740033E+02  0.11024144697E+02 -0.75771880207E+01  0.20268180898E+02  0.51100000000E-03 0.  1.
        -12    1    3    3    0    0  0.21806342817E+02 -0.22404719783E+02 -0.10844717012E+00  0.31264993466E+02  0.00000000000E+00 0.  1.
</event>
<event>
 7    1  0.3440346E-013  0.7246154E+02  0.7816164E-02  0.1226708E+00
        -11   -1    0    0    0    0  0.00000000000E+00  0.00000000000E+00  0.45593999997E+02  0.45594000000E+02  0.51100000000E-03 0. -1.
         11   -1    0    0    0    0 -0.00000000000E+00 -0.00000000000E+00 -0.45593999997E+02  0.45594000000E+02  0.51100000000E-03 0.  1.
    9900012    2    1    2    0    0  0.10118870157E+02 -0.10222949910E+02 -0.11990825574E+02  0.72461544488E+02  0.69999966382E+02 0.  0.
        -12    1    1    2    0    0 -0.10118870157E+02  0.10222949910E+02  0.11990825574E+02  0.18726455512E+02  0.00000000000E+00 0.  1.
         11    1    3    3    0    0  0.62455294339E+01  0.33263770022E+01 -0.71076761548E+01  0.10029480667E+02  0.51100000000E-03 0. -1.
        -11    1    3    3    0    0 -0.14268601789E+01 -0.23067648768E+02 -0.28339680469E+02  0.36568973721E+02  0.51100000000E-03 0.  1.
         12    1    3    3    0    0  0.53002009020E+01  0.95183218563E+01  0.23456531050E+02  0.25863090099E+02  0.00000000000E+00 0. -1.
</event>
<event>
 7    1  0.3440346E-013  0.7246155E+02  0.7816164E-02  0.1226708E+00
        -11   -1    0    0    0    0  0.00000000000E+00  0.00000000000E+00  0.45593999997E+02  0.45594000000E+02  0.51100000000E-03 0. -1.
         11   -1    0    0    0    0 -0.00000000000E+00 -0.00000000000E+00 -0.45593999997E+02  0.45594000000E+02  0.51100000000E-03 0.  1.
    9900012    2    1    2    0    0 -0.95603675107E+01  0.12218526804E+02  0.10487465855E+02  0.72461549075E+02  0.69999972358E+02 0.  0.
        -12    1    1    2    0    0  0.95603675107E+01 -0.12218526804E+02 -0.10487465855E+02  0.18726450925E+02  0.00000000000E+00 0.  1.
         11    1    3    3    0    0 -0.23404614125E+02 -0.16456202717E+02  0.13991902901E+02  0.31848954728E+02  0.51100000000E-03 0. -1.
        -11    1    3    3    0    0 -0.46298105247E+00  0.22894097164E+02  0.43334769727E+01  0.23305215282E+02  0.51100000000E-03 0.  1.
        -12    1    3    3    0    0  0.14307227666E+02  0.57806323574E+01 -0.78379140187E+01  0.17307379065E+02  0.00000000000E+00 0.  1.
</event>
<event>
 7    1  0.3440346E-013  0.7246158E+02  0.7816164E-02  0.1226708E+00
        -11   -1    0    0    0    0  0.00000000000E+00  0.00000000000E+00  0.45593999997E+02  0.45594000000E+02  0.51100000000E-03 0.  1.
         11   -1    0    0    0    0 -0.00000000000E+00 -0.00000000000E+00 -0.45593999997E+02  0.45594000000E+02  0.51100000000E-03 0. -1.
    9900012    2    1    2    0    0 -0.28815652668E+01  0.14167191228E+02 -0.11902354193E+02  0.72461581202E+02  0.70000014209E+02 0.  0.
        -12    1    1    2    0    0  0.28815652668E+01 -0.14167191228E+02  0.11902354193E+02  0.18726418798E+02  0.00000000000E+00 0.  1.
         11    1    3    3    0    0  0.56235605714E+01 -0.12915258760E+01 -0.21076143365E+02  0.21851688539E+02  0.51100000000E-03 0. -1.
        -11    1    3    3    0    0 -0.25345372899E+02 -0.20905922807E+01  0.40124996094E+01  0.25746041576E+02  0.51100000000E-03 0.  1.
         12    1    3    3    0    0  0.16840247060E+02  0.17549309385E+02  0.51612895625E+01  0.24863851087E+02  0.00000000000E+00 0. -1.
</event>
<event>
 7    1  0.3440346E-013  0.7246156E+02  0.7816164E-02  0.1226708E+00
        -11   -1    0    0    0    0  0.00000000000E+00  0.00000000000E+00  0.45593999997E+02  0.45594000000E+02  0.51100000000E-03 0. -1.
         11   -1    0    0    0    0 -0.00000000000E+00 -0.00000000000E+00 -0.45593999997E+02  0.45594000000E+02  0.51100000000E-03 0.  1.
    9900012    2    1    2    0    0  0.61553375082E+01 -0.17195119520E+02 -0.41375576980E+01  0.72461556161E+02  0.69999981589E+02 0.  0.
        -12    1    1    2    0    0 -0.61553375082E+01  0.17195119520E+02  0.41375576980E+01  0.18726443839E+02  0.00000000000E+00 0.  1.
         11    1    3    3    0    0  0.91527226654E+01  0.23440449263E+01 -0.12938645251E+02  0.16021092971E+02  0.51100000000E-03 0.  1.
        -11    1    3    3    0    0 -0.18379553824E+02 -0.26259399444E+02  0.18545463259E+02  0.37031044620E+02  0.51100000000E-03 0. -1.
         12    1    3    3    0    0  0.15382168667E+02  0.67202349979E+01 -0.97443757064E+01  0.19409418570E+02  0.00000000000E+00 0. -1.
</event>
<event>
 7    1  0.3440346E-013  0.7246161E+02  0.7816164E-02  0.1226708E+00
        -11   -1    0    0    0    0  0.00000000000E+00  0.00000000000E+00  0.45593999997E+02  0.45594000000E+02  0.51100000000E-03 0.  1.
         11   -1    0    0    0    0 -0.00000000000E+00 -0.00000000000E+00 -0.45593999997E+02  0.45594000000E+02  0.51100000000E-03 0. -1.
    9900012    2    1    2    0    0  0.58583134316E+01 -0.79668389137E+01 -0.15902432154E+02  0.72461609345E+02  0.70000050871E+02 0.  0.
        -12    1    1    2    0    0 -0.58583134316E+01  0.79668389137E+01  0.15902432154E+02  0.18726390655E+02  0.00000000000E+00 0.  1.
         11    1    3    3    0    0  0.17818311572E+02  0.10076582298E+02  0.17209135953E+02  0.26742926141E+02  0.51100000000E-03 0. -1.
        -11    1    3    3    0    0 -0.40718859669E+01 -0.11022906307E+00  0.27080422315E+01  0.48914107130E+01  0.51100000000E-03 0.  1.
         12    1    3    3    0    0 -0.78881121735E+01 -0.17933192149E+02 -0.35819610338E+02  0.40827272491E+02  0.00000000000E+00 0. -1.
</event>
<event>
 7    1  0.3440346E-013  0.7246185E+02  0.7816164E-02  0.1226707E+00
        -11   -1    0    0    0    0  0.00000000000E+00  0.00000000000E+00  0.45593999997E+02  0.45594000000E+02  0.51100000000E-03 0. -1.
         11   -1    0    0    0    0 -0.00000000000E+00 -0.00000000000E+00 -0.45593999997E+02  0.45594000000E+02  0.51100000000E-03 0.  1.
    9900012    2    1    2    0    0 -0.93704730688E+01  0.13933852020E+02  0.82891994443E+01  0.72461846496E+02  0.70000359802E+02 0.  0.
        -12    1    1    2    0    0  0.93704730688E+01 -0.13933852020E+02 -0.82891994443E+01  0.18726153504E+02  0.00000000000E+00 0.  1.
         11    1    3    3    0    0 -0.21974336545E+01  0.22843079677E+02  0.41383158653E+01  0.23318676255E+02  0.51100000000E-03 0. -1.
        -11    1    3    3    0    0  0.20239543885E+02 -0.37853243297E+01 -0.16584681899E+01  0.20657161808E+02  0.51100000000E-03 0.  1.
        -12    1    3    3    0    0 -0.27412583300E+02 -0.51239033277E+01  0.58093517689E+01  0.28486008433E+02  0.00000000000E+00 0.  1.
</event>
<event>
 7    1  0.3440346E-013  0.7246155E+02  0.7816164E-02  0.1226708E+00
        -11   -1    0    0    0    0  0.00000000000E+00  0.00000000000E+00  0.45593999997E+02  0.45594000000E+02  0.51100000000E-03 0.  1.
         11   -1    0    0    0    0 -0.00000000000E+00 -0.00000000000E+00 -0.45593999997E+02  0.45594000000E+02  0.51100000000E-03 0. -1.
    9900012    2    1    2    0    0  0.16418346162E+02 -0.15688195018E+01 -0.88688499017E+01  0.72461553890E+02  0.69999978630E+02 0.  0.
        -12    1    1    2    0    0 -0.16418346162E+02  0.15688195018E+01  0.88688499017E+01  0.18726446110E+02  0.00000000000E+00 0.  1.
         11    1    3    3    0    0 -0.11167221619E+02  0.16195441190E+02 -0.26446101661E+02  0.32960513457E+02  0.51100000000E-03 0. -1.
        -11    1    3    3    0    0  0.22465048368E+01  0.13587077485E+01 -0.89353208162E+00  0.27733140049E+01  0.51100000000E-03 0.  1.
        -12    1    3    3    0    0  0.25339062945E+02 -0.19122968440E+02  0.18470783841E+02  0.36727726428E+02  0.00000000000E+00 0.  1.
</event>
<event>
 7    1  0.3440346E-013  0.7246129E+02  0.7816164E-02  0.1226709E+00
        -11   -1    0    0    0    0  0.00000000000E+00  0.00000000000E+00  0.45593999997E+02  0.45594000000E+02  0.51100000000E-03 0. -1.
         11   -1    0    0    0    0 -0.00000000000E+00 -0.00000000000E+00 -0.45593999997E+02  0.45594000000E+02  0.51100000000E-03 0.  1.
    9900012    2    1    2    0    0  0.14556336408E+01  0.17884671110E+02  0.53581157752E+01  0.72461288205E+02  0.69999632525E+02 0.  0.
        -12    1    1    2    0    0 -0.14556336408E+01 -0.17884671110E+02 -0.53581157752E+01  0.18726711795E+02  0.00000000000E+00 0.  1.
         11    1    3    3    0    0  0.71303811922E+01 -0.10941406808E+02  0.10332240332E+02  0.16652684751E+02  0.51100000000E-03 0. -1.
        -11    1    3    3    0    0 -0.40026708459E+01 -0.61529422459E+01  0.14126132954E+02  0.15919412824E+02  0.51100000000E-03 0.  1.
         12    1    3    3    0    0 -0.16720767055E+01  0.34979020164E+02 -0.19100257510E+02  0.39889190630E+02  0.00000000000E+00 0. -1.
</event>
<event>
 7    1  0.3440346E-013  0.7246160E+02  0.7816164E-02  0.1226708E+00
        -11   -1    0    0    0    0  0.00000000000E+00  0.00000000000E+00  0.45593999997E+02  0.45594000000E+02  0.51100000000E-03 0.  1.
         11   -1    0    0    0    0 -0.00000000000E+00 -0.00000000000E+00 -0.45593999997E+02  0.45594000000E+02  0.51100000000E-03 0. -1.
    9900012    2    1    2    0    0 -0.18721523794E+02  0.20404294450E+00  0.37545273783E+00  0.72461600147E+02  0.70000038889E+02 0.  0.
        -12    1    1    2    0    0  0.18721523794E+02 -0.20404294450E+00 -0.37545273783E+00  0.18726399853E+02  0.00000000000E+00 0.  1.
         11    1    3    3    0    0 -0.12572831653E+02  0.32911696351E+00 -0.13673425781E+01  0.12651246568E+02  0.51100000000E-03 0. -1.
        -11    1    3    3    0    0 -0.15844400959E+02  0.21366263059E+02  0.17146295655E+02  0.31647396320E+02  0.51100000000E-03 0.  1.
         12    1    3    3    0    0  0.96957088176E+01 -0.21491337078E+02 -0.15403500339E+02  0.28162957259E+02  0.00000000000E+00 0. -1.
</event>
<event>
 7    1  0.3440346E-013  0.7246151E+02  0.7816164E-02  0.1226708E+00
        -11   -1    0    0    0    0  0.00000000000E+00  0.00000000000E+00  0.45593999997E+02  0.45594000000E+02  0.51100000000E-03 0.  1.
         11   -1    0    0    0    0 -0.00000000000E+00 -0.00000000000E+00 -0.45593999997E+02  0.45594000000E+02  0.51100000000E-03 0. -1.
    9900012    2    1    2    0    0  0.17861965541E+02 -0.56194113989E+01 -0.23190372385E+00  0.72461511360E+02  0.69999923227E+02 0.  0.
        -12    1    1    2    0    0 -0.17861965541E+02  0.56194113989E+01  0.23190372385E+00  0.18726488640E+02  0.00000000000E+00 0.  1.
         11    1    3    3    0    0  0.33266700687E+01  0.27440235548E+02  0.30734475646E+00  0.27642860231E+02  0.51100000000E-03 0. -1.
        -11    1    3    3    0    0 -0.31705038872E+00  0.29794913581E+01  0.46122687861E+01  0.55000830283E+01  0.51100000000E-03 0.  1.
        -12    1    3    3    0    0  0.14852345861E+02 -0.36039138305E+02 -0.51515172664E+01  0.39318568101E+02  0.00000000000E+00 0.  1.
</event>
<event>
 7    1  0.3440346E-013  0.7246158E+02  0.7816164E-02  0.1226708E+00
        -11   -1    0    0    0    0  0.00000000000E+00  0.00000000000E+00  0.45593999997E+02  0.45594000000E+02  0.51100000000E-03 0.  1.
         11   -1    0    0    0    0 -0.00000000000E+00 -0.00000000000E+00 -0.45593999997E+02  0.45594000000E+02  0.51100000000E-03 0. -1.
    9900012    2    1    2    0    0 -0.13104492688E+02  0.87575452932E+01 -0.10112196365E+02  0.72461578999E+02  0.70000011340E+02 0.  0.
        -12    1    1    2    0    0  0.13104492688E+02 -0.87575452932E+01  0.10112196365E+02  0.18726421001E+02  0.00000000000E+00 0.  1.
         11    1    3    3    0    0  0.19634438382E+02  0.11103792289E+02 -0.20764193893E+02  0.30658720164E+02  0.51100000000E-03 0.  1.
        -11    1    3    3    0    0 -0.70227663893E+01  0.56440422765E+01 -0.53498697447E+01  0.10478338013E+02  0.51100000000E-03 0. -1.
         12    1    3    3    0    0 -0.25716164680E+02 -0.79902892720E+01  0.16001867273E+02  0.31324520822E+02  0.00000000000E+00 0. -1.
</event>
<event>
 7    1  0.3440346E-013  0.7246146E+02  0.7816164E-02  0.1226708E+00
        -11   -1    0    0    0    0  0.00000000000E+00  0.00000000000E+00  0.45593999997E+02  0.45594000000E+02  0.51100000000E-03 0. -1.
         11   -1    0    0    0    0 -0.00000000000E+00 -0.00000000000E+00 -0.45593999997E+02  0.45594000000E+02  0.51100000000E-03 0.  1.
    9900012    2    1    2    0    0  0.15116657928E+02  0.10049712504E+02  0.46014333598E+01  0.72461461151E+02  0.69999857820E+02 0.  0.
        -12    1    1    2    0    0 -0.15116657928E+02 -0.10049712504E+02 -0.46014333598E+01  0.18726538849E+02  0.00000000000E+00 0.  1.
         11    1    3    3    0    0 -0.81738892221E+01  0.14215304676E+02  0.97685315325E+01  0.19086947388E+02  0.51100000000E-03 0. -1.
        -11    1    3    3    0    0  0.25508566686E+02  0.17761984440E+02 -0.28628682084E+01  0.31214917592E+02  0.51100000000E-03 0.  1.
        -12    1    3    3    0    0 -0.22180195366E+01 -0.21927576612E+02 -0.23042299642E+01  0.22159596171E+02  0.00000000000E+00 0.  1.
</event>
<event>
 7    1  0.3440346E-013  0.7246156E+02  0.7816164E-02  0.1226708E+00
        -11   -1    0    0    0    0  0.00000000000E+00  0.00000000000E+00  0.45593999997E+02  0.45594000000E+02  0.51100000000E-03 0. -1.
         11   -1    0    0    0    0 -0.00000000000E+00 -0.00000000000E+00 -0.45593999997E+02  0.45594000000E+02  0.51100000000E-03 0.  1.
    9900012    2    1    2    0    0 -0.16628539006E+01  0.17879534312E+02  0.53138404100E+01  0.72461555324E+02  0.69999980498E+02 0.  0.
        -12    1    1    2    0    0  0.16628539006E+01 -0.17879534312E+02 -0.53138404100E+01  0.18726444676E+02  0.00000000000E+00 0.  1.
         11    1    3    3    0    0 -0.10066015496E+02  0.35963183236E+01  0.54841967509E+01  0.12013933066E+02  0.51100000000E-03 0. -1.
        -11    1    3    3    0    0  0.14457857993E+02 -0.19394846156E+02  0.76038402747E+01  0.25357604428E+02  0.51100000000E-03 0.  1.
         12    1    3    3    0    0 -0.60546963972E+01  0.33678062145E+02 -0.77741966156E+01  0.35090017830E+02  0.00000000000E+00 0. -1.
</event>
<event>
 7    1  0.3440346E-013  0.7246158E+02  0.7816164E-02  0.1226708E+00
        -11   -1    0    0    0    0  0.00000000000E+00  0.00000000000E+00  0.45593999997E+02  0.45594000000E+02  0.51100000000E-03 0.  1.
         11   -1    0    0    0    0 -0.00000000000E+00 -0.00000000000E+00 -0.45593999997E+02  0.45594000000E+02  0.51100000000E-03 0. -1.
    9900012    2    1    2    0    0  0.35087841734E+01 -0.71962307161E+01 -0.16928717367E+02  0.72461580839E+02  0.70000013737E+02 0.  0.
        -12    1    1    2    0    0 -0.35087841734E+01  0.71962307161E+01  0.16928717367E+02  0.18726419161E+02  0.00000000000E+00 0.  1.
         11    1    3    3    0    0 -0.18718519294E+01 -0.35683810858E+02 -0.10054439603E+02  0.37120478755E+02  0.51100000000E-03 0. -1.
        -11    1    3    3    0    0  0.90763674381E+01  0.40550775670E+01 -0.24376729954E+01  0.10235543456E+02  0.51100000000E-03 0.  1.
        -12    1    3    3    0    0 -0.36957313352E+01  0.24432502575E+02 -0.44366047685E+01  0.25105558629E+02  0.00000000000E+00 0.  1.
</event>
<event>
 7    1  0.3440346E-013  0.7246156E+02  0.7816164E-02  0.1226708E+00
        -11   -1    0    0    0    0  0.00000000000E+00  0.00000000000E+00  0.45593999997E+02  0.45594000000E+02  0.51100000000E-03 0.  1.
         11   -1    0    0    0    0 -0.00000000000E+00 -0.00000000000E+00 -0.45593999997E+02  0.45594000000E+02  0.51100000000E-03 0. -1.
    9900012    2    1    2    0    0 -0.16582462533E+02 -0.72383490077E-01 -0.87003688908E+01  0.72461555547E+02  0.69999980789E+02 0.  0.
        -12    1    1    2    0    0  0.16582462533E+02  0.72383490077E-01  0.87003688908E+01  0.18726444453E+02  0.00000000000E+00 0.  1.
         11    1    3    3    0    0 -0.17276697983E+02 -0.90224772847E+01 -0.49622331555E+01  0.20112512217E+02  0.51100000000E-03 0. -1.
        -11    1    3    3    0    0  0.30526055053E+01 -0.20872848497E+02 -0.70697718785E+01  0.22248053385E+02  0.51100000000E-03 0.  1.
        -12    1    3    3    0    0 -0.23583700554E+01  0.29822942292E+02  0.33316361432E+01  0.30100989944E+02  0.00000000000E+00 0.  1.
</event>
<event>
 7    1  0.3440346E-013  0.7246156E+02  0.7816164E-02  0.1226708E+00
        -11   -1    0    0    0    0  0.00000000000E+00  0.00000000000E+00  0.45593999997E+02  0.45594000000E+02  0.51100000000E-03 0.  1.
         11   -1    0    0    0    0 -0.00000000000E+00 -0.00000000000E+00 -0.45593999997E+02  0.45594000000E+02  0.51100000000E-03 0. -1.
    9900012    2    1    2    0    0 -0.34491993899E+01  0.11052038328E+02 -0.14718525650E+02  0.72461560805E+02  0.69999987638E+02 0.  0.
        -12    1    1    2    0    0  0.34491993899E+01 -0.11052038328E+02  0.14718525650E+02  0.18726439195E+02  0.00000000000E+00 0.  1.
         11    1    3    3    0    0  0.16992280328E+02  0.38606669278E+01  0.82825723067E+01  0.19293608894E+02  0.51100000000E-03 0. -1.
        -11    1    3    3    0    0  0.37191100010E+01 -0.13573391096E+02 -0.14475320940E+02  0.20189196161E+02  0.51100000000E-03 0.  1.
        -12    1    3    3    0    0 -0.24160589719E+02  0.20764762495E+02 -0.85257770160E+01  0.32978755750E+02  0.00000000000E+00 0.  1.
</event>
<event>
 7    1  0.3440346E-013  0.7246158E+02  0.7816164E-02  0.1226708E+00
        -11   -1    0    0    0    0  0.00000000000E+00  0.00000000000E+00  0.45593999997E+02  0.45594000000E+02  0.51100000000E-03 0.  1.
         11   -1    0    0    0    0 -0.00000000000E+00 -0.00000000000E+00 -0.45593999997E+02  0.45594000000E+02  0.51100000000E-03 0. -1.
    9900012    2    1    2    0    0  0.14125943318E+02  0.88578618017E+00 -0.12261801865E+02  0.72461583451E+02  0.70000017139E+02 0.  0.
        -12    1    1    2    0    0 -0.14125943318E+02 -0.88578618017E+00  0.12261801865E+02  0.18726416549E+02  0.00000000000E+00 0.  1.
         11    1    3    3    0    0  0.20879706692E+02 -0.26249137012E+02 -0.10499199663E+02  0.35145590609E+02  0.51100000000E-03 0. -1.
        -11    1    3    3    0    0 -0.34942431893E+01 -0.31263246151E+01 -0.48227445381E+01  0.67262549912E+01  0.51100000000E-03 0.  1.
        -12    1    3    3    0    0 -0.32595201842E+01  0.30261247807E+02  0.30601423364E+01  0.30589737851E+02  0.00000000000E+00 0.  1.
</event>
<event>
 7    1  0.3440346E-013  0.7246161E+02  0.7816164E-02  0.1226708E+00
        -11   -1    0    0    0    0  0.00000000000E+00  0.00000000000E+00  0.45593999997E+02  0.45594000000E+02  0.51100000000E-03 0. -1.
         11   -1    0    0    0    0 -0.00000000000E+00 -0.00000000000E+00 -0.45593999997E+02  0.45594000000E+02  0.51100000000E-03 0.  1.
    9900012    2    1    2    0    0  0.59023621746E+01  0.12551052336E+02 -0.12582167407E+02  0.72461608713E+02  0.70000050047E+02 0.  0.
        -12    1    1    2    0    0 -0.59023621746E+01 -0.12551052336E+02  0.12582167407E+02  0.18726391287E+02  0.00000000000E+00 0.  1.
         11    1    3    3    0    0 -0.94323174380E+01  0.15762346786E+02  0.26977296685E+01  0.18566042499E+02  0.51100000000E-03 0. -1.
        -11    1    3    3    0    0 -0.16796275814E+02 -0.13096077179E+01 -0.13622573773E+02  0.21665744161E+02  0.51100000000E-03 0.  1.
        -12    1    3    3    0    0  0.32130955426E+02 -0.19016867317E+01 -0.16573233029E+01  0.32229822053E+02  0.00000000000E+00 0.  1.
</event>
<event>
 7    1  0.3440346E-013  0.7246157E+02  0.7816164E-02  0.1226708E+00
        -11   -1    0    0    0    0  0.00000000000E+00  0.00000000000E+00  0.45593999997E+02  0.45594000000E+02  0.51100000000E-03 0.  1.
         11   -1    0    0    0    0 -0.00000000000E+00 -0.00000000000E+00 -0.45593999997E+02  0.45594000000E+02  0.51100000000E-03 0. -1.
    9900012    2    1    2    0    0 -0.33387367922E+01 -0.11909059675E+02 -0.14060806862E+02  0.72461570674E+02  0.70000000494E+02 0.  0.
        -12    1    1    2    0    0  0.33387367922E+01  0.11909059675E+02  0.14060806862E+02  0.18726429326E+02  0.00000000000E+00 0.  1.
         11    1    3    3    0    0  0.10327482756E+02  0.75446500610E+01  0.37737612419E+00  0.12795352970E+02  0.51100000000E-03 0. -1.
        -11    1    3    3    0    0  0.13727499392E+02  0.10510704542E+02 -0.39663199913E+01  0.17738400268E+02  0.51100000000E-03 0.  1.
        -12    1    3    3    0    0 -0.27393718940E+02 -0.29964414278E+02 -0.10471862995E+02  0.41927817436E+02  0.00000000000E+00 0.  1.
</event>
<event>
 7    1  0.3440346E-013  0.7246159E+02  0.7816164E-02  0.1226708E+00
        -11   -1    0    0    0    0  0.00000000000E+00  0.00000000000E+00  0.45593999997E+02  0.45594000000E+02  0.51100000000E-03 0. -1.
         11   -1    0    0    0    0 -0.00000000000E+00 -0.00000000000E+00 -0.45593999997E+02  0.45594000000E+02  0.51100000000E-03 0.  1.
    9900012    2    1    2    0    0 -0.45805723463E+01 -0.16874773882E+02  0.67036507817E+01  0.72461586291E+02  0.70000020839E+02 0.  0.
        -12    1    1    2    0    0  0.45805723463E+01  0.16874773882E+02 -0.67036507817E+01  0.18726413709E+02  0.00000000000E+00 0.  1.
         11    1    3    3    0    0  0.15359247295E+02 -0.16828329430E+02  0.32131535204E+01  0.23009204781E+02  0.51100000000E-03 0. -1.
        -11    1    3    3    0    0 -0.63879773783E+01  0.18818112111E+02 -0.10357551214E+02  0.22409963540E+02  0.51100000000E-03 0.  1.
        -12    1    3    3    0    0 -0.13551842263E+02 -0.18864556564E+02  0.13848048476E+02  0.27042417970E+02  0.00000000000E+00 0.  1.
</event>
<event>
 7    1  0.5305766E-013  0.7246156E+02  0.7816164E-02  0.1226708E+00
        -11   -1    0    0    0    0  0.00000000000E+00  0.00000000000E+00  0.45593999997E+02  0.45594000000E+02  0.51100000000E-03 0. -1.
         11   -1    0    0    0    0 -0.00000000000E+00 -0.00000000000E+00 -0.45593999997E+02  0.45594000000E+02  0.51100000000E-03 0.  1.
    9900012    2    1    2    0    0  0.16940864295E+01 -0.44414794117E+01  0.18113053435E+02  0.72461564863E+02  0.69999992925E+02 0.  0.
        -12    1    1    2    0    0 -0.16940864295E+01  0.44414794117E+01 -0.18113053435E+02  0.18726435137E+02  0.00000000000E+00 0.  1.
         11    1    3    3    0    0  0.10190255831E+01  0.17991947395E+02  0.24342576291E+02  0.30287119457E+02  0.51100000000E-03 0.  1.
        -11    1    3    3    0    0  0.17055914687E+01 -0.25073601322E+01  0.13665441735E+02  0.13997863950E+02  0.51100000000E-03 0. -1.
        -12    1    3    3    0    0 -0.10305306224E+01 -0.19926066675E+02 -0.19894964591E+02  0.28176581457E+02  0.00000000000E+00 0.  1.
</event>
<event>
 7    1  0.3440346E-013  0.7246153E+02  0.7816164E-02  0.1226708E+00
        -11   -1    0    0    0    0  0.00000000000E+00  0.00000000000E+00  0.45593999997E+02  0.45594000000E+02  0.51100000000E-03 0. -1.
         11   -1    0    0    0    0 -0.00000000000E+00 -0.00000000000E+00 -0.45593999997E+02  0.45594000000E+02  0.51100000000E-03 0.  1.
    9900012    2    1    2    0    0  0.91664376868E+01 -0.13658277987E+02  0.89503285927E+01  0.72461534254E+02  0.69999953050E+02 0.  0.
        -12    1    1    2    0    0 -0.91664376868E+01  0.13658277987E+02 -0.89503285927E+01  0.18726465746E+02  0.00000000000E+00 0.  1.
         11    1    3    3    0    0  0.27215882973E+02 -0.14308666608E+02  0.51624784478E+01  0.31178412565E+02  0.51100000000E-03 0. -1.
        -11    1    3    3    0    0  0.28017065422E+01 -0.10707589680E+02  0.11843192677E+02  0.16209973761E+02  0.51100000000E-03 0.  1.
        -12    1    3    3    0    0 -0.20851151828E+02  0.11357978301E+02 -0.80553425320E+01  0.25073147927E+02  0.00000000000E+00 0.  1.
</event>
<event>
 7    1  0.3440346E-013  0.7246152E+02  0.7816164E-02  0.1226708E+00
        -11   -1    0    0    0    0  0.00000000000E+00  0.00000000000E+00  0.45593999997E+02  0.45594000000E+02  0.51100000000E-03 0.  1.
         11   -1    0    0    0    0 -0.00000000000E+00 -0.00000000000E+00 -0.45593999997E+02  0.45594000000E+02  0.51100000000E-03 0. -1.
    9900012    2    1    2    0    0 -0.14515220768E+02  0.96022409654E+01 -0.69127569504E+01  0.72461524780E+02  0.69999940709E+02 0.  0.
        -12    1    1    2    0    0  0.14515220768E+02 -0.96022409654E+01  0.69127569504E+01  0.18726475220E+02  0.00000000000E+00 0.  1.
         11    1    3    3    0    0 -0.24321821401E+01  0.27801627412E+01  0.62375460755E+01  0.72492617648E+01  0.51100000000E-03 0. -1.
        -11    1    3    3    0    0 -0.28072096819E+02  0.18498463849E+02 -0.25217735833E+02  0.42025825220E+02  0.51100000000E-03 0.  1.
         12    1    3    3    0    0  0.15989058191E+02 -0.11676385625E+02  0.12067432807E+02  0.23186437796E+02  0.00000000000E+00 0. -1.
</event>
<event>
 7    1  0.3440346E-013  0.7246173E+02  0.7816164E-02  0.1226708E+00
        -11   -1    0    0    0    0  0.00000000000E+00  0.00000000000E+00  0.45593999997E+02  0.45594000000E+02  0.51100000000E-03 0.  1.
         11   -1    0    0    0    0 -0.00000000000E+00 -0.00000000000E+00 -0.45593999997E+02  0.45594000000E+02  0.51100000000E-03 0. -1.
    9900012    2    1    2    0    0 -0.26500035478E+01  0.13832790110E+02 -0.12341180507E+02  0.72461726015E+02  0.70000202855E+02 0.  0.
        -12    1    1    2    0    0  0.26500035478E+01 -0.13832790110E+02  0.12341180507E+02  0.18726273985E+02  0.00000000000E+00 0.  1.
         11    1    3    3    0    0 -0.21530799808E+02  0.44497104696E+01 -0.62403943387E+01  0.22854272804E+02  0.51100000000E-03 0. -1.
        -11    1    3    3    0    0 -0.43094095254E+01  0.13304293092E+02  0.13163521742E+02  0.19205559873E+02  0.51100000000E-03 0.  1.
         12    1    3    3    0    0  0.23190205786E+02 -0.39212134508E+01 -0.19264307910E+02  0.30401893338E+02  0.00000000000E+00 0. -1.
</event>
<event>
 7    1  0.3440346E-013  0.7246155E+02  0.7816164E-02  0.1226708E+00
        -11   -1    0    0    0    0  0.00000000000E+00  0.00000000000E+00  0.45593999997E+02  0.45594000000E+02  0.51100000000E-03 0.  1.
         11   -1    0    0    0    0 -0.00000000000E+00 -0.00000000000E+00 -0.45593999997E+02  0.45594000000E+02  0.51100000000E-03 0. -1.
    9900012    2    1    2    0    0  0.69432787150E-01 -0.16445067911E+02  0.89573903180E+01  0.72461550235E+02  0.69999973869E+02 0.  0.
        -12    1    1    2    0    0 -0.69432787150E-01  0.16445067911E+02 -0.89573903180E+01  0.18726449765E+02  0.00000000000E+00 0.  1.
         11    1    3    3    0    0  0.16514331156E+02 -0.22245496992E+02  0.59522423730E+01  0.28337509761E+02  0.51100000000E-03 0. -1.
        -11    1    3    3    0    0 -0.11288901005E+02 -0.88289295900E+01 -0.14737636975E+02  0.20556926508E+02  0.51100000000E-03 0.  1.
        -12    1    3    3    0    0 -0.51559973643E+01  0.14629358671E+02  0.17742784920E+02  0.23567113965E+02  0.00000000000E+00 0.  1.
</event>
<event>
 7    1  0.3440346E-013  0.7246163E+02  0.7816164E-02  0.1226708E+00
        -11   -1    0    0    0    0  0.00000000000E+00  0.00000000000E+00  0.45593999997E+02  0.45594000000E+02  0.51100000000E-03 0.  1.
         11   -1    0    0    0    0 -0.00000000000E+00 -0.00000000000E+00 -0.45593999997E+02  0.45594000000E+02  0.51100000000E-03 0. -1.
    9900012    2    1    2    0    0  0.71074467903E+01 -0.16871607533E+02 -0.39382898531E+01  0.72461626416E+02  0.70000073109E+02 0.  0.
        -12    1    1    2    0    0 -0.71074467903E+01  0.16871607533E+02  0.39382898531E+01  0.18726373584E+02  0.00000000000E+00 0.  1.
         11    1    3    3    0    0  0.16261715385E+02  0.71569085445E+01  0.26366729899E+00  0.17768912400E+02  0.51100000000E-03 0. -1.
        -11    1    3    3    0    0  0.13156253061E+02  0.22755177359E+01  0.10709425988E+02  0.17115980276E+02  0.51100000000E-03 0.  1.
         12    1    3    3    0    0 -0.22310521655E+02 -0.26304033813E+02 -0.14911383140E+02  0.37576733740E+02  0.00000000000E+00 0. -1.
</event>
<event>
 7    1  0.3440346E-013  0.7246169E+02  0.7816164E-02  0.1226708E+00
        -11   -1    0    0    0    0  0.00000000000E+00  0.00000000000E+00  0.45593999997E+02  0.45594000000E+02  0.51100000000E-03 0.  1.
         11   -1    0    0    0    0 -0.00000000000E+00 -0.00000000000E+00 -0.45593999997E+02  0.45594000000E+02  0.51100000000E-03 0. -1.
    9900012    2    1    2    0    0  0.86877697410E+01 -0.15876630306E+02  0.48093531450E+01  0.72461692019E+02  0.70000158568E+02 0.  0.
        -12    1    1    2    0    0 -0.86877697410E+01  0.15876630306E+02 -0.48093531450E+01  0.18726307981E+02  0.00000000000E+00 0.  1.
         11    1    3    3    0    0  0.31208053134E+01  0.11934302386E+02  0.83097661767E+01  0.14873439865E+02  0.51100000000E-03 0. -1.
        -11    1    3    3    0    0 -0.18522387679E+02  0.23572550017E+01  0.11283239030E+01  0.18705844316E+02  0.51100000000E-03 0.  1.
         12    1    3    3    0    0  0.24089352107E+02 -0.30168187693E+02 -0.46287369347E+01  0.38882407838E+02  0.00000000000E+00 0. -1.
</event>
<event>
 7    1  0.3440346E-013  0.7246161E+02  0.7816164E-02  0.1226708E+00
        -11   -1    0    0    0    0  0.00000000000E+00  0.00000000000E+00  0.45593999997E+02  0.45594000000E+02  0.51100000000E-03 0.  1.
         11   -1    0    0    0    0 -0.00000000000E+00 -0.00000000000E+00 -0.45593999997E+02  0.45594000000E+02  0.51100000000E-03 0. -1.
    9900012    2    1    2    0    0  0.12942177143E+02 -0.69698268392E+01 -0.11601685290E+02  0.72461613885E+02  0.70000056785E+02 0.  0.
        -12    1    1    2    0    0 -0.12942177143E+02  0.69698268392E+01  0.11601685290E+02  0.18726386115E+02  0.00000000000E+00 0.  1.
         11    1    3    3    0    0 -0.16143995624E+02 -0.51864923877E+01  0.19450926864E+02  0.25804396024E+02  0.51100000000E-03 0. -1.
        -11    1    3    3    0    0  0.13942406845E+01 -0.32136207111E+01  0.15729483493E+01  0.38399781161E+01  0.51100000000E-03 0.  1.
         12    1    3    3    0    0  0.27691932083E+02  0.14302862596E+01 -0.32625560503E+02  0.42817239745E+02  0.00000000000E+00 0. -1.
</event>
<event>
 7    1  0.3440346E-013  0.7246146E+02  0.7816164E-02  0.1226708E+00
        -11   -1    0    0    0    0  0.00000000000E+00  0.00000000000E+00  0.45593999997E+02  0.45594000000E+02  0.51100000000E-03 0. -1.
         11   -1    0    0    0    0 -0.00000000000E+00 -0.00000000000E+00 -0.45593999997E+02  0.45594000000E+02  0.51100000000E-03 0.  1.
    9900012    2    1    2    0    0  0.16139225797E+01  0.13376943766E+02 -0.13005222961E+02  0.72461462816E+02  0.69999859990E+02 0.  0.
        -12    1    1    2    0    0 -0.16139225797E+01 -0.13376943766E+02  0.13005222961E+02  0.18726537184E+02  0.00000000000E+00 0.  1.
         11    1    3    3    0    0 -0.20801299019E+02 -0.20503125966E+01  0.11678762829E+02  0.23943502753E+02  0.51100000000E-03 0. -1.
        -11    1    3    3    0    0 -0.61460198698E+01  0.37866986589E+01 -0.14222590596E+02  0.15949756440E+02  0.51100000000E-03 0.  1.
         12    1    3    3    0    0  0.28561241468E+02  0.11640557704E+02 -0.10461395194E+02  0.32568203624E+02  0.00000000000E+00 0. -1.
</event>
<event>
 7    1  0.3440346E-013  0.7246161E+02  0.7816164E-02  0.1226708E+00
        -11   -1    0    0    0    0  0.00000000000E+00  0.00000000000E+00  0.45593999997E+02  0.45594000000E+02  0.51100000000E-03 0. -1.
         11   -1    0    0    0    0 -0.00000000000E+00 -0.00000000000E+00 -0.45593999997E+02  0.45594000000E+02  0.51100000000E-03 0.  1.
    9900012    2    1    2    0    0 -0.32774215898E+01 -0.17866301358E+02 -0.45531778320E+01  0.72461611003E+02  0.70000053030E+02 0.  0.
        -12    1    1    2    0    0  0.32774215898E+01  0.17866301358E+02  0.45531778320E+01  0.18726388997E+02  0.00000000000E+00 0.  1.
         11    1    3    3    0    0  0.10652176391E+02 -0.38719753010E+01  0.76540121334E+01  0.13676438008E+02  0.51100000000E-03 0. -1.
        -11    1    3    3    0    0  0.83414059449E+01  0.16338547956E+02  0.22304174048E+01  0.18479771765E+02  0.51100000000E-03 0.  1.
         12    1    3    3    0    0 -0.22271003925E+02 -0.30332874013E+02 -0.14437607370E+02  0.40305401230E+02  0.00000000000E+00 0. -1.
</event>
<event>
 7    1  0.3440346E-013  0.7246152E+02  0.7816164E-02  0.1226708E+00
        -11   -1    0    0    0    0  0.00000000000E+00  0.00000000000E+00  0.45593999997E+02  0.45594000000E+02  0.51100000000E-03 0.  1.
         11   -1    0    0    0    0 -0.00000000000E+00 -0.00000000000E+00 -0.45593999997E+02  0.45594000000E+02  0.51100000000E-03 0. -1.
    9900012    2    1    2    0    0  0.12603572898E+01 -0.18508735508E+02  0.25532543506E+01  0.72461524133E+02  0.69999939867E+02 0.  0.
        -12    1    1    2    0    0 -0.12603572898E+01  0.18508735508E+02 -0.25532543506E+01  0.18726475867E+02  0.00000000000E+00 0.  1.
         11    1    3    3    0    0  0.85814486532E+00 -0.10243126796E+01  0.18057278555E+01  0.22463932035E+01  0.51100000000E-03 0. -1.
        -11    1    3    3    0    0  0.19958025029E+02 -0.32613214440E+02 -0.14809562648E+02  0.41003264080E+02  0.51100000000E-03 0.  1.
         12    1    3    3    0    0 -0.19555812604E+02  0.15128791611E+02  0.15557089143E+02  0.29211866850E+02  0.00000000000E+00 0. -1.
</event>
<event>
 7    1  0.3440346E-013  0.7246157E+02  0.7816164E-02  0.1226708E+00
        -11   -1    0    0    0    0  0.00000000000E+00  0.00000000000E+00  0.45593999997E+02  0.45594000000E+02  0.51100000000E-03 0. -1.
         11   -1    0    0    0    0 -0.00000000000E+00 -0.00000000000E+00 -0.45593999997E+02  0.45594000000E+02  0.51100000000E-03 0.  1.
    9900012    2    1    2    0    0 -0.51735639426E+01 -0.15101580220E+02  0.97906004914E+01  0.72461565556E+02  0.69999993828E+02 0.  0.
        -12    1    1    2    0    0  0.51735639426E+01  0.15101580220E+02 -0.97906004914E+01  0.18726434444E+02  0.00000000000E+00 0.  1.
         11    1    3    3    0    0  0.11939240903E+01 -0.47299189771E+01  0.70777598075E+01  0.85960614479E+01  0.51100000000E-03 0. -1.
        -11    1    3    3    0    0 -0.33364657773E+01 -0.33495239710E+02 -0.12626974154E+02  0.35951405586E+02  0.51100000000E-03 0.  1.
         12    1    3    3    0    0 -0.30310222556E+01  0.23123578467E+02  0.15339814838E+02  0.27914098522E+02  0.00000000000E+00 0. -1.
</event>
<event>
 7    1  0.3440346E-013  0.7246157E+02  0.7816164E-02  0.1226708E+00
        -11   -1    0    0    0    0  0.00000000000E+00  0.00000000000E+00  0.45593999997E+02  0.45594000000E+02  0.51100000000E-03 0. -1.
         11   -1    0    0    0    0 -0.00000000000E+00 -0.00000000000E+00 -0.45593999997E+02  0.45594000000E+02  0.51100000000E-03 0.  1.
    9900012    2    1    2    0    0 -0.80527192087E+01 -0.12023930736E+02  0.11885204808E+02  0.72461567068E+02  0.69999995798E+02 0.  0.
        -12    1    1    2    0    0  0.80527192087E+01  0.12023930736E+02 -0.11885204808E+02  0.18726432932E+02  0.00000000000E+00 0.  1.
         11    1    3    3    0    0 -0.54251509548E+01 -0.52372659456E+01  0.50720056291E+00  0.75576762393E+01  0.51100000000E-03 0. -1.
        -11    1    3    3    0    0 -0.16111196878E+01 -0.13247824669E+01 -0.26519463382E+02  0.26601366385E+02  0.51100000000E-03 0.  1.
         12    1    3    3    0    0 -0.10164485662E+01 -0.54618823240E+01  0.37897467627E+02  0.38302524444E+02  0.00000000000E+00 0. -1.
</event>
<event>
 7    1  0.3440346E-013  0.7246155E+02  0.7816164E-02  0.1226708E+00
        -11   -1    0    0    0    0  0.00000000000E+00  0.00000000000E+00  0.45593999997E+02  0.45594000000E+02  0.51100000000E-03 0.  1.
         11   -1    0    0    0    0 -0.00000000000E+00 -0.00000000000E+00 -0.45593999997E+02  0.45594000000E+02  0.51100000000E-03 0. -1.
    9900012    2    1    2    0    0 -0.12525589251E+02  0.13765604463E+02 -0.20731018486E+01  0.72461548024E+02  0.69999970989E+02 0.  0.
        -12    1    1    2    0    0  0.12525589251E+02 -0.13765604463E+02  0.20731018486E+01  0.18726451976E+02  0.00000000000E+00 0.  1.
         11    1    3    3    0    0  0.16189537464E+02 -0.11080459138E+02 -0.41940153722E+01  0.20061591742E+02  0.51100000000E-03 0. -1.
        -11    1    3    3    0    0 -0.37009823631E+01 -0.75896845157E+01  0.72369958341E+01  0.11120912304E+02  0.51100000000E-03 0.  1.
         12    1    3    3    0    0 -0.25014144352E+02  0.32435748117E+02 -0.51160823106E+01  0.41279043979E+02  0.00000000000E+00 0. -1.
</event>
<event>
 7    1  0.3440346E-013  0.7246173E+02  0.7816164E-02  0.1226708E+00
        -11   -1    0    0    0    0  0.00000000000E+00  0.00000000000E+00  0.45593999997E+02  0.45594000000E+02  0.51100000000E-03 0.  1.
         11   -1    0    0    0    0 -0.00000000000E+00 -0.00000000000E+00 -0.45593999997E+02  0.45594000000E+02  0.51100000000E-03 0. -1.
    9900012    2    1    2    0    0  0.87593849300E+01 -0.11991786667E+02 -0.11408046292E+02  0.72461727225E+02  0.70000204432E+02 0.  0.
        -12    1    1    2    0    0 -0.87593849300E+01  0.11991786667E+02  0.11408046292E+02  0.18726272775E+02  0.00000000000E+00 0.  1.
         11    1    3    3    0    0 -0.79662269875E+01  0.12622169254E+02 -0.21124712085E+02  0.25865679771E+02  0.51100000000E-03 0. -1.
        -11    1    3    3    0    0 -0.36757095640E+01 -0.18270060285E+02 -0.65390396254E+01  0.19750062863E+02  0.51100000000E-03 0.  1.
        -12    1    3    3    0    0  0.20401321481E+02 -0.63438956368E+01  0.16255705418E+02  0.26845984591E+02  0.00000000000E+00 0.  1.
</event>
<event>
 7    1  0.3440346E-013  0.7246156E+02  0.7816164E-02  0.1226708E+00
        -11   -1    0    0    0    0  0.00000000000E+00  0.00000000000E+00  0.45593999997E+02  0.45594000000E+02  0.51100000000E-03 0. -1.
         11   -1    0    0    0    0 -0.00000000000E+00 -0.00000000000E+00 -0.45593999997E+02  0.45594000000E+02  0.51100000000E-03 0.  1.
    9900012    2    1    2    0    0 -0.11164824250E+02 -0.10392176898E+02  0.10864105376E+02  0.72461563424E+02  0.69999991051E+02 0.  0.
        -12    1    1    2    0    0  0.11164824250E+02  0.10392176898E+02 -0.10864105376E+02  0.18726436576E+02  0.00000000000E+00 0.  1.
         11    1    3    3    0    0  0.17521380734E+02 -0.61135200575E+01  0.15834500706E+00  0.18557989755E+02  0.51100000000E-03 0. -1.
        -11    1    3    3    0    0  0.71641052836E+01 -0.13145746105E+02  0.77413310897E+01  0.16854176114E+02  0.51100000000E-03 0.  1.
        -12    1    3    3    0    0 -0.35850310268E+02  0.88670892645E+01  0.29644292791E+01  0.37049397556E+02  0.00000000000E+00 0.  1.
</event>
<event>
 7    1  0.3440346E-013  0.7246161E+02  0.7816164E-02  0.1226708E+00
        -11   -1    0    0    0    0  0.00000000000E+00  0.00000000000E+00  0.45593999997E+02  0.45594000000E+02  0.51100000000E-03 0.  1.
         11   -1    0    0    0    0 -0.00000000000E+00 -0.00000000000E+00 -0.45593999997E+02  0.45594000000E+02  0.51100000000E-03 0. -1.
    9900012    2    1    2    0    0 -0.11204913269E+02 -0.31271844388E+01 -0.14674752843E+02  0.72461608599E+02  0.70000049899E+02 0.  0.
        -12    1    1    2    0    0  0.11204913269E+02  0.31271844388E+01  0.14674752843E+02  0.18726391401E+02  0.00000000000E+00 0.  1.
         11    1    3    3    0    0  0.28902687835E+01  0.86684761837E+01 -0.12436593514E+02  0.15432595099E+02  0.51100000000E-03 0. -1.
        -11    1    3    3    0    0  0.16286379129E+02  0.90596436882E+01  0.53828349562E+01  0.19398407185E+02  0.51100000000E-03 0.  1.
        -12    1    3    3    0    0 -0.30381561182E+02 -0.20855304311E+02 -0.76209942857E+01  0.37630606315E+02  0.00000000000E+00 0.  1.
</event>
<event>
 7    1  0.3440346E-013  0.7246151E+02  0.7816164E-02  0.1226708E+00
        -11   -1    0    0    0    0  0.00000000000E+00  0.00000000000E+00  0.45593999997E+02  0.45594000000E+02  0.51100000000E-03 0.  1.
         11   -1    0    0    0    0 -0.00000000000E+00 -0.00000000000E+00 -0.45593999997E+02  0.45594000000E+02  0.51100000000E-03 0. -1.
    9900012    2    1    2    0    0  0.17829800650E+01 -0.13498499558E+02  0.12856630030E+02  0.72461509566E+02  0.69999920891E+02 0.  0.
        -12    1    1    2    0    0 -0.17829800650E+01  0.13498499558E+02 -0.12856630030E+02  0.18726490434E+02  0.00000000000E+00 0.  1.
         11    1    3    3    0    0 -0.13045551165E+02 -0.24031275086E+02  0.79052361830E+01  0.28463684702E+02  0.51100000000E-03 0. -1.
        -11    1    3    3    0    0 -0.96631708412E+01 -0.63282693194E+01  0.80840689602E+01  0.14098795498E+02  0.51100000000E-03 0.  1.
         12    1    3    3    0    0  0.24491702071E+02  0.16861044847E+02 -0.31326751132E+01  0.29899029366E+02  0.00000000000E+00 0. -1.
</event>
<event>
 7    1  0.3440346E-013  0.7246160E+02  0.7816164E-02  0.1226708E+00
        -11   -1    0    0    0    0  0.00000000000E+00  0.00000000000E+00  0.45593999997E+02  0.45594000000E+02  0.51100000000E-03 0.  1.
         11   -1    0    0    0    0 -0.00000000000E+00 -0.00000000000E+00 -0.45593999997E+02  0.45594000000E+02  0.51100000000E-03 0. -1.
    9900012    2    1    2    0    0 -0.15354167492E+02  0.10363468762E+02  0.27433770684E+01  0.72461599869E+02  0.70000038526E+02 0.  0.
        -12    1    1    2    0    0  0.15354167492E+02 -0.10363468762E+02 -0.27433770684E+01  0.18726400131E+02  0.00000000000E+00 0.  1.
         11    1    3    3    0    0  0.98876543727E+01  0.10665482907E+00  0.15232313196E+01  0.10004864725E+02  0.51100000000E-03 0. -1.
        -11    1    3    3    0    0 -0.19764513382E+02 -0.34078234346E+01  0.26481199776E+02  0.33219018523E+02  0.51100000000E-03 0.  1.
         12    1    3    3    0    0 -0.54773084825E+01  0.13664637367E+02 -0.25261054028E+02  0.29237716620E+02  0.00000000000E+00 0. -1.
</event>
<event>
 7    1  0.3440346E-013  0.7246121E+02  0.7816164E-02  0.1226709E+00
        -11   -1    0    0    0    0  0.00000000000E+00  0.00000000000E+00  0.45593999997E+02  0.45594000000E+02  0.51100000000E-03 0.  1.
         11   -1    0    0    0    0 -0.00000000000E+00 -0.00000000000E+00 -0.45593999997E+02  0.45594000000E+02  0.51100000000E-03 0. -1.
    9900012    2    1    2    0    0  0.17065733867E+01  0.10590064731E+02  0.15350264733E+02  0.72461214608E+02  0.69999536651E+02 0.  0.
        -12    1    1    2    0    0 -0.17065733867E+01 -0.10590064731E+02 -0.15350264733E+02  0.18726785392E+02  0.00000000000E+00 0.  1.
         11    1    3    3    0    0 -0.11268708772E+01 -0.16904107348E+02  0.15062416563E+02  0.22669253984E+02  0.51100000000E-03 0. -1.
        -11    1    3    3    0    0 -0.77550678746E+00  0.19005954293E+01  0.18219041610E+02  0.18334316219E+02  0.51100000000E-03 0.  1.
         12    1    3    3    0    0  0.36089510514E+01  0.25593576649E+02 -0.17931193439E+02  0.31457644406E+02  0.00000000000E+00 0. -1.
</event>
<event>
 7    1  0.3440346E-013  0.7246143E+02  0.7816164E-02  0.1226708E+00
        -11   -1    0    0    0    0  0.00000000000E+00  0.00000000000E+00  0.45593999997E+02  0.45594000000E+02  0.51100000000E-03 0. -1.
         11   -1    0    0    0    0 -0.00000000000E+00 -0.00000000000E+00 -0.45593999997E+02  0.45594000000E+02  0.51100000000E-03 0.  1.
    9900012    2    1    2    0    0 -0.17977894217E+02 -0.19602652383E+01 -0.48618179357E+01  0.72461425462E+02  0.69999811329E+02 0.  0.
        -12    1    1    2    0    0  0.17977894217E+02  0.19602652383E+01  0.48618179357E+01  0.18726574538E+02  0.00000000000E+00 0.  1.
         11    1    3    3    0    0 -0.80247821373E+01  0.25250855818E+02  0.74880596779E+01  0.27533141592E+02  0.51100000000E-03 0. -1.
        -11    1    3    3    0    0 -0.74009640749E+01  0.42363464824E+01  0.39700593414E+01  0.94065015916E+01  0.51100000000E-03 0.  1.
        -12    1    3    3    0    0 -0.25521480046E+01 -0.31447467539E+02 -0.16319936955E+02  0.35521782279E+02  0.00000000000E+00 0.  1.
</event>
<event>
 7    1  0.3440346E-013  0.7246175E+02  0.7816164E-02  0.1226708E+00
        -11   -1    0    0    0    0  0.00000000000E+00  0.00000000000E+00  0.45593999997E+02  0.45594000000E+02  0.51100000000E-03 0. -1.
         11   -1    0    0    0    0 -0.00000000000E+00 -0.00000000000E+00 -0.45593999997E+02  0.45594000000E+02  0.51100000000E-03 0.  1.
    9900012    2    1    2    0    0  0.17946398617E+01  0.11864035583E+02  0.14376938996E+02  0.72461749776E+02  0.70000233808E+02 0.  0.
        -12    1    1    2    0    0 -0.17946398617E+01 -0.11864035583E+02 -0.14376938996E+02  0.18726250224E+02  0.00000000000E+00 0.  1.
         11    1    3    3    0    0  0.16111963694E+02 -0.15717513806E+02  0.13047470911E+02  0.26016765974E+02  0.51100000000E-03 0. -1.
        -11    1    3    3    0    0  0.11198907938E+02  0.93616351121E+01 -0.26660287118E+01  0.14837906198E+02  0.51100000000E-03 0.  1.
        -12    1    3    3    0    0 -0.25516231771E+02  0.18219914277E+02  0.39954967974E+01  0.31607077604E+02  0.00000000000E+00 0.  1.
</event>
<event>
 7    1  0.3440346E-013  0.7246150E+02  0.7816164E-02  0.1226708E+00
        -11   -1    0    0    0    0  0.00000000000E+00  0.00000000000E+00  0.45593999997E+02  0.45594000000E+02  0.51100000000E-03 0.  1.
         11   -1    0    0    0    0 -0.00000000000E+00 -0.00000000000E+00 -0.45593999997E+02  0.45594000000E+02  0.51100000000E-03 0. -1.
    9900012    2    1    2    0    0  0.20472965138E+01  0.11242904499E+02 -0.14835349839E+02  0.72461496604E+02  0.69999904005E+02 0.  0.
        -12    1    1    2    0    0 -0.20472965138E+01 -0.11242904499E+02  0.14835349839E+02  0.18726503396E+02  0.00000000000E+00 0.  1.
         11    1    3    3    0    0 -0.94174397622E+01  0.14469721199E+02 -0.64648170180E+01  0.18435152904E+02  0.51100000000E-03 0. -1.
        -11    1    3    3    0    0  0.49246229179E+01  0.14802161970E+02  0.16442678636E+02  0.22665338975E+02  0.51100000000E-03 0.  1.
         12    1    3    3    0    0  0.65401133581E+01 -0.18028978670E+02 -0.24813211456E+02  0.31361004726E+02  0.00000000000E+00 0. -1.
</event>
<event>
 7    1  0.3440346E-013  0.7246157E+02  0.7816164E-02  0.1226708E+00
        -11   -1    0    0    0    0  0.00000000000E+00  0.00000000000E+00  0.45593999997E+02  0.45594000000E+02  0.51100000000E-03 0.  1.
         11   -1    0    0    0    0 -0.00000000000E+00 -0.00000000000E+00 -0.45593999997E+02  0.45594000000E+02  0.51100000000E-03 0. -1.
    9900012    2    1    2    0    0  0.96789758180E+01  0.69021690063E+01 -0.14469161639E+02  0.72461570858E+02  0.70000000734E+02 0.  0.
        -12    1    1    2    0    0 -0.96789758180E+01 -0.69021690063E+01  0.14469161639E+02  0.18726429142E+02  0.00000000000E+00 0.  1.
         11    1    3    3    0    0  0.96240604655E+01  0.21268937897E+01 -0.39931022915E+02  0.41129463993E+02  0.51100000000E-03 0. -1.
        -11    1    3    3    0    0  0.86121194187E+01  0.41513284073E+01  0.15191193804E+02  0.17949219980E+02  0.51100000000E-03 0.  1.
        -12    1    3    3    0    0 -0.85572040662E+01  0.62394680938E+00  0.10270667473E+02  0.13382886885E+02  0.00000000000E+00 0.  1.
</event>
<event>
 7    1  0.3440346E-013  0.7246168E+02  0.7816164E-02  0.1226708E+00
        -11   -1    0    0    0    0  0.00000000000E+00  0.00000000000E+00  0.45593999997E+02  0.45594000000E+02  0.51100000000E-03 0.  1.
         11   -1    0    0    0    0 -0.00000000000E+00 -0.00000000000E+00 -0.45593999997E+02  0.45594000000E+02  0.51100000000E-03 0. -1.
    9900012    2    1    2    0    0  0.69722117887E+01  0.69465350207E+01 -0.15931388364E+02  0.72461675715E+02  0.70000137330E+02 0.  0.
        -12    1    1    2    0    0 -0.69722117887E+01 -0.69465350207E+01  0.15931388364E+02  0.18726324285E+02  0.00000000000E+00 0.  1.
         11    1    3    3    0    0 -0.19755654123E+02  0.16989760779E+02 -0.81980255305E+01  0.27315663345E+02  0.51100000000E-03 0. -1.
        -11    1    3    3    0    0  0.16445210939E+01  0.78770527440E+01  0.72854612339E+01  0.10854969148E+02  0.51100000000E-03 0.  1.
        -12    1    3    3    0    0  0.25083344818E+02 -0.17920278502E+02 -0.15018824068E+02  0.34291043221E+02  0.00000000000E+00 0.  1.
</event>
<event>
 7    1  0.3440346E-013  0.7246157E+02  0.7816164E-02  0.1226708E+00
        -11   -1    0    0    0    0  0.00000000000E+00  0.00000000000E+00  0.45593999997E+02  0.45594000000E+02  0.51100000000E-03 0.  1.
         11   -1    0    0    0    0 -0.00000000000E+00 -0.00000000000E+00 -0.45593999997E+02  0.45594000000E+02  0.51100000000E-03 0. -1.
    9900012    2    1    2    0    0  0.55101698095E+01  0.78847421370E+01 -0.16066990550E+02  0.72461566404E+02  0.69999994932E+02 0.  0.
        -12    1    1    2    0    0 -0.55101698095E+01 -0.78847421370E+01  0.16066990550E+02  0.18726433596E+02  0.00000000000E+00 0.  1.
         11    1    3    3    0    0  0.37083887118E+01 -0.18984441275E+01 -0.32426964674E+02  0.32693489798E+02  0.51100000000E-03 0. -1.
        -11    1    3    3    0    0  0.13114175863E+02  0.16389202364E+02  0.32598575021E+01  0.21241803923E+02  0.51100000000E-03 0.  1.
        -12    1    3    3    0    0 -0.11312394766E+02 -0.66060160997E+01  0.13100116621E+02  0.18526272683E+02  0.00000000000E+00 0.  1.
</event>
<event>
 7    1  0.3440346E-013  0.7246155E+02  0.7816164E-02  0.1226708E+00
        -11   -1    0    0    0    0  0.00000000000E+00  0.00000000000E+00  0.45593999997E+02  0.45594000000E+02  0.51100000000E-03 0. -1.
         11   -1    0    0    0    0 -0.00000000000E+00 -0.00000000000E+00 -0.45593999997E+02  0.45594000000E+02  0.51100000000E-03 0.  1.
    9900012    2    1    2    0    0  0.13226293283E+02  0.44076042023E+01  0.12502728998E+02  0.72461547020E+02  0.69999969681E+02 0.  0.
        -12    1    1    2    0    0 -0.13226293283E+02 -0.44076042023E+01 -0.12502728998E+02  0.18726452980E+02  0.00000000000E+00 0.  1.
         11    1    3    3    0    0 -0.59404486640E+01 -0.20665170824E+02  0.20686554069E+02  0.29837421722E+02  0.51100000000E-03 0. -1.
        -11    1    3    3    0    0  0.67853126820E+00 -0.57456679725E+01 -0.94971509934E-01  0.57863740789E+01  0.51100000000E-03 0.  1.
         12    1    3    3    0    0  0.18488210679E+02  0.30818442999E+02 -0.80888535616E+01  0.36837751219E+02  0.00000000000E+00 0. -1.
</event>
<event>
 7    1  0.3440346E-013  0.7246134E+02  0.7816164E-02  0.1226709E+00
        -11   -1    0    0    0    0  0.00000000000E+00  0.00000000000E+00  0.45593999997E+02  0.45594000000E+02  0.51100000000E-03 0. -1.
         11   -1    0    0    0    0 -0.00000000000E+00 -0.00000000000E+00 -0.45593999997E+02  0.45594000000E+02  0.51100000000E-03 0.  1.
    9900012    2    1    2    0    0  0.12682278324E+02 -0.13606964590E+02  0.21675046902E+01  0.72461341317E+02  0.69999701714E+02 0.  0.
        -12    1    1    2    0    0 -0.12682278324E+02  0.13606964590E+02 -0.21675046902E+01  0.18726658683E+02  0.00000000000E+00 0.  1.
         11    1    3    3    0    0 -0.74826990345E+01 -0.70608192840E+01 -0.78343042421E+01  0.12931445280E+02  0.51100000000E-03 0. -1.
        -11    1    3    3    0    0 -0.18003247201E+02  0.29683045470E+01 -0.21181786460E+01  0.18368843804E+02  0.51100000000E-03 0.  1.
         12    1    3    3    0    0  0.38168224560E+02 -0.95144498529E+01  0.12119987578E+02  0.41161052233E+02  0.00000000000E+00 0. -1.
</event>
<event>
 7    1  0.3440346E-013  0.7246109E+02  0.7816164E-02  0.1226709E+00
        -11   -1    0    0    0    0  0.00000000000E+00  0.00000000000E+00  0.45593999997E+02  0.45594000000E+02  0.51100000000E-03 0. -1.
         11   -1    0    0    0    0 -0.00000000000E+00 -0.00000000000E+00 -0.45593999997E+02  0.45594000000E+02  0.51100000000E-03 0.  1.
    9900012    2    1    2    0    0  0.97603165672E+01 -0.10748126009E+02  0.11828402249E+02  0.72461091767E+02  0.69999376627E+02 0.  0.
        -12    1    1    2    0    0 -0.97603165672E+01  0.10748126009E+02 -0.11828402249E+02  0.18726908233E+02  0.00000000000E+00 0.  1.
         11    1    3    3    0    0  0.90329476132E+01 -0.16834680512E+02 -0.49326987984E+01  0.19731500912E+02  0.51100000000E-03 0. -1.
        -11    1    3    3    0    0 -0.43119733137E+01 -0.13587060813E+01 -0.17104015681E+02  0.17691425854E+02  0.51100000000E-03 0.  1.
         12    1    3    3    0    0  0.50393422676E+01  0.74452605845E+01  0.33865116728E+02  0.35038165002E+02  0.00000000000E+00 0. -1.
</event>
<event>
 7    1  0.3440346E-013  0.7246153E+02  0.7816164E-02  0.1226708E+00
        -11   -1    0    0    0    0  0.00000000000E+00  0.00000000000E+00  0.45593999997E+02  0.45594000000E+02  0.51100000000E-03 0.  1.
         11   -1    0    0    0    0 -0.00000000000E+00 -0.00000000000E+00 -0.45593999997E+02  0.45594000000E+02  0.51100000000E-03 0. -1.
    9900012    2    1    2    0    0 -0.68382113140E+01 -0.15219952446E+02  0.85013198369E+01  0.72461534092E+02  0.69999952840E+02 0.  0.
        -12    1    1    2    0    0  0.68382113140E+01  0.15219952446E+02 -0.85013198369E+01  0.18726465908E+02  0.00000000000E+00 0.  1.
         11    1    3    3    0    0  0.12442177307E+02 -0.12832046884E+01 -0.56789337671E+01  0.13736982180E+02  0.51100000000E-03 0. -1.
        -11    1    3    3    0    0 -0.79148639410E+00  0.16960687269E+02  0.15076390952E+02  0.22706583357E+02  0.51100000000E-03 0.  1.
         12    1    3    3    0    0 -0.18488902227E+02 -0.30897435026E+02 -0.89613734831E+00  0.36017968556E+02  0.00000000000E+00 0. -1.
</event>
<event>
 7    1  0.3440346E-013  0.7246160E+02  0.7816164E-02  0.1226708E+00
        -11   -1    0    0    0    0  0.00000000000E+00  0.00000000000E+00  0.45593999997E+02  0.45594000000E+02  0.51100000000E-03 0.  1.
         11   -1    0    0    0    0 -0.00000000000E+00 -0.00000000000E+00 -0.45593999997E+02  0.45594000000E+02  0.51100000000E-03 0. -1.
    9900012    2    1    2    0    0 -0.14819183907E+02  0.32590917690E+01 -0.10974880818E+02  0.72461604196E+02  0.70000044164E+02 0.  0.
        -12    1    1    2    0    0  0.14819183907E+02 -0.32590917690E+01  0.10974880818E+02  0.18726395804E+02  0.00000000000E+00 0.  1.
         11    1    3    3    0    0  0.18640682059E+02  0.10947643369E+02  0.96061681844E+01  0.23655958878E+02  0.51100000000E-03 0. -1.
        -11    1    3    3    0    0 -0.52383977431E+01 -0.17206057799E+01  0.69899977852E+01  0.89028851764E+01  0.51100000000E-03 0.  1.
        -12    1    3    3    0    0 -0.28221468223E+02 -0.59679458202E+01 -0.27571046788E+02  0.39902760142E+02  0.00000000000E+00 0.  1.
</event>
<event>
 7    1  0.3440346E-013  0.7246154E+02  0.7816164E-02  0.1226708E+00
        -11   -1    0    0    0    0  0.00000000000E+00  0.00000000000E+00  0.45593999997E+02  0.45594000000E+02  0.51100000000E-03 0.  1.
         11   -1    0    0    0    0 -0.00000000000E+00 -0.00000000000E+00 -0.45593999997E+02  0.45594000000E+02  0.51100000000E-03 0. -1.
    9900012    2    1    2    0    0 -0.14937335788E+02 -0.33359009980E+01 -0.10790180908E+02  0.72461541714E+02  0.69999962769E+02 0.  0.
        -12    1    1    2    0    0  0.14937335788E+02  0.33359009980E+01  0.10790180908E+02  0.18726458286E+02  0.00000000000E+00 0.  1.
         11    1    3    3    0    0 -0.16646012500E+02  0.16766334802E+02 -0.53973583398E+01  0.24234916797E+02  0.51100000000E-03 0. -1.
        -11    1    3    3    0    0 -0.67898963894E-01  0.13738849986E+02 -0.40036384523E+01  0.14310476244E+02  0.51100000000E-03 0.  1.
        -12    1    3    3    0    0  0.17765756759E+01 -0.33841085786E+02 -0.13891841157E+01  0.33916148673E+02  0.00000000000E+00 0.  1.
</event>
<event>
 7    1  0.3440346E-013  0.7246157E+02  0.7816164E-02  0.1226708E+00
        -11   -1    0    0    0    0  0.00000000000E+00  0.00000000000E+00  0.45593999997E+02  0.45594000000E+02  0.51100000000E-03 0. -1.
         11   -1    0    0    0    0 -0.00000000000E+00 -0.00000000000E+00 -0.45593999997E+02  0.45594000000E+02  0.51100000000E-03 0.  1.
    9900012    2    1    2    0    0 -0.15869251465E+02  0.92347177925E+01 -0.36831859862E+01  0.72461574453E+02  0.70000005418E+02 0.  0.
        -12    1    1    2    0    0  0.15869251465E+02 -0.92347177925E+01  0.36831859862E+01  0.18726425547E+02  0.00000000000E+00 0.  1.
         11    1    3    3    0    0 -0.42536234441E+01 -0.19232043441E+02  0.43779053908E+01  0.20177484065E+02  0.51100000000E-03 0.  1.
        -11    1    3    3    0    0 -0.22677255656E+02  0.61939885622E+01  0.52359068799E+01  0.24083980973E+02  0.51100000000E-03 0. -1.
        -12    1    3    3    0    0  0.11061627635E+02  0.22272772671E+02 -0.13296998257E+02  0.28200109415E+02  0.00000000000E+00 0.  1.
</event>
<event>
 7    1  0.3440346E-013  0.7246156E+02  0.7816164E-02  0.1226708E+00
        -11   -1    0    0    0    0  0.00000000000E+00  0.00000000000E+00  0.45593999997E+02  0.45594000000E+02  0.51100000000E-03 0. -1.
         11   -1    0    0    0    0 -0.00000000000E+00 -0.00000000000E+00 -0.45593999997E+02  0.45594000000E+02  0.51100000000E-03 0.  1.
    9900012    2    1    2    0    0 -0.12023990515E+02 -0.13256815172E+02  0.55100127131E+01  0.72461555155E+02  0.69999980279E+02 0.  0.
        -12    1    1    2    0    0  0.12023990515E+02  0.13256815172E+02 -0.55100127131E+01  0.18726444845E+02  0.00000000000E+00 0.  1.
         11    1    3    3    0    0 -0.74632061292E+01 -0.31056537254E+01  0.22656139030E+02  0.24055044518E+02  0.51100000000E-03 0. -1.
        -11    1    3    3    0    0 -0.17008138948E+02  0.72601890382E+01  0.33252443164E+01  0.18789475389E+02  0.51100000000E-03 0.  1.
        -12    1    3    3    0    0  0.12447354562E+02 -0.17411350485E+02 -0.20471370633E+02  0.29617035248E+02  0.00000000000E+00 0.  1.
</event>
<event>
 7    1  0.3440346E-013  0.7246158E+02  0.7816164E-02  0.1226708E+00
        -11   -1    0    0    0    0  0.00000000000E+00  0.00000000000E+00  0.45593999997E+02  0.45594000000E+02  0.51100000000E-03 0. -1.
         11   -1    0    0    0    0 -0.00000000000E+00 -0.00000000000E+00 -0.45593999997E+02  0.45594000000E+02  0.51100000000E-03 0.  1.
    9900012    2    1    2    0    0 -0.12271760312E+02  0.54231566741E+01  0.13064157547E+02  0.72461576373E+02  0.70000007918E+02 0.  0.
        -12    1    1    2    0    0  0.12271760312E+02 -0.54231566741E+01 -0.13064157547E+02  0.18726423627E+02  0.00000000000E+00 0.  1.
         11    1    3    3    0    0 -0.18937458611E+02  0.11339977642E+01  0.46238834353E+01  0.19526740329E+02  0.51100000000E-03 0. -1.
        -11    1    3    3    0    0 -0.10516804779E+02  0.20570797184E+02  0.15980542905E+02  0.28091611405E+02  0.51100000000E-03 0.  1.
        -12    1    3    3    0    0  0.17182503079E+02 -0.16281638274E+02 -0.75402687931E+01  0.24843224638E+02  0.00000000000E+00 0.  1.
</event>
<event>
 7    1  0.3440346E-013  0.7246163E+02  0.7816164E-02  0.1226708E+00
        -11   -1    0    0    0    0  0.00000000000E+00  0.00000000000E+00  0.45593999997E+02  0.45594000000E+02  0.51100000000E-03 0. -1.
         11   -1    0    0    0    0 -0.00000000000E+00 -0.00000000000E+00 -0.45593999997E+02  0.45594000000E+02  0.51100000000E-03 0.  1.
    9900012    2    1    2    0    0 -0.56603946240E+01 -0.13588257197E+01  0.17798613095E+02  0.72461625478E+02  0.70000071887E+02 0.  0.
        -12    1    1    2    0    0  0.56603946240E+01  0.13588257197E+01 -0.17798613095E+02  0.18726374522E+02  0.00000000000E+00 0.  1.
         11    1    3    3    0    0 -0.23491697180E+02 -0.69596489472E+01 -0.65633529910E+01  0.25364821162E+02  0.51100000000E-03 0. -1.
        -11    1    3    3    0    0  0.64345097550E+01  0.16131439633E+02 -0.96518411363E+00  0.17394189865E+02  0.51100000000E-03 0.  1.
        -12    1    3    3    0    0  0.11396792801E+02 -0.10530616406E+02  0.25327150199E+02  0.29702614451E+02  0.00000000000E+00 0.  1.
</event>
<event>
 7    1  0.3440346E-013  0.7246161E+02  0.7816164E-02  0.1226708E+00
        -11   -1    0    0    0    0  0.00000000000E+00  0.00000000000E+00  0.45593999997E+02  0.45594000000E+02  0.51100000000E-03 0. -1.
         11   -1    0    0    0    0 -0.00000000000E+00 -0.00000000000E+00 -0.45593999997E+02  0.45594000000E+02  0.51100000000E-03 0.  1.
    9900012    2    1    2    0    0 -0.14019313727E+02  0.11763452903E+02  0.39696126252E+01  0.72461606702E+02  0.70000047427E+02 0.  0.
        -12    1    1    2    0    0  0.14019313727E+02 -0.11763452903E+02 -0.39696126252E+01  0.18726393298E+02  0.00000000000E+00 0.  1.
         11    1    3    3    0    0  0.45103471636E+01 -0.12708822234E+01  0.52334917091E+01  0.70247995625E+01  0.51100000000E-03 0. -1.
        -11    1    3    3    0    0 -0.35374614176E+02 -0.89955695911E+01  0.54460281074E+01  0.36904509518E+02  0.51100000000E-03 0.  1.
         12    1    3    3    0    0  0.16844953285E+02  0.22029904717E+02 -0.67099071913E+01  0.28532297621E+02  0.00000000000E+00 0. -1.
</event>
<event>
 7    1  0.3440346E-013  0.7246153E+02  0.7816164E-02  0.1226708E+00
        -11   -1    0    0    0    0  0.00000000000E+00  0.00000000000E+00  0.45593999997E+02  0.45594000000E+02  0.51100000000E-03 0. -1.
         11   -1    0    0    0    0 -0.00000000000E+00 -0.00000000000E+00 -0.45593999997E+02  0.45594000000E+02  0.51100000000E-03 0.  1.
    9900012    2    1    2    0    0 -0.17197963253E+02 -0.49837725883E+01 -0.54838541867E+01  0.72461532474E+02  0.69999950732E+02 0.  0.
        -12    1    1    2    0    0  0.17197963253E+02  0.49837725883E+01  0.54838541867E+01  0.18726467526E+02  0.00000000000E+00 0.  1.
         11    1    3    3    0    0  0.63477833792E+01 -0.14601736319E+01  0.17718714663E+01  0.67502584854E+01  0.51100000000E-03 0. -1.
        -11    1    3    3    0    0  0.12747582232E+02  0.16679193066E+02 -0.11536469063E+02  0.23953840043E+02  0.51100000000E-03 0.  1.
         12    1    3    3    0    0 -0.36293328864E+02 -0.20202792022E+02  0.42807434101E+01  0.41757433945E+02  0.00000000000E+00 0. -1.
</event>
<event>
 7    1  0.3440346E-013  0.7246153E+02  0.7816164E-02  0.1226708E+00
        -11   -1    0    0    0    0  0.00000000000E+00  0.00000000000E+00  0.45593999997E+02  0.45594000000E+02  0.51100000000E-03 0. -1.
         11   -1    0    0    0    0 -0.00000000000E+00 -0.00000000000E+00 -0.45593999997E+02  0.45594000000E+02  0.51100000000E-03 0.  1.
    9900012    2    1    2    0    0  0.15358922284E+02  0.63555513669E+01  0.86250391256E+01  0.72461526044E+02  0.69999942356E+02 0.  0.
        -12    1    1    2    0    0 -0.15358922284E+02 -0.63555513669E+01 -0.86250391256E+01  0.18726473956E+02  0.00000000000E+00 0.  1.
         11    1    3    3    0    0 -0.97424369723E+01  0.13334419199E+02 -0.20778408448E+02  0.26541742057E+02  0.51100000000E-03 0. -1.
        -11    1    3    3    0    0  0.64301190148E+01 -0.40174756371E+01 -0.32018945784E+01  0.82303505510E+01  0.51100000000E-03 0.  1.
         12    1    3    3    0    0  0.18671240241E+02 -0.29613921955E+01  0.32605342152E+02  0.37689433436E+02  0.00000000000E+00 0. -1.
</event>
<event>
 7    1  0.3440346E-013  0.7246153E+02  0.7816164E-02  0.1226708E+00
        -11   -1    0    0    0    0  0.00000000000E+00  0.00000000000E+00  0.45593999997E+02  0.45594000000E+02  0.51100000000E-03 0.  1.
         11   -1    0    0    0    0 -0.00000000000E+00 -0.00000000000E+00 -0.45593999997E+02  0.45594000000E+02  0.51100000000E-03 0. -1.
    9900012    2    1    2    0    0 -0.53909355042E+01 -0.16778450258E+02 -0.63326255919E+01  0.72461528748E+02  0.69999945878E+02 0.  0.
        -12    1    1    2    0    0  0.53909355042E+01  0.16778450258E+02  0.63326255919E+01  0.18726471252E+02  0.00000000000E+00 0.  1.
         11    1    3    3    0    0 -0.23939176313E+02  0.50380213277E+00  0.69926720323E+01  0.24944647553E+02  0.51100000000E-03 0. -1.
        -11    1    3    3    0    0  0.68426370679E+01  0.29539943584E+00  0.12441056565E+02  0.14201719318E+02  0.51100000000E-03 0.  1.
         12    1    3    3    0    0  0.11705603741E+02 -0.17577651826E+02 -0.25766354189E+02  0.33315161877E+02  0.00000000000E+00 0. -1.
</event>
<event>
 7    1  0.3440346E-013  0.7246153E+02  0.7816164E-02  0.1226708E+00
        -11   -1    0    0    0    0  0.00000000000E+00  0.00000000000E+00  0.45593999997E+02  0.45594000000E+02  0.51100000000E-03 0. -1.
         11   -1    0    0    0    0 -0.00000000000E+00 -0.00000000000E+00 -0.45593999997E+02  0.45594000000E+02  0.51100000000E-03 0.  1.
    9900012    2    1    2    0    0  0.24982813161E+01 -0.18540762390E+02  0.82424464180E+00  0.72461530531E+02  0.69999948201E+02 0.  0.
        -12    1    1    2    0    0 -0.24982813161E+01  0.18540762390E+02 -0.82424464180E+00  0.18726469469E+02  0.00000000000E+00 0.  1.
         11    1    3    3    0    0  0.94963001979E+01 -0.17962774841E+02 -0.36764783344E+01  0.20648425864E+02  0.51100000000E-03 0. -1.
        -11    1    3    3    0    0  0.16342060694E+02 -0.98473754062E+01 -0.11268953117E+02  0.22159040023E+02  0.51100000000E-03 0.  1.
         12    1    3    3    0    0 -0.23340079576E+02  0.92693878576E+01  0.15769676094E+02  0.29654064645E+02  0.00000000000E+00 0. -1.
</event>
<event>
 7    1  0.3440346E-013  0.7246158E+02  0.7816164E-02  0.1226708E+00
        -11   -1    0    0    0    0  0.00000000000E+00  0.00000000000E+00  0.45593999997E+02  0.45594000000E+02  0.51100000000E-03 0. -1.
         11   -1    0    0    0    0 -0.00000000000E+00 -0.00000000000E+00 -0.45593999997E+02  0.45594000000E+02  0.51100000000E-03 0.  1.
    9900012    2    1    2    0    0 -0.11971605549E+01 -0.18463479613E+02  0.28888511037E+01  0.72461581935E+02  0.70000015165E+02 0.  0.
        -12    1    1    2    0    0  0.11971605549E+01  0.18463479613E+02 -0.28888511037E+01  0.18726418065E+02  0.00000000000E+00 0.  1.
         11    1    3    3    0    0  0.26398190776E+02 -0.32962890305E+01  0.55742152851E+01  0.27180910101E+02  0.51100000000E-03 0. -1.
        -11    1    3    3    0    0 -0.87703173477E+01  0.99861656406E+01 -0.38636181994E+01  0.13840864006E+02  0.51100000000E-03 0.  1.
        -12    1    3    3    0    0 -0.18825033983E+02 -0.25153356224E+02  0.11782540181E+01  0.31439807829E+02  0.00000000000E+00 0.  1.
</event>
<event>
 7    1  0.3440346E-013  0.7246155E+02  0.7816164E-02  0.1226708E+00
        -11   -1    0    0    0    0  0.00000000000E+00  0.00000000000E+00  0.45593999997E+02  0.45594000000E+02  0.51100000000E-03 0. -1.
         11   -1    0    0    0    0 -0.00000000000E+00 -0.00000000000E+00 -0.45593999997E+02  0.45594000000E+02  0.51100000000E-03 0.  1.
    9900012    2    1    2    0    0 -0.14983986506E+02  0.10466415672E+02 -0.40760745274E+01  0.72461545660E+02  0.69999967909E+02 0.  0.
        -12    1    1    2    0    0  0.14983986506E+02 -0.10466415672E+02  0.40760745274E+01  0.18726454340E+02  0.00000000000E+00 0.  1.
         11    1    3    3    0    0  0.16490943583E+02  0.13589327858E+02  0.12255368725E+02  0.24633617572E+02  0.51100000000E-03 0. -1.
        -11    1    3    3    0    0 -0.20989635711E+01  0.11292019771E+02 -0.81951755762E+01  0.14109438740E+02  0.51100000000E-03 0.  1.
        -12    1    3    3    0    0 -0.29375966517E+02 -0.14414931957E+02 -0.81362676757E+01  0.33718489347E+02  0.00000000000E+00 0.  1.
</event>
<event>
 7    1  0.3440346E-013  0.7246167E+02  0.7816164E-02  0.1226708E+00
        -11   -1    0    0    0    0  0.00000000000E+00  0.00000000000E+00  0.45593999997E+02  0.45594000000E+02  0.51100000000E-03 0.  1.
         11   -1    0    0    0    0 -0.00000000000E+00 -0.00000000000E+00 -0.45593999997E+02  0.45594000000E+02  0.51100000000E-03 0. -1.
    9900012    2    1    2    0    0  0.23633732831E+01  0.17967175283E+01 -0.18489507055E+02  0.72461665647E+02  0.70000124215E+02 0.  0.
        -12    1    1    2    0    0 -0.23633732831E+01 -0.17967175283E+01  0.18489507055E+02  0.18726334353E+02  0.00000000000E+00 0.  1.
         11    1    3    3    0    0 -0.12682252970E+02  0.78408535353E+01  0.70304854619E+01  0.16484727800E+02  0.51100000000E-03 0. -1.
        -11    1    3    3    0    0  0.21387110440E+02  0.16060526479E+02 -0.15288222235E+02  0.30807121630E+02  0.51100000000E-03 0.  1.
         12    1    3    3    0    0 -0.63414841869E+01 -0.22104662486E+02 -0.10231770282E+02  0.25169816218E+02  0.00000000000E+00 0. -1.
</event>
<event>
 7    1  0.3440346E-013  0.7246144E+02  0.7816164E-02  0.1226708E+00
        -11   -1    0    0    0    0  0.00000000000E+00  0.00000000000E+00  0.45593999997E+02  0.45594000000E+02  0.51100000000E-03 0.  1.
         11   -1    0    0    0    0 -0.00000000000E+00 -0.00000000000E+00 -0.45593999997E+02  0.45594000000E+02  0.51100000000E-03 0. -1.
    9900012    2    1    2    0    0 -0.17595567003E+02  0.63984419358E+01  0.37440397167E+00  0.72461435561E+02  0.69999824485E+02 0.  0.
        -12    1    1    2    0    0  0.17595567003E+02 -0.63984419358E+01 -0.37440397167E+00  0.18726564439E+02  0.00000000000E+00 0.  1.
         11    1    3    3    0    0 -0.14684465465E+02 -0.27202849462E+02  0.12031023697E+02  0.33171886837E+02  0.51100000000E-03 0. -1.
        -11    1    3    3    0    0  0.22061914748E+01 -0.82671285536E+00  0.52390789501E+00  0.24135481582E+01  0.51100000000E-03 0.  1.
         12    1    3    3    0    0 -0.51172930130E+01  0.34428004253E+02 -0.12180527620E+02  0.36876000566E+02  0.00000000000E+00 0. -1.
</event>
<event>
 7    1  0.3440346E-013  0.7246153E+02  0.7816164E-02  0.1226708E+00
        -11   -1    0    0    0    0  0.00000000000E+00  0.00000000000E+00  0.45593999997E+02  0.45594000000E+02  0.51100000000E-03 0. -1.
         11   -1    0    0    0    0 -0.00000000000E+00 -0.00000000000E+00 -0.45593999997E+02  0.45594000000E+02  0.51100000000E-03 0.  1.
    9900012    2    1    2    0    0  0.12583465849E+02  0.13409093030E+02 -0.35402298243E+01  0.72461531676E+02  0.69999949693E+02 0.  0.
        -12    1    1    2    0    0 -0.12583465849E+02 -0.13409093030E+02  0.35402298243E+01  0.18726468324E+02  0.00000000000E+00 0.  1.
         11    1    3    3    0    0 -0.11605958560E+01  0.37978957519E+02 -0.11032731932E+02  0.39566012829E+02  0.51100000000E-03 0. -1.
        -11    1    3    3    0    0  0.35840276816E+01 -0.12441598016E+01 -0.35170078365E+01  0.51732516291E+01  0.51100000000E-03 0.  1.
        -12    1    3    3    0    0  0.10160034024E+02 -0.23325704688E+02  0.11009509944E+02  0.27722267219E+02  0.00000000000E+00 0.  1.
</event>
<event>
 7    1  0.3440346E-013  0.7246155E+02  0.7816164E-02  0.1226708E+00
        -11   -1    0    0    0    0  0.00000000000E+00  0.00000000000E+00  0.45593999997E+02  0.45594000000E+02  0.51100000000E-03 0. -1.
         11   -1    0    0    0    0 -0.00000000000E+00 -0.00000000000E+00 -0.45593999997E+02  0.45594000000E+02  0.51100000000E-03 0.  1.
    9900012    2    1    2    0    0 -0.76391646090E+01 -0.23079717936E+01  0.16940965115E+02  0.72461551625E+02  0.69999975680E+02 0.  0.
        -12    1    1    2    0    0  0.76391646090E+01  0.23079717936E+01 -0.16940965115E+02  0.18726448375E+02  0.00000000000E+00 0.  1.
         11    1    3    3    0    0  0.95746068814E+01 -0.13362217730E+02 -0.17403827800E+02  0.23939824184E+02  0.51100000000E-03 0.  1.
        -11    1    3    3    0    0 -0.73184074809E+01  0.15279139236E+02  0.56221129320E+01  0.17849911426E+02  0.51100000000E-03 0. -1.
        -12    1    3    3    0    0 -0.98953640095E+01 -0.42248932991E+01  0.28722679983E+02  0.30671816015E+02  0.00000000000E+00 0.  1.
</event>
<event>
 7    1  0.3440346E-013  0.7246158E+02  0.7816164E-02  0.1226708E+00
        -11   -1    0    0    0    0  0.00000000000E+00  0.00000000000E+00  0.45593999997E+02  0.45594000000E+02  0.51100000000E-03 0.  1.
         11   -1    0    0    0    0 -0.00000000000E+00 -0.00000000000E+00 -0.45593999997E+02  0.45594000000E+02  0.51100000000E-03 0. -1.
    9900012    2    1    2    0    0 -0.35744891255E+01 -0.18201897791E+02 -0.25676146388E+01  0.72461582814E+02  0.70000016309E+02 0.  0.
        -12    1    1    2    0    0  0.35744891255E+01  0.18201897791E+02  0.25676146388E+01  0.18726417186E+02  0.00000000000E+00 0.  1.
         11    1    3    3    0    0  0.99910344698E+00 -0.85914006147E+01 -0.32585509578E+01  0.92427553698E+01  0.51100000000E-03 0. -1.
        -11    1    3    3    0    0 -0.55867965254E+01  0.56130039020E+00  0.30859158885E+02  0.31365826004E+02  0.51100000000E-03 0.  1.
         12    1    3    3    0    0  0.10132039529E+01 -0.10171797566E+02 -0.30168222566E+02  0.31853001441E+02  0.00000000000E+00 0. -1.
</event>
<event>
 7    1  0.3440346E-013  0.7246160E+02  0.7816164E-02  0.1226708E+00
        -11   -1    0    0    0    0  0.00000000000E+00  0.00000000000E+00  0.45593999997E+02  0.45594000000E+02  0.51100000000E-03 0. -1.
         11   -1    0    0    0    0 -0.00000000000E+00 -0.00000000000E+00 -0.45593999997E+02  0.45594000000E+02  0.51100000000E-03 0.  1.
    9900012    2    1    2    0    0  0.49322600759E+01 -0.17577317699E+02 -0.41699946050E+01  0.72461597730E+02  0.70000035741E+02 0.  0.
        -12    1    1    2    0    0 -0.49322600759E+01  0.17577317699E+02  0.41699946050E+01  0.18726402270E+02  0.00000000000E+00 0.  1.
         11    1    3    3    0    0  0.20371257053E+01 -0.15288781242E+02  0.51265166890E+01  0.16253549970E+02  0.51100000000E-03 0. -1.
        -11    1    3    3    0    0 -0.19527599623E+02 -0.12968990259E+02  0.92603594223E+01  0.25204684332E+02  0.51100000000E-03 0.  1.
         12    1    3    3    0    0  0.22422733993E+02  0.10680453802E+02 -0.18556870716E+02  0.31003363429E+02  0.00000000000E+00 0. -1.
</event>
<event>
 7    1  0.3440346E-013  0.7246152E+02  0.7816164E-02  0.1226708E+00
        -11   -1    0    0    0    0  0.00000000000E+00  0.00000000000E+00  0.45593999997E+02  0.45594000000E+02  0.51100000000E-03 0.  1.
         11   -1    0    0    0    0 -0.00000000000E+00 -0.00000000000E+00 -0.45593999997E+02  0.45594000000E+02  0.51100000000E-03 0. -1.
    9900012    2    1    2    0    0  0.62491514975E+01  0.14753493344E+01 -0.17591262063E+02  0.72461520056E+02  0.69999934556E+02 0.  0.
        -12    1    1    2    0    0 -0.62491514975E+01 -0.14753493344E+01  0.17591262063E+02  0.18726479944E+02  0.00000000000E+00 0.  1.
         11    1    3    3    0    0  0.39196698716E+01 -0.15611546585E+02 -0.21412751199E+02  0.26787872496E+02  0.51100000000E-03 0. -1.
        -11    1    3    3    0    0  0.95291038759E+01 -0.15490770584E+01  0.18510241296E+02  0.20876601579E+02  0.51100000000E-03 0.  1.
         12    1    3    3    0    0 -0.71996222499E+01  0.18635972978E+02 -0.14688752159E+02  0.24797045981E+02  0.00000000000E+00 0. -1.
</event>
<event>
 7    1  0.3440346E-013  0.7246160E+02  0.7816164E-02  0.1226708E+00
        -11   -1    0    0    0    0  0.00000000000E+00  0.00000000000E+00  0.45593999997E+02  0.45594000000E+02  0.51100000000E-03 0. -1.
         11   -1    0    0    0    0 -0.00000000000E+00 -0.00000000000E+00 -0.45593999997E+02  0.45594000000E+02  0.51100000000E-03 0.  1.
    9900012    2    1    2    0    0  0.96912275253E+00 -0.18294952140E+02 -0.38773062865E+01  0.72461602142E+02  0.70000041487E+02 0.  0.
        -12    1    1    2    0    0 -0.96912275253E+00  0.18294952140E+02  0.38773062865E+01  0.18726397858E+02  0.00000000000E+00 0.  1.
         11    1    3    3    0    0 -0.13692149154E+01  0.33194860331E+01 -0.84406410294E+01  0.91726854442E+01  0.51100000000E-03 0. -1.
        -11    1    3    3    0    0 -0.75589399031E+00  0.19822430188E+02 -0.54003567083E+01  0.20558792939E+02  0.51100000000E-03 0.  1.
        -12    1    3    3    0    0  0.30942316582E+01 -0.41436868361E+02  0.99636914512E+01  0.42730123759E+02  0.00000000000E+00 0.  1.
</event>
<event>
 7    1  0.5506125E-013  0.7246159E+02  0.7816164E-02  0.1226708E+00
        -11   -1    0    0    0    0  0.00000000000E+00  0.00000000000E+00  0.45593999997E+02  0.45594000000E+02  0.51100000000E-03 0. -1.
         11   -1    0    0    0    0 -0.00000000000E+00 -0.00000000000E+00 -0.45593999997E+02  0.45594000000E+02  0.51100000000E-03 0.  1.
    9900012    2    1    2    0    0 -0.13693876059E+02  0.42952097627E+01  0.12029441903E+02  0.72461587078E+02  0.70000021864E+02 0.  0.
        -12    1    1    2    0    0  0.13693876059E+02 -0.42952097627E+01 -0.12029441903E+02  0.18726412922E+02  0.00000000000E+00 0.  1.
         11    1    3    3    0    0  0.51077595901E+01  0.53326395005E+01  0.32001192933E+02  0.32842085827E+02  0.51100000000E-03 0. -1.
        -11    1    3    3    0    0 -0.32736077432E+01  0.12923051545E+02 -0.74443298456E+01  0.15268916661E+02  0.51100000000E-03 0.  1.
        -12    1    3    3    0    0 -0.15528027906E+02 -0.13960481283E+02 -0.12527421185E+02  0.24350584589E+02  0.00000000000E+00 0.  1.
</event>
<event>
 7    1  0.3440346E-013  0.7246158E+02  0.7816164E-02  0.1226708E+00
        -11   -1    0    0    0    0  0.00000000000E+00  0.00000000000E+00  0.45593999997E+02  0.45594000000E+02  0.51100000000E-03 0. -1.
         11   -1    0    0    0    0 -0.00000000000E+00 -0.00000000000E+00 -0.45593999997E+02  0.45594000000E+02  0.51100000000E-03 0.  1.
    9900012    2    1    2    0    0 -0.16445806614E+02  0.73567913732E+01  0.51080047619E+01  0.72461584242E+02  0.70000018169E+02 0.  0.
        -12    1    1    2    0    0  0.16445806614E+02 -0.73567913732E+01 -0.51080047619E+01  0.18726415758E+02  0.00000000000E+00 0.  1.
         11    1    3    3    0    0  0.48877727803E+01 -0.12915971261E+02  0.10615964751E+00  0.13810282637E+02  0.51100000000E-03 0. -1.
        -11    1    3    3    0    0 -0.33734294630E+02  0.12594347885E+02  0.16948321083E+02  0.39797811756E+02  0.51100000000E-03 0.  1.
         12    1    3    3    0    0  0.12400715235E+02  0.76784147496E+01 -0.11946475969E+02  0.18853489849E+02  0.00000000000E+00 0. -1.
</event>
<event>
 7    1  0.3440346E-013  0.7246157E+02  0.7816164E-02  0.1226708E+00
        -11   -1    0    0    0    0  0.00000000000E+00  0.00000000000E+00  0.45593999997E+02  0.45594000000E+02  0.51100000000E-03 0.  1.
         11   -1    0    0    0    0 -0.00000000000E+00 -0.00000000000E+00 -0.45593999997E+02  0.45594000000E+02  0.51100000000E-03 0. -1.
    9900012    2    1    2    0    0  0.27355556791E+01  0.18457056315E+02 -0.15914806486E+01  0.72461574731E+02  0.70000005780E+02 0.  0.
        -12    1    1    2    0    0 -0.27355556791E+01 -0.18457056315E+02  0.15914806486E+01  0.18726425269E+02  0.00000000000E+00 0.  1.
         11    1    3    3    0    0 -0.17030981885E+02  0.45008768356E+01  0.10023627913E+02  0.20267840365E+02  0.51100000000E-03 0. -1.
        -11    1    3    3    0    0 -0.72787256686E+01  0.17136487781E+02  0.62335026878E+01  0.19634042295E+02  0.51100000000E-03 0.  1.
         12    1    3    3    0    0  0.27045263233E+02 -0.31803083016E+01 -0.17848611250E+02  0.32559692071E+02  0.00000000000E+00 0. -1.
</event>
<event>
 7    1  0.3440346E-013  0.7246157E+02  0.7816164E-02  0.1226708E+00
        -11   -1    0    0    0    0  0.00000000000E+00  0.00000000000E+00  0.45593999997E+02  0.45594000000E+02  0.51100000000E-03 0.  1.
         11   -1    0    0    0    0 -0.00000000000E+00 -0.00000000000E+00 -0.45593999997E+02  0.45594000000E+02  0.51100000000E-03 0. -1.
    9900012    2    1    2    0    0  0.15073658661E+02  0.11103191281E+02  0.42807675970E+00  0.72461567031E+02  0.69999995748E+02 0.  0.
        -12    1    1    2    0    0 -0.15073658661E+02 -0.11103191281E+02 -0.42807675970E+00  0.18726432969E+02  0.00000000000E+00 0.  1.
         11    1    3    3    0    0  0.38579738356E+01 -0.50066377951E+01 -0.22817030540E+02  0.23676301802E+02  0.51100000000E-03 0. -1.
        -11    1    3    3    0    0  0.13867123146E+01  0.13005939059E+02 -0.83725691368E+01  0.15529885256E+02  0.51100000000E-03 0.  1.
        -12    1    3    3    0    0  0.98289725107E+01  0.31038900168E+01  0.31617676436E+02  0.33255379972E+02  0.00000000000E+00 0.  1.
</event>
<event>
 7    1  0.3440346E-013  0.7246159E+02  0.7816164E-02  0.1226708E+00
        -11   -1    0    0    0    0  0.00000000000E+00  0.00000000000E+00  0.45593999997E+02  0.45594000000E+02  0.51100000000E-03 0. -1.
         11   -1    0    0    0    0 -0.00000000000E+00 -0.00000000000E+00 -0.45593999997E+02  0.45594000000E+02  0.51100000000E-03 0.  1.
    9900012    2    1    2    0    0 -0.11203213254E+02 -0.63811806617E+01  0.13581128617E+02  0.72461587947E+02  0.70000022996E+02 0.  0.
        -12    1    1    2    0    0  0.11203213254E+02  0.63811806617E+01 -0.13581128617E+02  0.18726412053E+02  0.00000000000E+00 0.  1.
         11    1    3    3    0    0 -0.15326779967E+02  0.13518718728E+02  0.22565771239E+02  0.30444703514E+02  0.51100000000E-03 0. -1.
        -11    1    3    3    0    0 -0.11200575005E+02  0.41131536477E+01 -0.60555929081E+01  0.13380624765E+02  0.51100000000E-03 0.  1.
        -12    1    3    3    0    0  0.15324141717E+02 -0.24013053037E+02 -0.29290497143E+01  0.28636259668E+02  0.00000000000E+00 0.  1.
</event>
<event>
 7    1  0.3440346E-013  0.7246143E+02  0.7816164E-02  0.1226708E+00
        -11   -1    0    0    0    0  0.00000000000E+00  0.00000000000E+00  0.45593999997E+02  0.45594000000E+02  0.51100000000E-03 0. -1.
         11   -1    0    0    0    0 -0.00000000000E+00 -0.00000000000E+00 -0.45593999997E+02  0.45594000000E+02  0.51100000000E-03 0.  1.
    9900012    2    1    2    0    0 -0.12741236531E+02  0.10931971043E+02  0.82968187952E+01  0.72461433273E+02  0.69999821505E+02 0.  0.
        -12    1    1    2    0    0  0.12741236531E+02 -0.10931971043E+02 -0.82968187952E+01  0.18726566727E+02  0.00000000000E+00 0.  1.
         11    1    3    3    0    0  0.18576574892E+02  0.13411018058E+02  0.83100549770E+01  0.24372147096E+02  0.51100000000E-03 0. -1.
        -11    1    3    3    0    0  0.60336845186E+01  0.39940999167E+01  0.63785555590E+01  0.96459397829E+01  0.51100000000E-03 0.  1.
         12    1    3    3    0    0 -0.37351495942E+02 -0.64731469317E+01 -0.63917917409E+01  0.38443346394E+02  0.00000000000E+00 0. -1.
</event>
<event>
 7    1  0.4578839E-013  0.7246158E+02  0.7816164E-02  0.1226708E+00
        -11   -1    0    0    0    0  0.00000000000E+00  0.00000000000E+00  0.45593999997E+02  0.45594000000E+02  0.51100000000E-03 0. -1.
         11   -1    0    0    0    0 -0.00000000000E+00 -0.00000000000E+00 -0.45593999997E+02  0.45594000000E+02  0.51100000000E-03 0.  1.
    9900012    2    1    2    0    0 -0.18590750751E+01 -0.13006891179E+02  0.13343284828E+02  0.72461584746E+02  0.70000018826E+02 0.  0.
        -12    1    1    2    0    0  0.18590750751E+01  0.13006891179E+02 -0.13343284828E+02  0.18726415254E+02  0.00000000000E+00 0.  1.
         11    1    3    3    0    0  0.20946995342E+02 -0.58653944262E+01  0.24098506027E+02  0.32464094914E+02  0.51100000000E-03 0. -1.
        -11    1    3    3    0    0  0.26285585090E+01 -0.11425955217E+02 -0.76939353535E+01  0.14023495069E+02  0.51100000000E-03 0.  1.
        -12    1    3    3    0    0 -0.25434628926E+02  0.42844584645E+01 -0.30612858449E+01  0.25973994763E+02  0.00000000000E+00 0.  1.
</event>
<event>
 7    1  0.3440346E-013  0.7246106E+02  0.7816164E-02  0.1226709E+00
        -11   -1    0    0    0    0  0.00000000000E+00  0.00000000000E+00  0.45593999997E+02  0.45594000000E+02  0.51100000000E-03 0. -1.
         11   -1    0    0    0    0 -0.00000000000E+00 -0.00000000000E+00 -0.45593999997E+02  0.45594000000E+02  0.51100000000E-03 0.  1.
    9900012    2    1    2    0    0 -0.15641893812E+02 -0.10088336278E+02 -0.20627439680E+01  0.72461059952E+02  0.69999335181E+02 0.  0.
        -12    1    1    2    0    0  0.15641893812E+02  0.10088336278E+02  0.20627439680E+01  0.18726940048E+02  0.00000000000E+00 0.  1.
         11    1    3    3    0    0 -0.88245255740E+01  0.11871652080E+02  0.40538625116E+01  0.15337606601E+02  0.51100000000E-03 0. -1.
        -11    1    3    3    0    0  0.45724812533E+01  0.16268961058E+02 -0.14373021233E+01  0.16960321824E+02  0.51100000000E-03 0.  1.
         12    1    3    3    0    0 -0.11389849491E+02 -0.38228949416E+02 -0.46793043563E+01  0.40163131528E+02  0.00000000000E+00 0. -1.
</event>
<event>
 7    1  0.3440346E-013  0.7246155E+02  0.7816164E-02  0.1226708E+00
        -11   -1    0    0    0    0  0.00000000000E+00  0.00000000000E+00  0.45593999997E+02  0.45594000000E+02  0.51100000000E-03 0. -1.
         11   -1    0    0    0    0 -0.00000000000E+00 -0.00000000000E+00 -0.45593999997E+02  0.45594000000E+02  0.51100000000E-03 0.  1.
    9900012    2    1    2    0    0 -0.96532140068E+00  0.26286366507E+01  0.18515889736E+02  0.72461554829E+02  0.69999979853E+02 0.  0.
        -12    1    1    2    0    0  0.96532140068E+00 -0.26286366507E+01 -0.18515889736E+02  0.18726445171E+02  0.00000000000E+00 0.  1.
         11    1    3    3    0    0 -0.24902333077E+01 -0.80634873119E+01  0.10932658673E+02  0.13811014281E+02  0.51100000000E-03 0. -1.
        -11    1    3    3    0    0 -0.21996629120E+02 -0.72566128806E+01 -0.88617612363E+01  0.24800018863E+02  0.51100000000E-03 0.  1.
         12    1    3    3    0    0  0.23521541027E+02  0.17948736843E+02  0.16444992299E+02  0.33850521684E+02  0.00000000000E+00 0. -1.
</event>
<event>
 7    1  0.3440346E-013  0.7246156E+02  0.7816164E-02  0.1226708E+00
        -11   -1    0    0    0    0  0.00000000000E+00  0.00000000000E+00  0.45593999997E+02  0.45594000000E+02  0.51100000000E-03 0.  1.
         11   -1    0    0    0    0 -0.00000000000E+00 -0.00000000000E+00 -0.45593999997E+02  0.45594000000E+02  0.51100000000E-03 0. -1.
    9900012    2    1    2    0    0  0.60025839526E+01  0.16407317950E+02 -0.67415540131E+01  0.72461557548E+02  0.69999983395E+02 0.  0.
        -12    1    1    2    0    0 -0.60025839526E+01 -0.16407317950E+02  0.67415540131E+01  0.18726442452E+02  0.00000000000E+00 0.  1.
         11    1    3    3    0    0  0.55173696923E+00  0.69253836394E+01  0.12693136573E+02  0.14470005824E+02  0.51100000000E-03 0. -1.
        -11    1    3    3    0    0 -0.23839411356E+02  0.23923408306E+00 -0.10086063812E+02  0.25886356449E+02  0.51100000000E-03 0.  1.
         12    1    3    3    0    0  0.29290258339E+02  0.92427002270E+01 -0.93486267743E+01  0.32105195275E+02  0.00000000000E+00 0. -1.
</event>
<event>
 7    1  0.3440346E-013  0.7246164E+02  0.7816164E-02  0.1226708E+00
        -11   -1    0    0    0    0  0.00000000000E+00  0.00000000000E+00  0.45593999997E+02  0.45594000000E+02  0.51100000000E-03 0. -1.
         11   -1    0    0    0    0 -0.00000000000E+00 -0.00000000000E+00 -0.45593999997E+02  0.45594000000E+02  0.51100000000E-03 0.  1.
    9900012    2    1    2    0    0 -0.65087850061E+01 -0.10739337476E+02  0.13891678302E+02  0.72461644836E+02  0.70000097104E+02 0.  0.
        -12    1    1    2    0    0  0.65087850061E+01  0.10739337476E+02 -0.13891678302E+02  0.18726355164E+02  0.00000000000E+00 0.  1.
         11    1    3    3    0    0 -0.10233182545E+02 -0.24810249281E+01  0.24678091460E+02  0.26830611400E+02  0.51100000000E-03 0. -1.
        -11    1    3    3    0    0 -0.20278088954E+01 -0.23520651792E+02  0.36021642534E+01  0.23881136011E+02  0.51100000000E-03 0.  1.
         12    1    3    3    0    0  0.57522064345E+01  0.15262339243E+02 -0.14388577412E+02  0.21749897425E+02  0.00000000000E+00 0. -1.
</event>
<event>
 7    1  0.3440346E-013  0.7246152E+02  0.7816164E-02  0.1226708E+00
        -11   -1    0    0    0    0  0.00000000000E+00  0.00000000000E+00  0.45593999997E+02  0.45594000000E+02  0.51100000000E-03 0.  1.
         11   -1    0    0    0    0 -0.00000000000E+00 -0.00000000000E+00 -0.45593999997E+02  0.45594000000E+02  0.51100000000E-03 0. -1.
    9900012    2    1    2    0    0 -0.48556808561E+01 -0.16250040085E+02 -0.79397430555E+01  0.72461522512E+02  0.69999937754E+02 0.  0.
        -12    1    1    2    0    0  0.48556808561E+01  0.16250040085E+02  0.79397430555E+01  0.18726477488E+02  0.00000000000E+00 0.  1.
         11    1    3    3    0    0  0.13426270490E+02 -0.35674410027E+01 -0.20273815308E+02  0.24576797228E+02  0.51100000000E-03 0. -1.
        -11    1    3    3    0    0 -0.81731134131E+01 -0.10708575889E+01  0.26014502891E+02  0.27289208119E+02  0.51100000000E-03 0.  1.
         12    1    3    3    0    0 -0.10108837933E+02 -0.11611741493E+02 -0.13680430638E+02  0.20595517165E+02  0.00000000000E+00 0. -1.
</event>
<event>
 7    1  0.3440346E-013  0.7246141E+02  0.7816164E-02  0.1226708E+00
        -11   -1    0    0    0    0  0.00000000000E+00  0.00000000000E+00  0.45593999997E+02  0.45594000000E+02  0.51100000000E-03 0. -1.
         11   -1    0    0    0    0 -0.00000000000E+00 -0.00000000000E+00 -0.45593999997E+02  0.45594000000E+02  0.51100000000E-03 0.  1.
    9900012    2    1    2    0    0 -0.83342469658E+01 -0.22359505831E+01  0.16620047125E+02  0.72461411578E+02  0.69999793242E+02 0.  0.
        -12    1    1    2    0    0  0.83342469658E+01  0.22359505831E+01 -0.16620047125E+02  0.18726588422E+02  0.00000000000E+00 0.  1.
         11    1    3    3    0    0  0.14707530493E+01 -0.41688657083E+01 -0.87659970029E+01  0.98175994796E+01  0.51100000000E-03 0. -1.
        -11    1    3    3    0    0  0.21946880684E+02  0.95436499625E+01  0.60062003069E+01  0.24674303815E+02  0.51100000000E-03 0.  1.
         12    1    3    3    0    0 -0.31751880699E+02 -0.76107348372E+01  0.19379843821E+02  0.37969508283E+02  0.00000000000E+00 0. -1.
</event>
<event>
 7    1  0.3440346E-013  0.7246152E+02  0.7816164E-02  0.1226708E+00
        -11   -1    0    0    0    0  0.00000000000E+00  0.00000000000E+00  0.45593999997E+02  0.45594000000E+02  0.51100000000E-03 0. -1.
         11   -1    0    0    0    0 -0.00000000000E+00 -0.00000000000E+00 -0.45593999997E+02  0.45594000000E+02  0.51100000000E-03 0.  1.
    9900012    2    1    2    0    0 -0.38705946721E+00 -0.18467015212E+02  0.30823101616E+01  0.72461518702E+02  0.69999932791E+02 0.  0.
        -12    1    1    2    0    0  0.38705946721E+00  0.18467015212E+02 -0.30823101616E+01  0.18726481298E+02  0.00000000000E+00 0.  1.
         11    1    3    3    0    0  0.75006232595E+01 -0.22457428761E+01  0.19265745272E+02  0.20795952767E+02  0.51100000000E-03 0. -1.
        -11    1    3    3    0    0 -0.18260003072E+02 -0.34736939643E+01  0.97300269447E+01  0.20980173654E+02  0.51100000000E-03 0.  1.
        -12    1    3    3    0    0  0.10372320346E+02 -0.12747578372E+02 -0.25913462055E+02  0.30685392280E+02  0.00000000000E+00 0.  1.
</event>
<event>
 7    1  0.5689850E-013  0.7246169E+02  0.7816164E-02  0.1226708E+00
        -11   -1    0    0    0    0  0.00000000000E+00  0.00000000000E+00  0.45593999997E+02  0.45594000000E+02  0.51100000000E-03 0. -1.
         11   -1    0    0    0    0 -0.00000000000E+00 -0.00000000000E+00 -0.45593999997E+02  0.45594000000E+02  0.51100000000E-03 0.  1.
    9900012    2    1    2    0    0  0.86110300064E+01  0.49501788452E+01  0.15875158662E+02  0.72461687738E+02  0.70000152992E+02 0.  0.
        -12    1    1    2    0    0 -0.86110300064E+01 -0.49501788452E+01 -0.15875158662E+02  0.18726312262E+02  0.00000000000E+00 0.  1.
         11    1    3    3    0    0  0.11871134308E+02  0.24403758427E+02  0.21248716337E+02  0.34467016137E+02  0.51100000000E-03 0. -1.
        -11    1    3    3    0    0 -0.17394530210E+01 -0.39600241810E+01  0.13123663864E+02  0.13818033210E+02  0.51100000000E-03 0.  1.
        -12    1    3    3    0    0 -0.15206512802E+01 -0.15493555401E+02 -0.18497221539E+02  0.24176638392E+02  0.00000000000E+00 0.  1.
</event>
<event>
 7    1  0.3440346E-013  0.7246166E+02  0.7816164E-02  0.1226708E+00
        -11   -1    0    0    0    0  0.00000000000E+00  0.00000000000E+00  0.45593999997E+02  0.45594000000E+02  0.51100000000E-03 0.  1.
         11   -1    0    0    0    0 -0.00000000000E+00 -0.00000000000E+00 -0.45593999997E+02  0.45594000000E+02  0.51100000000E-03 0. -1.
    9900012    2    1    2    0    0  0.12709919621E+02 -0.48702961210E+01 -0.12861339108E+02  0.72461657999E+02  0.70000114252E+02 0.  0.
        -12    1    1    2    0    0 -0.12709919621E+02  0.48702961210E+01  0.12861339108E+02  0.18726342001E+02  0.00000000000E+00 0.  1.
         11    1    3    3    0    0  0.42971904194E+01 -0.13133073932E+01 -0.13943541519E+01  0.47047683866E+01  0.51100000000E-03 0. -1.
        -11    1    3    3    0    0  0.22286609680E+02 -0.17457658572E+02  0.17112196693E+02  0.33080055770E+02  0.51100000000E-03 0.  1.
         12    1    3    3    0    0 -0.13873880478E+02  0.13900669844E+02 -0.28579181649E+02  0.34676833843E+02  0.00000000000E+00 0. -1.
</event>
<event>
 7    1  0.3440346E-013  0.7246155E+02  0.7816164E-02  0.1226708E+00
        -11   -1    0    0    0    0  0.00000000000E+00  0.00000000000E+00  0.45593999997E+02  0.45594000000E+02  0.51100000000E-03 0.  1.
         11   -1    0    0    0    0 -0.00000000000E+00 -0.00000000000E+00 -0.45593999997E+02  0.45594000000E+02  0.51100000000E-03 0. -1.
    9900012    2    1    2    0    0  0.35599549494E+01  0.15001213798E+02  0.10628739305E+02  0.72461553624E+02  0.69999978284E+02 0.  0.
        -12    1    1    2    0    0 -0.35599549494E+01 -0.15001213798E+02 -0.10628739305E+02  0.18726446376E+02  0.00000000000E+00 0.  1.
         11    1    3    3    0    0  0.16394184948E+02 -0.76732735759E+01  0.50906356672E+00  0.18108218395E+02  0.51100000000E-03 0. -1.
        -11    1    3    3    0    0  0.33961476581E+01 -0.12706537080E+02  0.79462134807E+01  0.15366594041E+02  0.51100000000E-03 0.  1.
         12    1    3    3    0    0 -0.16230377656E+02  0.35381024454E+02  0.21734622578E+01  0.38986741188E+02  0.00000000000E+00 0. -1.
</event>
<event>
 7    1  0.3440346E-013  0.7246156E+02  0.7816164E-02  0.1226708E+00
        -11   -1    0    0    0    0  0.00000000000E+00  0.00000000000E+00  0.45593999997E+02  0.45594000000E+02  0.51100000000E-03 0.  1.
         11   -1    0    0    0    0 -0.00000000000E+00 -0.00000000000E+00 -0.45593999997E+02  0.45594000000E+02  0.51100000000E-03 0. -1.
    9900012    2    1    2    0    0  0.17855054019E+02  0.47666144178E+01 -0.30258974505E+01  0.72461558202E+02  0.69999984248E+02 0.  0.
        -12    1    1    2    0    0 -0.17855054019E+02 -0.47666144178E+01  0.30258974505E+01  0.18726441798E+02  0.00000000000E+00 0.  1.
         11    1    3    3    0    0  0.33623764125E+01  0.11647593195E+02 -0.22834999932E+02  0.25853611441E+02  0.51100000000E-03 0. -1.
        -11    1    3    3    0    0 -0.11527827577E+02  0.39137206043E+01  0.12618803225E+02  0.17534030132E+02  0.51100000000E-03 0.  1.
        -12    1    3    3    0    0  0.26020505183E+02 -0.10794699382E+02  0.71902992574E+01  0.29073916629E+02  0.00000000000E+00 0.  1.
</event>
<event>
 7    1  0.3440346E-013  0.7246150E+02  0.7816164E-02  0.1226708E+00
        -11   -1    0    0    0    0  0.00000000000E+00  0.00000000000E+00  0.45593999997E+02  0.45594000000E+02  0.51100000000E-03 0.  1.
         11   -1    0    0    0    0 -0.00000000000E+00 -0.00000000000E+00 -0.45593999997E+02  0.45594000000E+02  0.51100000000E-03 0. -1.
    9900012    2    1    2    0    0  0.76601969101E+01  0.55610380741E+01 -0.16157910352E+02  0.72461499310E+02  0.69999907529E+02 0.  0.
        -12    1    1    2    0    0 -0.76601969101E+01 -0.55610380741E+01  0.16157910352E+02  0.18726500690E+02  0.00000000000E+00 0.  1.
         11    1    3    3    0    0  0.11246534726E+02 -0.29089903399E+01 -0.35473458734E+02  0.37327108687E+02  0.51100000000E-03 0. -1.
        -11    1    3    3    0    0  0.71681335885E+00  0.14327385270E+02 -0.16066566520E+00  0.14346205205E+02  0.51100000000E-03 0.  1.
        -12    1    3    3    0    0 -0.43031511750E+01 -0.58573568556E+01  0.19476214047E+02  0.20788185418E+02  0.00000000000E+00 0.  1.
</event>
<event>
 7    1  0.3440346E-013  0.7246158E+02  0.7816164E-02  0.1226708E+00
        -11   -1    0    0    0    0  0.00000000000E+00  0.00000000000E+00  0.45593999997E+02  0.45594000000E+02  0.51100000000E-03 0. -1.
         11   -1    0    0    0    0 -0.00000000000E+00 -0.00000000000E+00 -0.45593999997E+02  0.45594000000E+02  0.51100000000E-03 0.  1.
    9900012    2    1    2    0    0 -0.53279295966E+00 -0.18676777310E+02 -0.12541873209E+01  0.72461578429E+02  0.70000010596E+02 0.  0.
        -12    1    1    2    0    0  0.53279295966E+00  0.18676777310E+02  0.12541873209E+01  0.18726421571E+02  0.00000000000E+00 0.  1.
         11    1    3    3    0    0 -0.21268024540E+02 -0.85370195767E+01  0.38129692715E+01  0.23232483854E+02  0.51100000000E-03 0. -1.
        -11    1    3    3    0    0  0.16267231261E+01 -0.22432321072E+01 -0.22203022483E+02  0.22375265944E+02  0.51100000000E-03 0.  1.
         12    1    3    3    0    0  0.19108508455E+02 -0.78965256262E+01  0.17135865891E+02  0.26853828631E+02  0.00000000000E+00 0. -1.
</event>
<event>
 7    1  0.3440346E-013  0.7246155E+02  0.7816164E-02  0.1226708E+00
        -11   -1    0    0    0    0  0.00000000000E+00  0.00000000000E+00  0.45593999997E+02  0.45594000000E+02  0.51100000000E-03 0.  1.
         11   -1    0    0    0    0 -0.00000000000E+00 -0.00000000000E+00 -0.45593999997E+02  0.45594000000E+02  0.51100000000E-03 0. -1.
    9900012    2    1    2    0    0 -0.19916741370E+01 -0.65669395756E+01 -0.17423791512E+02  0.72461548870E+02  0.69999972091E+02 0.  0.
        -12    1    1    2    0    0  0.19916741370E+01  0.65669395756E+01  0.17423791512E+02  0.18726451130E+02  0.00000000000E+00 0.  1.
         11    1    3    3    0    0 -0.51675896710E+01 -0.26248763614E+01 -0.32179827297E+02  0.32697633615E+02  0.51100000000E-03 0. -1.
        -11    1    3    3    0    0  0.16940773114E+02  0.18138822153E+00 -0.26988364780E+01  0.17155361085E+02  0.51100000000E-03 0.  1.
        -12    1    3    3    0    0 -0.13764857580E+02 -0.41234514358E+01  0.17454872263E+02  0.22608554169E+02  0.00000000000E+00 0.  1.
</event>
<event>
 7    1  0.3440346E-013  0.7246156E+02  0.7816164E-02  0.1226708E+00
        -11   -1    0    0    0    0  0.00000000000E+00  0.00000000000E+00  0.45593999997E+02  0.45594000000E+02  0.51100000000E-03 0.  1.
         11   -1    0    0    0    0 -0.00000000000E+00 -0.00000000000E+00 -0.45593999997E+02  0.45594000000E+02  0.51100000000E-03 0. -1.
    9900012    2    1    2    0    0 -0.19934503535E+01  0.59693692217E+01 -0.17637246022E+02  0.72461557186E+02  0.69999982924E+02 0.  0.
        -12    1    1    2    0    0  0.19934503535E+01 -0.59693692217E+01  0.17637246022E+02  0.18726442814E+02  0.00000000000E+00 0.  1.
         11    1    3    3    0    0 -0.73528995358E+01  0.78130129904E+01 -0.76987656676E+01  0.13205275334E+02  0.51100000000E-03 0. -1.
        -11    1    3    3    0    0  0.15085583225E+02 -0.21024881368E+02 -0.22551049833E+02  0.34324485525E+02  0.51100000000E-03 0.  1.
         12    1    3    3    0    0 -0.97261340424E+01  0.19181237599E+02  0.12612569478E+02  0.24931796327E+02  0.00000000000E+00 0. -1.
</event>
<event>
 7    1  0.3440346E-013  0.7246159E+02  0.7816164E-02  0.1226708E+00
        -11   -1    0    0    0    0  0.00000000000E+00  0.00000000000E+00  0.45593999997E+02  0.45594000000E+02  0.51100000000E-03 0.  1.
         11   -1    0    0    0    0 -0.00000000000E+00 -0.00000000000E+00 -0.45593999997E+02  0.45594000000E+02  0.51100000000E-03 0. -1.
    9900012    2    1    2    0    0 -0.12621379071E+02 -0.13036067557E+02  0.46303426261E+01  0.72461592447E+02  0.70000028858E+02 0.  0.
        -12    1    1    2    0    0  0.12621379071E+02  0.13036067557E+02 -0.46303426261E+01  0.18726407553E+02  0.00000000000E+00 0.  1.
         11    1    3    3    0    0 -0.33277886559E+02  0.35697832425E+01 -0.11819980985E+01  0.33489673124E+02  0.51100000000E-03 0. -1.
        -11    1    3    3    0    0 -0.28497829016E+01  0.18387989181E+01 -0.59600383161E+01  0.68574412894E+01  0.51100000000E-03 0.  1.
        -12    1    3    3    0    0  0.23506290389E+02 -0.18444649718E+02  0.11772379041E+02  0.32114478033E+02  0.00000000000E+00 0.  1.
</event>
<event>
 7    1  0.3440346E-013  0.7246155E+02  0.7816164E-02  0.1226708E+00
        -11   -1    0    0    0    0  0.00000000000E+00  0.00000000000E+00  0.45593999997E+02  0.45594000000E+02  0.51100000000E-03 0. -1.
         11   -1    0    0    0    0 -0.00000000000E+00 -0.00000000000E+00 -0.45593999997E+02  0.45594000000E+02  0.51100000000E-03 0.  1.
    9900012    2    1    2    0    0  0.17093090820E+02 -0.19488395280E+01 -0.73964890582E+01  0.72461554003E+02  0.69999978778E+02 0.  0.
        -12    1    1    2    0    0 -0.17093090820E+02  0.19488395280E+01  0.73964890582E+01  0.18726445997E+02  0.00000000000E+00 0.  1.
         11    1    3    3    0    0 -0.12536100842E+02  0.13770660632E+02 -0.26798589718E+01  0.18813999121E+02  0.51100000000E-03 0. -1.
        -11    1    3    3    0    0  0.24086383341E+02  0.10570100452E+02  0.35242935120E+00  0.26305989674E+02  0.51100000000E-03 0.  1.
         12    1    3    3    0    0  0.55428083209E+01 -0.26289600612E+02 -0.50690594377E+01  0.27341565208E+02  0.00000000000E+00 0. -1.
</event>
<event>
 7    1  0.3440346E-013  0.7246159E+02  0.7816164E-02  0.1226708E+00
        -11   -1    0    0    0    0  0.00000000000E+00  0.00000000000E+00  0.45593999997E+02  0.45594000000E+02  0.51100000000E-03 0.  1.
         11   -1    0    0    0    0 -0.00000000000E+00 -0.00000000000E+00 -0.45593999997E+02  0.45594000000E+02  0.51100000000E-03 0. -1.
    9900012    2    1    2    0    0 -0.17343637677E+01  0.56751707176E+01 -0.17761275296E+02  0.72461588692E+02  0.70000023966E+02 0.  0.
        -12    1    1    2    0    0  0.17343637677E+01 -0.56751707176E+01  0.17761275296E+02  0.18726411308E+02  0.00000000000E+00 0.  1.
         11    1    3    3    0    0  0.53837878179E+01  0.18291970203E+02 -0.92778899012E+01  0.21205201872E+02  0.51100000000E-03 0. -1.
        -11    1    3    3    0    0 -0.17077686377E+02  0.14000600631E+02 -0.26181131021E+01  0.22237776563E+02  0.51100000000E-03 0.  1.
        -12    1    3    3    0    0  0.99595347910E+01 -0.26617400115E+02 -0.58652722924E+01  0.29018610257E+02  0.00000000000E+00 0.  1.
</event>
<event>
 7    1  0.3440346E-013  0.7246159E+02  0.7816164E-02  0.1226708E+00
        -11   -1    0    0    0    0  0.00000000000E+00  0.00000000000E+00  0.45593999997E+02  0.45594000000E+02  0.51100000000E-03 0. -1.
         11   -1    0    0    0    0 -0.00000000000E+00 -0.00000000000E+00 -0.45593999997E+02  0.45594000000E+02  0.51100000000E-03 0.  1.
    9900012    2    1    2    0    0 -0.13254428053E+02  0.13115874597E+02  0.17240645156E+01  0.72461590096E+02  0.70000025796E+02 0.  0.
        -12    1    1    2    0    0  0.13254428053E+02 -0.13115874597E+02 -0.17240645156E+01  0.18726409904E+02  0.00000000000E+00 0.  1.
         11    1    3    3    0    0  0.53647710374E+01 -0.42176828197E+00  0.29160147956E+00  0.53892196514E+01  0.51100000000E-03 0. -1.
        -11    1    3    3    0    0 -0.41087790199E+01  0.60414821722E+01 -0.30415529232E+02  0.31280760710E+02  0.51100000000E-03 0.  1.
         12    1    3    3    0    0 -0.14510420070E+02  0.74961607062E+01  0.31847992268E+02  0.35791609735E+02  0.00000000000E+00 0. -1.
</event>
<event>
 7    1  0.3440346E-013  0.7246156E+02  0.7816164E-02  0.1226708E+00
        -11   -1    0    0    0    0  0.00000000000E+00  0.00000000000E+00  0.45593999997E+02  0.45594000000E+02  0.51100000000E-03 0. -1.
         11   -1    0    0    0    0 -0.00000000000E+00 -0.00000000000E+00 -0.45593999997E+02  0.45594000000E+02  0.51100000000E-03 0.  1.
    9900012    2    1    2    0    0 -0.17464251569E+02 -0.22889592126E+00  0.67547734558E+01  0.72461563055E+02  0.69999990570E+02 0.  0.
        -12    1    1    2    0    0  0.17464251569E+02  0.22889592126E+00 -0.67547734558E+01  0.18726436945E+02  0.00000000000E+00 0.  1.
         11    1    3    3    0    0  0.20699423114E+02 -0.12019461539E+02  0.51997789781E+00  0.23941678099E+02  0.51100000000E-03 0. -1.
        -11    1    3    3    0    0 -0.29683669786E+01 -0.13782281358E+01 -0.77587012548E+01  0.84206983520E+01  0.51100000000E-03 0.  1.
        -12    1    3    3    0    0 -0.35195307704E+02  0.13168793754E+02  0.13993496813E+02  0.40099186604E+02  0.00000000000E+00 0.  1.
</event>
<event>
 7    1  0.3440346E-013  0.7246156E+02  0.7816164E-02  0.1226708E+00
        -11   -1    0    0    0    0  0.00000000000E+00  0.00000000000E+00  0.45593999997E+02  0.45594000000E+02  0.51100000000E-03 0. -1.
         11   -1    0    0    0    0 -0.00000000000E+00 -0.00000000000E+00 -0.45593999997E+02  0.45594000000E+02  0.51100000000E-03 0.  1.
    9900012    2    1    2    0    0  0.10861900794E+02 -0.13539161289E+02 -0.70277835517E+01  0.72461560966E+02  0.69999987848E+02 0.  0.
        -12    1    1    2    0    0 -0.10861900794E+02  0.13539161289E+02  0.70277835517E+01  0.18726439034E+02  0.00000000000E+00 0.  1.
         11    1    3    3    0    0 -0.34232749352E+00  0.18705115925E+02  0.71332821544E+01  0.20022044462E+02  0.51100000000E-03 0. -1.
        -11    1    3    3    0    0  0.26648300103E+00  0.73669297787E+01 -0.80137995727E+01  0.10888693742E+02  0.51100000000E-03 0.  1.
        -12    1    3    3    0    0  0.10937745286E+02 -0.39611206992E+02 -0.61472661333E+01  0.41550822762E+02  0.00000000000E+00 0.  1.
</event>
<event>
 7    1  0.3440346E-013  0.7246141E+02  0.7816164E-02  0.1226708E+00
        -11   -1    0    0    0    0  0.00000000000E+00  0.00000000000E+00  0.45593999997E+02  0.45594000000E+02  0.51100000000E-03 0. -1.
         11   -1    0    0    0    0 -0.00000000000E+00 -0.00000000000E+00 -0.45593999997E+02  0.45594000000E+02  0.51100000000E-03 0.  1.
    9900012    2    1    2    0    0  0.17352027018E+02 -0.27649452294E+01  0.64766950911E+01  0.72461405460E+02  0.69999785273E+02 0.  0.
        -12    1    1    2    0    0 -0.17352027018E+02  0.27649452294E+01 -0.64766950911E+01  0.18726594540E+02  0.00000000000E+00 0.  1.
         11    1    3    3    0    0  0.22879137647E+02  0.96037165268E+01  0.15199078338E+02  0.29098080575E+02  0.51100000000E-03 0. -1.
        -11    1    3    3    0    0 -0.13838220002E+02  0.51319420460E+01  0.88484735276E+01  0.17208388827E+02  0.51100000000E-03 0.  1.
         12    1    3    3    0    0  0.83111093726E+01 -0.17500603802E+02 -0.17570856774E+02  0.26154936059E+02  0.00000000000E+00 0. -1.
</event>
<event>
 7    1  0.3440346E-013  0.7246159E+02  0.7816164E-02  0.1226708E+00
        -11   -1    0    0    0    0  0.00000000000E+00  0.00000000000E+00  0.45593999997E+02  0.45594000000E+02  0.51100000000E-03 0. -1.
         11   -1    0    0    0    0 -0.00000000000E+00 -0.00000000000E+00 -0.45593999997E+02  0.45594000000E+02  0.51100000000E-03 0.  1.
    9900012    2    1    2    0    0 -0.33134530115E+01  0.26082322462E+00  0.18429090700E+02  0.72461591277E+02  0.70000027334E+02 0.  0.
        -12    1    1    2    0    0  0.33134530115E+01 -0.26082322462E+00 -0.18429090700E+02  0.18726408723E+02  0.00000000000E+00 0.  1.
         11    1    3    3    0    0 -0.23995024508E+02 -0.34189976112E+01 -0.11950430548E+02  0.27023388691E+02  0.51100000000E-03 0. -1.
        -11    1    3    3    0    0  0.25388550579E+01  0.24551398585E+01 -0.47276726838E+01  0.59012190263E+01  0.51100000000E-03 0.  1.
        -12    1    3    3    0    0  0.18142716438E+02  0.12246809772E+01  0.35107193932E+02  0.39536983560E+02  0.00000000000E+00 0.  1.
</event>
<event>
 7    1  0.3440346E-013  0.7246156E+02  0.7816164E-02  0.1226708E+00
        -11   -1    0    0    0    0  0.00000000000E+00  0.00000000000E+00  0.45593999997E+02  0.45594000000E+02  0.51100000000E-03 0.  1.
         11   -1    0    0    0    0 -0.00000000000E+00 -0.00000000000E+00 -0.45593999997E+02  0.45594000000E+02  0.51100000000E-03 0. -1.
    9900012    2    1    2    0    0 -0.16350222287E+02 -0.66503461433E+01 -0.62548136102E+01  0.72461559710E+02  0.69999986211E+02 0.  0.
        -12    1    1    2    0    0  0.16350222287E+02  0.66503461433E+01  0.62548136102E+01  0.18726440290E+02  0.00000000000E+00 0.  1.
         11    1    3    3    0    0  0.72593498703E+01  0.28236922727E+01 -0.34568474019E+01  0.85218068983E+01  0.51100000000E-03 0. -1.
        -11    1    3    3    0    0  0.68107232085E+00  0.53384595994E+01  0.24156099169E+02  0.24748336060E+02  0.51100000000E-03 0.  1.
         12    1    3    3    0    0 -0.24290644478E+02 -0.14812498015E+02 -0.26954065378E+02  0.39191416751E+02  0.00000000000E+00 0. -1.
</event>
<event>
 7    1  0.3440346E-013  0.7246155E+02  0.7816164E-02  0.1226708E+00
        -11   -1    0    0    0    0  0.00000000000E+00  0.00000000000E+00  0.45593999997E+02  0.45594000000E+02  0.51100000000E-03 0.  1.
         11   -1    0    0    0    0 -0.00000000000E+00 -0.00000000000E+00 -0.45593999997E+02  0.45594000000E+02  0.51100000000E-03 0. -1.
    9900012    2    1    2    0    0 -0.56980538227E+01 -0.17704875968E+02 -0.21793328814E+01  0.72461549663E+02  0.69999973124E+02 0.  0.
        -12    1    1    2    0    0  0.56980538227E+01  0.17704875968E+02  0.21793328814E+01  0.18726450337E+02  0.00000000000E+00 0.  1.
         11    1    3    3    0    0 -0.12571181326E+02 -0.16979276002E+02  0.28077205677E+02  0.35137727479E+02  0.51100000000E-03 0. -1.
        -11    1    3    3    0    0 -0.79452322639E+00 -0.57148209150E+00  0.30201738470E+01  0.31747927910E+01  0.51100000000E-03 0.  1.
         12    1    3    3    0    0  0.76676507298E+01 -0.15411787409E+00 -0.33276712405E+02  0.34149029394E+02  0.00000000000E+00 0. -1.
</event>
<event>
 7    1  0.3440346E-013  0.7246155E+02  0.7816164E-02  0.1226708E+00
        -11   -1    0    0    0    0  0.00000000000E+00  0.00000000000E+00  0.45593999997E+02  0.45594000000E+02  0.51100000000E-03 0.  1.
         11   -1    0    0    0    0 -0.00000000000E+00 -0.00000000000E+00 -0.45593999997E+02  0.45594000000E+02  0.51100000000E-03 0. -1.
    9900012    2    1    2    0    0 -0.72202186082E+01 -0.43936494435E+01 -0.16710602907E+02  0.72461549143E+02  0.69999972447E+02 0.  0.
        -12    1    1    2    0    0  0.72202186082E+01  0.43936494435E+01  0.16710602907E+02  0.18726450857E+02  0.00000000000E+00 0.  1.
         11    1    3    3    0    0 -0.12837044365E+02 -0.21110370929E+01 -0.12256917077E+02  0.17873953176E+02  0.51100000000E-03 0. -1.
        -11    1    3    3    0    0 -0.23844152212E+01  0.25413609945E+02 -0.90583446551E+00  0.25541290937E+02  0.51100000000E-03 0.  1.
         12    1    3    3    0    0  0.80012409782E+01 -0.27696222295E+02 -0.35478513642E+01  0.29046305030E+02  0.00000000000E+00 0. -1.
</event>
<event>
 7    1  0.3440346E-013  0.7246159E+02  0.7816164E-02  0.1226708E+00
        -11   -1    0    0    0    0  0.00000000000E+00  0.00000000000E+00  0.45593999997E+02  0.45594000000E+02  0.51100000000E-03 0. -1.
         11   -1    0    0    0    0 -0.00000000000E+00 -0.00000000000E+00 -0.45593999997E+02  0.45594000000E+02  0.51100000000E-03 0.  1.
    9900012    2    1    2    0    0  0.92254958434E+01 -0.49140902052E+00  0.16288861487E+02  0.72461594447E+02  0.70000031464E+02 0.  0.
        -12    1    1    2    0    0 -0.92254958434E+01  0.49140902052E+00 -0.16288861487E+02  0.18726405553E+02  0.00000000000E+00 0.  1.
         11    1    3    3    0    0 -0.34041108795E+01  0.13969641764E+02 -0.13249647581E+02  0.19552289461E+02  0.51100000000E-03 0.  1.
        -11    1    3    3    0    0 -0.13473925812E+02  0.10786432943E+01  0.91741452086E+01  0.16336311968E+02  0.51100000000E-03 0. -1.
         12    1    3    3    0    0  0.26103532535E+02 -0.15539694078E+02  0.20364363860E+02  0.36572993018E+02  0.00000000000E+00 0. -1.
</event>
<event>
 7    1  0.3440346E-013  0.7246157E+02  0.7816164E-02  0.1226708E+00
        -11   -1    0    0    0    0  0.00000000000E+00  0.00000000000E+00  0.45593999997E+02  0.45594000000E+02  0.51100000000E-03 0. -1.
         11   -1    0    0    0    0 -0.00000000000E+00 -0.00000000000E+00 -0.45593999997E+02  0.45594000000E+02  0.51100000000E-03 0.  1.
    9900012    2    1    2    0    0  0.12587192393E+02  0.13032898345E+02  0.47313257137E+01  0.72461566954E+02  0.69999995649E+02 0.  0.
        -12    1    1    2    0    0 -0.12587192393E+02 -0.13032898345E+02 -0.47313257137E+01  0.18726433046E+02  0.00000000000E+00 0.  1.
         11    1    3    3    0    0  0.12484970683E+02  0.98469292201E+01  0.13852295460E+01  0.15961057896E+02  0.51100000000E-03 0. -1.
        -11    1    3    3    0    0  0.11705571314E+02  0.67249642594E+01 -0.23465813069E+02  0.27071939852E+02  0.51100000000E-03 0.  1.
         12    1    3    3    0    0 -0.11603349603E+02 -0.35389951345E+01  0.26811909237E+02  0.29428569206E+02  0.00000000000E+00 0. -1.
</event>
<event>
 7    1  0.3440346E-013  0.7246161E+02  0.7816164E-02  0.1226708E+00
        -11   -1    0    0    0    0  0.00000000000E+00  0.00000000000E+00  0.45593999997E+02  0.45594000000E+02  0.51100000000E-03 0.  1.
         11   -1    0    0    0    0 -0.00000000000E+00 -0.00000000000E+00 -0.45593999997E+02  0.45594000000E+02  0.51100000000E-03 0. -1.
    9900012    2    1    2    0    0  0.91820489352E+01  0.71851780712E+01 -0.14654044048E+02  0.72461606500E+02  0.70000047164E+02 0.  0.
        -12    1    1    2    0    0 -0.91820489352E+01 -0.71851780712E+01  0.14654044048E+02  0.18726393500E+02  0.00000000000E+00 0.  1.
         11    1    3    3    0    0 -0.78889441717E+01  0.19654097702E+02  0.66747446972E+01  0.22205206904E+02  0.51100000000E-03 0. -1.
        -11    1    3    3    0    0  0.23990431374E+02  0.63372872795E+01 -0.75464094840E+01  0.25935502770E+02  0.51100000000E-03 0.  1.
        -12    1    3    3    0    0 -0.69194382675E+01 -0.18806206910E+02 -0.13782379261E+02  0.24320896825E+02  0.00000000000E+00 0.  1.
</event>
<event>
 7    1  0.3440346E-013  0.7246164E+02  0.7816164E-02  0.1226708E+00
        -11   -1    0    0    0    0  0.00000000000E+00  0.00000000000E+00  0.45593999997E+02  0.45594000000E+02  0.51100000000E-03 0.  1.
         11   -1    0    0    0    0 -0.00000000000E+00 -0.00000000000E+00 -0.45593999997E+02  0.45594000000E+02  0.51100000000E-03 0. -1.
    9900012    2    1    2    0    0 -0.55175267185E+00 -0.17638922561E+02  0.62642371207E+01  0.72461636583E+02  0.70000086353E+02 0.  0.
        -12    1    1    2    0    0  0.55175267185E+00  0.17638922561E+02 -0.62642371207E+01  0.18726363417E+02  0.00000000000E+00 0.  1.
         11    1    3    3    0    0 -0.95067281484E+01 -0.19866819132E+02 -0.16825465070E+02  0.27715783547E+02  0.51100000000E-03 0. -1.
        -11    1    3    3    0    0 -0.69261509328E+01 -0.13334676427E+02  0.42853390919E+01  0.15625277391E+02  0.51100000000E-03 0.  1.
        -12    1    3    3    0    0  0.15881126409E+02  0.15562572998E+02  0.18804363099E+02  0.29120575645E+02  0.00000000000E+00 0.  1.
</event>
<event>
 7    1  0.3440346E-013  0.7246158E+02  0.7816164E-02  0.1226708E+00
        -11   -1    0    0    0    0  0.00000000000E+00  0.00000000000E+00  0.45593999997E+02  0.45594000000E+02  0.51100000000E-03 0. -1.
         11   -1    0    0    0    0 -0.00000000000E+00 -0.00000000000E+00 -0.45593999997E+02  0.45594000000E+02  0.51100000000E-03 0.  1.
    9900012    2    1    2    0    0 -0.82695261334E+01  0.16718723399E+02  0.16666919597E+01  0.72461584522E+02  0.70000018534E+02 0.  0.
        -12    1    1    2    0    0  0.82695261334E+01 -0.16718723399E+02 -0.16666919597E+01  0.18726415478E+02  0.00000000000E+00 0.  1.
         11    1    3    3    0    0  0.13564738190E+01 -0.91827802874E+01 -0.43917539367E+00  0.92928117551E+01  0.51100000000E-03 0. -1.
        -11    1    3    3    0    0 -0.18270473941E+01  0.31049346011E+02 -0.21479879570E+02  0.37799275343E+02  0.51100000000E-03 0.  1.
         12    1    3    3    0    0 -0.77989525583E+01 -0.51478423239E+01  0.23585746923E+02  0.25369497424E+02  0.00000000000E+00 0. -1.
</event>
<event>
 7    1  0.3440346E-013  0.7246158E+02  0.7816164E-02  0.1226708E+00
        -11   -1    0    0    0    0  0.00000000000E+00  0.00000000000E+00  0.45593999997E+02  0.45594000000E+02  0.51100000000E-03 0.  1.
         11   -1    0    0    0    0 -0.00000000000E+00 -0.00000000000E+00 -0.45593999997E+02  0.45594000000E+02  0.51100000000E-03 0. -1.
    9900012    2    1    2    0    0 -0.10442400882E+02 -0.11964313376E+02 -0.99242345841E+01  0.72461575813E+02  0.70000007189E+02 0.  0.
        -12    1    1    2    0    0  0.10442400882E+02  0.11964313376E+02  0.99242345841E+01  0.18726424187E+02  0.00000000000E+00 0.  1.
         11    1    3    3    0    0 -0.27591101236E+02  0.10552789271E+02 -0.18197863058E+00  0.29540875838E+02  0.51100000000E-03 0. -1.
        -11    1    3    3    0    0  0.70334639125E+01  0.61799009336E+01 -0.82134228930E+01  0.12454762384E+02  0.51100000000E-03 0.  1.
        -12    1    3    3    0    0  0.10115236442E+02 -0.28697003581E+02 -0.15288330605E+01  0.30465937591E+02  0.00000000000E+00 0.  1.
</event>
<event>
 7    1  0.3440346E-013  0.7246161E+02  0.7816164E-02  0.1226708E+00
        -11   -1    0    0    0    0  0.00000000000E+00  0.00000000000E+00  0.45593999997E+02  0.45594000000E+02  0.51100000000E-03 0.  1.
         11   -1    0    0    0    0 -0.00000000000E+00 -0.00000000000E+00 -0.45593999997E+02  0.45594000000E+02  0.51100000000E-03 0. -1.
    9900012    2    1    2    0    0 -0.74938616647E+01 -0.69942965427E+01 -0.15671610178E+02  0.72461614542E+02  0.70000057640E+02 0.  0.
        -12    1    1    2    0    0  0.74938616647E+01  0.69942965427E+01  0.15671610178E+02  0.18726385458E+02  0.00000000000E+00 0.  1.
         11    1    3    3    0    0 -0.94549103485E+01  0.18355445214E+01 -0.18687469357E+01  0.98110533970E+01  0.51100000000E-03 0. -1.
        -11    1    3    3    0    0 -0.18078465053E+02  0.17086754458E+02  0.42643421293E+01  0.25238317905E+02  0.51100000000E-03 0.  1.
        -12    1    3    3    0    0  0.20039513737E+02 -0.25916595522E+02 -0.18067205371E+02  0.37412243240E+02  0.00000000000E+00 0.  1.
</event>
<event>
 7    1  0.3440346E-013  0.7246158E+02  0.7816164E-02  0.1226708E+00
        -11   -1    0    0    0    0  0.00000000000E+00  0.00000000000E+00  0.45593999997E+02  0.45594000000E+02  0.51100000000E-03 0.  1.
         11   -1    0    0    0    0 -0.00000000000E+00 -0.00000000000E+00 -0.45593999997E+02  0.45594000000E+02  0.51100000000E-03 0. -1.
    9900012    2    1    2    0    0 -0.66376555750E+01  0.15282754905E+02  0.85473772376E+01  0.72461582119E+02  0.70000015403E+02 0.  0.
        -12    1    1    2    0    0  0.66376555750E+01 -0.15282754905E+02 -0.85473772376E+01  0.18726417881E+02  0.00000000000E+00 0.  1.
         11    1    3    3    0    0 -0.69630484924E+01  0.10429731522E+01 -0.15558388534E+02  0.17077332677E+02  0.51100000000E-03 0. -1.
        -11    1    3    3    0    0 -0.14767200554E+02  0.14547813349E+02  0.32169402697E+02  0.38269825654E+02  0.51100000000E-03 0.  1.
         12    1    3    3    0    0  0.15092593471E+02 -0.30803159561E+00 -0.80636369254E+01  0.17114423788E+02  0.00000000000E+00 0. -1.
</event>
<event>
 7    1  0.3440346E-013  0.7246154E+02  0.7816164E-02  0.1226708E+00
        -11   -1    0    0    0    0  0.00000000000E+00  0.00000000000E+00  0.45593999997E+02  0.45594000000E+02  0.51100000000E-03 0.  1.
         11   -1    0    0    0    0 -0.00000000000E+00 -0.00000000000E+00 -0.45593999997E+02  0.45594000000E+02  0.51100000000E-03 0. -1.
    9900012    2    1    2    0    0  0.14890689768E+02 -0.11227363133E+02 -0.17011742772E+01  0.72461539614E+02  0.69999960033E+02 0.  0.
        -12    1    1    2    0    0 -0.14890689768E+02  0.11227363133E+02  0.17011742772E+01  0.18726460386E+02  0.00000000000E+00 0.  1.
         11    1    3    3    0    0 -0.18296812589E+02 -0.47215829226E+01 -0.67065214880E+01  0.20051038051E+02  0.51100000000E-03 0. -1.
        -11    1    3    3    0    0 -0.25514888358E+01  0.11723101263E+02  0.15127840569E+00  0.11998503403E+02  0.51100000000E-03 0.  1.
         12    1    3    3    0    0  0.35738991193E+02 -0.18228881473E+02  0.48540688052E+01  0.40411998159E+02  0.00000000000E+00 0. -1.
</event>
<event>
 7    1  0.3440346E-013  0.7246143E+02  0.7816164E-02  0.1226708E+00
        -11   -1    0    0    0    0  0.00000000000E+00  0.00000000000E+00  0.45593999997E+02  0.45594000000E+02  0.51100000000E-03 0.  1.
         11   -1    0    0    0    0 -0.00000000000E+00 -0.00000000000E+00 -0.45593999997E+02  0.45594000000E+02  0.51100000000E-03 0. -1.
    9900012    2    1    2    0    0  0.14623172855E+02  0.49363670562E+01 -0.10605632772E+02  0.72461431960E+02  0.69999819794E+02 0.  0.
        -12    1    1    2    0    0 -0.14623172855E+02 -0.49363670562E+01  0.10605632772E+02  0.18726568040E+02  0.00000000000E+00 0.  1.
         11    1    3    3    0    0  0.13027603629E+02  0.48270561039E+01  0.69828684204E+00  0.13910662519E+02  0.51100000000E-03 0. -1.
        -11    1    3    3    0    0  0.12701687220E+02  0.13667569988E+02  0.17012027508E+02  0.25249641736E+02  0.51100000000E-03 0.  1.
         12    1    3    3    0    0 -0.11106117995E+02 -0.13558259035E+02 -0.28315947122E+02  0.33301127705E+02  0.00000000000E+00 0. -1.
</event>
<event>
 7    1  0.3440346E-013  0.7246162E+02  0.7816164E-02  0.1226708E+00
        -11   -1    0    0    0    0  0.00000000000E+00  0.00000000000E+00  0.45593999997E+02  0.45594000000E+02  0.51100000000E-03 0. -1.
         11   -1    0    0    0    0 -0.00000000000E+00 -0.00000000000E+00 -0.45593999997E+02  0.45594000000E+02  0.51100000000E-03 0.  1.
    9900012    2    1    2    0    0 -0.11617126198E+02  0.88909327523E+01  0.11690638250E+02  0.72461619437E+02  0.70000064017E+02 0.  0.
        -12    1    1    2    0    0  0.11617126198E+02 -0.88909327523E+01 -0.11690638250E+02  0.18726380563E+02  0.00000000000E+00 0.  1.
         11    1    3    3    0    0  0.10153709197E+01 -0.31105969565E+00  0.25095775124E+02  0.25118233727E+02  0.51100000000E-03 0. -1.
        -11    1    3    3    0    0 -0.22320549164E+02 -0.92966911642E+01 -0.42821927765E+01  0.24555499523E+02  0.51100000000E-03 0.  1.
        -12    1    3    3    0    0  0.96880520459E+01  0.18498683612E+02 -0.91229440977E+01  0.22787886186E+02  0.00000000000E+00 0.  1.
</event>
<event>
 7    1  0.3440346E-013  0.7246155E+02  0.7816164E-02  0.1226708E+00
        -11   -1    0    0    0    0  0.00000000000E+00  0.00000000000E+00  0.45593999997E+02  0.45594000000E+02  0.51100000000E-03 0.  1.
         11   -1    0    0    0    0 -0.00000000000E+00 -0.00000000000E+00 -0.45593999997E+02  0.45594000000E+02  0.51100000000E-03 0. -1.
    9900012    2    1    2    0    0  0.16794197263E+02  0.14077936959E+01 -0.81641260413E+01  0.72461550822E+02  0.69999974633E+02 0.  0.
        -12    1    1    2    0    0 -0.16794197263E+02 -0.14077936959E+01  0.81641260413E+01  0.18726449178E+02  0.00000000000E+00 0.  1.
         11    1    3    3    0    0 -0.87965467633E+01  0.21456447406E+02 -0.70923851462E+01  0.24249954589E+02  0.51100000000E-03 0. -1.
        -11    1    3    3    0    0 -0.23901638982E+01  0.27916151898E+01  0.98204924938E+01  0.10485612615E+02  0.51100000000E-03 0.  1.
         12    1    3    3    0    0  0.27980907925E+02 -0.22840268900E+02 -0.10892233389E+02  0.37725983618E+02  0.00000000000E+00 0. -1.
</event>
<event>
 7    1  0.3440346E-013  0.7246153E+02  0.7816164E-02  0.1226708E+00
        -11   -1    0    0    0    0  0.00000000000E+00  0.00000000000E+00  0.45593999997E+02  0.45594000000E+02  0.51100000000E-03 0.  1.
         11   -1    0    0    0    0 -0.00000000000E+00 -0.00000000000E+00 -0.45593999997E+02  0.45594000000E+02  0.51100000000E-03 0. -1.
    9900012    2    1    2    0    0  0.17722444641E+02 -0.34063574082E+01 -0.49992183514E+01  0.72461534798E+02  0.69999953759E+02 0.  0.
        -12    1    1    2    0    0 -0.17722444641E+02  0.34063574082E+01  0.49992183514E+01  0.18726465202E+02  0.00000000000E+00 0.  1.
         11    1    3    3    0    0 -0.20092452306E+01  0.23291730483E+02 -0.52823903961E+01  0.23967591114E+02  0.51100000000E-03 0. -1.
        -11    1    3    3    0    0 -0.17609677458E+01 -0.35462800370E+01  0.13634812912E+02  0.14198071450E+02  0.51100000000E-03 0.  1.
         12    1    3    3    0    0  0.21492657618E+02 -0.23151807854E+02 -0.13351640867E+02  0.34295872233E+02  0.00000000000E+00 0. -1.
</event>
<event>
 7    1  0.3440346E-013  0.7246157E+02  0.7816164E-02  0.1226708E+00
        -11   -1    0    0    0    0  0.00000000000E+00  0.00000000000E+00  0.45593999997E+02  0.45594000000E+02  0.51100000000E-03 0.  1.
         11   -1    0    0    0    0 -0.00000000000E+00 -0.00000000000E+00 -0.45593999997E+02  0.45594000000E+02  0.51100000000E-03 0. -1.
    9900012    2    1    2    0    0  0.80669491304E+01 -0.65635434891E+01 -0.15573157218E+02  0.72461574897E+02  0.70000005996E+02 0.  0.
        -12    1    1    2    0    0 -0.80669491304E+01  0.65635434891E+01  0.15573157218E+02  0.18726425103E+02  0.00000000000E+00 0.  1.
         11    1    3    3    0    0  0.25013850213E+02  0.17057393425E+02 -0.12338138315E+01  0.30301314654E+02  0.51100000000E-03 0. -1.
        -11    1    3    3    0    0  0.72760406020E+00  0.53889398507E+01 -0.36457050883E+01  0.65468501002E+01  0.51100000000E-03 0.  1.
        -12    1    3    3    0    0 -0.17674505143E+02 -0.29009876765E+02 -0.10693638298E+02  0.35613410143E+02  0.00000000000E+00 0.  1.
</event>
<event>
 7    1  0.3450846E-013  0.7246163E+02  0.7816164E-02  0.1226708E+00
        -11   -1    0    0    0    0  0.00000000000E+00  0.00000000000E+00  0.45593999997E+02  0.45594000000E+02  0.51100000000E-03 0.  1.
         11   -1    0    0    0    0 -0.00000000000E+00 -0.00000000000E+00 -0.45593999997E+02  0.45594000000E+02  0.51100000000E-03 0. -1.
    9900012    2    1    2    0    0 -0.16301874457E+02  0.10207131991E+01 -0.91588187876E+01  0.72461630148E+02  0.70000077970E+02 0.  0.
        -12    1    1    2    0    0  0.16301874457E+02 -0.10207131991E+01  0.91588187876E+01  0.18726369852E+02  0.00000000000E+00 0.  1.
         11    1    3    3    0    0 -0.67938203100E+01 -0.16331989582E+02 -0.13460377756E+02  0.22227722503E+02  0.51100000000E-03 0. -1.
        -11    1    3    3    0    0 -0.15628291854E+01 -0.84453695380E+01  0.18014116666E+02  0.19956830941E+02  0.51100000000E-03 0.  1.
         12    1    3    3    0    0 -0.79452249620E+01  0.25798072319E+02 -0.13712557698E+02  0.30277076703E+02  0.00000000000E+00 0. -1.
</event>
<event>
 7    1  0.3440346E-013  0.7246170E+02  0.7816164E-02  0.1226708E+00
        -11   -1    0    0    0    0  0.00000000000E+00  0.00000000000E+00  0.45593999997E+02  0.45594000000E+02  0.51100000000E-03 0.  1.
         11   -1    0    0    0    0 -0.00000000000E+00 -0.00000000000E+00 -0.45593999997E+02  0.45594000000E+02  0.51100000000E-03 0. -1.
    9900012    2    1    2    0    0 -0.11913314566E+02 -0.43393953119E+01 -0.13781032990E+02  0.72461700689E+02  0.70000169863E+02 0.  0.
        -12    1    1    2    0    0  0.11913314566E+02  0.43393953119E+01  0.13781032990E+02  0.18726299311E+02  0.00000000000E+00 0.  1.
         11    1    3    3    0    0  0.12438016053E+02  0.84952422901E+01  0.52586431643E+01  0.15953893352E+02  0.51100000000E-03 0. -1.
        -11    1    3    3    0    0  0.69109546022E+01 -0.55855723982E+01  0.98940311117E+01  0.13298562495E+02  0.51100000000E-03 0.  1.
         12    1    3    3    0    0 -0.31262285221E+02 -0.72490652038E+01 -0.28933707266E+02  0.43209244841E+02  0.00000000000E+00 0. -1.
</event>
<event>
 7    1  0.3440346E-013  0.7246154E+02  0.7816164E-02  0.1226708E+00
        -11   -1    0    0    0    0  0.00000000000E+00  0.00000000000E+00  0.45593999997E+02  0.45594000000E+02  0.51100000000E-03 0. -1.
         11   -1    0    0    0    0 -0.00000000000E+00 -0.00000000000E+00 -0.45593999997E+02  0.45594000000E+02  0.51100000000E-03 0.  1.
    9900012    2    1    2    0    0  0.10788461456E+02  0.11427642337E+02  0.10183240664E+02  0.72461540099E+02  0.69999960665E+02 0.  0.
        -12    1    1    2    0    0 -0.10788461456E+02 -0.11427642337E+02 -0.10183240664E+02  0.18726459901E+02  0.00000000000E+00 0.  1.
         11    1    3    3    0    0 -0.13816164957E+02 -0.45813336781E+01  0.20563426075E+02  0.25193839020E+02  0.51100000000E-03 0. -1.
        -11    1    3    3    0    0  0.20791157829E+01 -0.25516258807E+01  0.10744860366E+02  0.11237683997E+02  0.51100000000E-03 0.  1.
        -12    1    3    3    0    0  0.22525510630E+02  0.18560601896E+02 -0.21125045776E+02  0.36030017082E+02  0.00000000000E+00 0.  1.
</event>
<event>
 7    1  0.3440346E-013  0.7246155E+02  0.7816164E-02  0.1226708E+00
        -11   -1    0    0    0    0  0.00000000000E+00  0.00000000000E+00  0.45593999997E+02  0.45594000000E+02  0.51100000000E-03 0.  1.
         11   -1    0    0    0    0 -0.00000000000E+00 -0.00000000000E+00 -0.45593999997E+02  0.45594000000E+02  0.51100000000E-03 0. -1.
    9900012    2    1    2    0    0  0.16959815064E+02 -0.41747993054E+01 -0.67539480385E+01  0.72461545708E+02  0.69999967972E+02 0.  0.
        -12    1    1    2    0    0 -0.16959815064E+02  0.41747993054E+01  0.67539480385E+01  0.18726454292E+02  0.00000000000E+00 0.  1.
         11    1    3    3    0    0 -0.12570672973E+02 -0.98728266083E+00  0.33585050300E+01  0.13048988557E+02  0.51100000000E-03 0. -1.
        -11    1    3    3    0    0  0.12702145690E+02 -0.17973417236E+02  0.14325929743E+02  0.26260626335E+02  0.51100000000E-03 0.  1.
         12    1    3    3    0    0  0.16828342347E+02  0.14785900591E+02 -0.24438382811E+02  0.33151930817E+02  0.00000000000E+00 0. -1.
</event>
<event>
 7    1  0.3440346E-013  0.7246156E+02  0.7816164E-02  0.1226708E+00
        -11   -1    0    0    0    0  0.00000000000E+00  0.00000000000E+00  0.45593999997E+02  0.45594000000E+02  0.51100000000E-03 0. -1.
         11   -1    0    0    0    0 -0.00000000000E+00 -0.00000000000E+00 -0.45593999997E+02  0.45594000000E+02  0.51100000000E-03 0.  1.
    9900012    2    1    2    0    0 -0.12394965325E+02 -0.13552626564E+02  0.36566014709E+01  0.72461559161E+02  0.69999985497E+02 0.  0.
        -12    1    1    2    0    0  0.12394965325E+02  0.13552626564E+02 -0.36566014709E+01  0.18726440839E+02  0.00000000000E+00 0.  1.
         11    1    3    3    0    0  0.28690947194E+01 -0.15714232725E+02  0.31637917723E+02  0.35441877106E+02  0.51100000000E-03 0. -1.
        -11    1    3    3    0    0  0.29911238188E+01 -0.15466148126E+01  0.44723234090E-01  0.33676162944E+01  0.51100000000E-03 0.  1.
        -12    1    3    3    0    0 -0.18255183863E+02  0.37082209739E+01 -0.28026039487E+02  0.33652065761E+02  0.00000000000E+00 0.  1.
</event>
<event>
 7    1  0.3440346E-013  0.7246150E+02  0.7816164E-02  0.1226708E+00
        -11   -1    0    0    0    0  0.00000000000E+00  0.00000000000E+00  0.45593999997E+02  0.45594000000E+02  0.51100000000E-03 0.  1.
         11   -1    0    0    0    0 -0.00000000000E+00 -0.00000000000E+00 -0.45593999997E+02  0.45594000000E+02  0.51100000000E-03 0. -1.
    9900012    2    1    2    0    0 -0.13881610517E+02 -0.10555711536E+02 -0.68234539968E+01  0.72461503237E+02  0.69999912645E+02 0.  0.
        -12    1    1    2    0    0  0.13881610517E+02  0.10555711536E+02  0.68234539968E+01  0.18726496763E+02  0.00000000000E+00 0.  1.
         11    1    3    3    0    0 -0.76636041042E+01  0.50542117980E+01 -0.23205518781E+02  0.24955399955E+02  0.51100000000E-03 0. -1.
        -11    1    3    3    0    0  0.13511776621E+02 -0.13225258450E+02 -0.36859247414E+01  0.19262959534E+02  0.51100000000E-03 0.  1.
        -12    1    3    3    0    0 -0.19729783034E+02 -0.23846648831E+01  0.20067989526E+02  0.28243143748E+02  0.00000000000E+00 0.  1.
</event>
<event>
 7    1  0.3440346E-013  0.7246156E+02  0.7816164E-02  0.1226708E+00
        -11   -1    0    0    0    0  0.00000000000E+00  0.00000000000E+00  0.45593999997E+02  0.45594000000E+02  0.51100000000E-03 0. -1.
         11   -1    0    0    0    0 -0.00000000000E+00 -0.00000000000E+00 -0.45593999997E+02  0.45594000000E+02  0.51100000000E-03 0.  1.
    9900012    2    1    2    0    0  0.13587616638E+02 -0.12850593890E+02 -0.95832030132E+00  0.72461562351E+02  0.69999989652E+02 0.  0.
        -12    1    1    2    0    0 -0.13587616638E+02  0.12850593890E+02  0.95832030132E+00  0.18726437649E+02  0.00000000000E+00 0.  1.
         11    1    3    3    0    0 -0.45512287057E+01 -0.67233240148E+00 -0.22931858666E+01  0.51404683900E+01  0.51100000000E-03 0. -1.
        -11    1    3    3    0    0  0.51016488162E+01 -0.37004825085E+02  0.86455339067E+01  0.38342263327E+02  0.51100000000E-03 0.  1.
         12    1    3    3    0    0  0.13037196527E+02  0.24826563597E+02 -0.73106683414E+01  0.28978830634E+02  0.00000000000E+00 0. -1.
</event>
<event>
 7    1  0.3440346E-013  0.7246168E+02  0.7816164E-02  0.1226708E+00
        -11   -1    0    0    0    0  0.00000000000E+00  0.00000000000E+00  0.45593999997E+02  0.45594000000E+02  0.51100000000E-03 0. -1.
         11   -1    0    0    0    0 -0.00000000000E+00 -0.00000000000E+00 -0.45593999997E+02  0.45594000000E+02  0.51100000000E-03 0.  1.
    9900012    2    1    2    0    0 -0.21065390691E+01  0.18107238481E+02  0.42854950574E+01  0.72461680016E+02  0.70000142933E+02 0.  0.
        -12    1    1    2    0    0  0.21065390691E+01 -0.18107238481E+02 -0.42854950574E+01  0.18726319984E+02  0.00000000000E+00 0.  1.
         11    1    3    3    0    0 -0.95023978362E+01  0.20095931481E+02 -0.12716026253E-01  0.22229309226E+02  0.51100000000E-03 0. -1.
        -11    1    3    3    0    0 -0.23478415343E+01  0.11689968007E+02  0.22501487491E+02  0.25465361797E+02  0.51100000000E-03 0.  1.
        -12    1    3    3    0    0  0.97437003014E+01 -0.13678661007E+02 -0.18203276407E+02  0.24767008993E+02  0.00000000000E+00 0.  1.
</event>
<event>
 7    1  0.3440346E-013  0.7246159E+02  0.7816164E-02  0.1226708E+00
        -11   -1    0    0    0    0  0.00000000000E+00  0.00000000000E+00  0.45593999997E+02  0.45594000000E+02  0.51100000000E-03 0. -1.
         11   -1    0    0    0    0 -0.00000000000E+00 -0.00000000000E+00 -0.45593999997E+02  0.45594000000E+02  0.51100000000E-03 0.  1.
    9900012    2    1    2    0    0 -0.17589002361E+02 -0.26652596358E+01  0.58482438032E+01  0.72461586340E+02  0.70000020902E+02 0.  0.
        -12    1    1    2    0    0  0.17589002361E+02  0.26652596358E+01 -0.58482438032E+01  0.18726413660E+02  0.00000000000E+00 0.  1.
         11    1    3    3    0    0  0.22414368245E+02  0.85931635270E+01  0.14366817199E+02  0.27975914640E+02  0.51100000000E-03 0. -1.
        -11    1    3    3    0    0 -0.12398033128E+02 -0.10043328790E+02 -0.43763954423E+01  0.16544863733E+02  0.51100000000E-03 0.  1.
        -12    1    3    3    0    0 -0.27605337479E+02 -0.12150943724E+01 -0.41421779534E+01  0.27940807967E+02  0.00000000000E+00 0.  1.
</event>
<event>
 7    1  0.3440346E-013  0.7246158E+02  0.7816164E-02  0.1226708E+00
        -11   -1    0    0    0    0  0.00000000000E+00  0.00000000000E+00  0.45593999997E+02  0.45594000000E+02  0.51100000000E-03 0. -1.
         11   -1    0    0    0    0 -0.00000000000E+00 -0.00000000000E+00 -0.45593999997E+02  0.45594000000E+02  0.51100000000E-03 0.  1.
    9900012    2    1    2    0    0  0.11088381756E+01  0.26161352818E+01  0.18509599642E+02  0.72461575760E+02  0.70000007120E+02 0.  0.
        -12    1    1    2    0    0 -0.11088381756E+01 -0.26161352818E+01 -0.18509599642E+02  0.18726424240E+02  0.00000000000E+00 0.  1.
         11    1    3    3    0    0 -0.14054695187E+02  0.23275156507E+02 -0.70496350490E+01  0.28088515835E+02  0.51100000000E-03 0. -1.
        -11    1    3    3    0    0 -0.18368352737E+01  0.26988526522E+01  0.12043755796E+02  0.12478374229E+02  0.51100000000E-03 0.  1.
        -12    1    3    3    0    0  0.17000368637E+02 -0.23357873878E+02  0.13515478895E+02  0.31894685696E+02  0.00000000000E+00 0.  1.
</event>
<event>
 7    1  0.3440346E-013  0.7246157E+02  0.7816164E-02  0.1226708E+00
        -11   -1    0    0    0    0  0.00000000000E+00  0.00000000000E+00  0.45593999997E+02  0.45594000000E+02  0.51100000000E-03 0.  1.
         11   -1    0    0    0    0 -0.00000000000E+00 -0.00000000000E+00 -0.45593999997E+02  0.45594000000E+02  0.51100000000E-03 0. -1.
    9900012    2    1    2    0    0 -0.18549529861E+02  0.20412319107E+01 -0.15580501165E+01  0.72461569322E+02  0.69999998734E+02 0.  0.
        -12    1    1    2    0    0  0.18549529861E+02 -0.20412319107E+01  0.15580501165E+01  0.18726430678E+02  0.00000000000E+00 0.  1.
         11    1    3    3    0    0  0.11301560221E+02 -0.13958510243E+02 -0.72092278464E+01  0.19352990416E+02  0.51100000000E-03 0. -1.
        -11    1    3    3    0    0  0.97797756695E+01  0.21675554126E+00 -0.13664796513E+01  0.98771585999E+01  0.51100000000E-03 0.  1.
        -12    1    3    3    0    0 -0.39630865751E+02  0.15782986613E+02  0.70176573813E+01  0.43231420306E+02  0.00000000000E+00 0.  1.
</event>
<event>
 7    1  0.3440346E-013  0.7246154E+02  0.7816164E-02  0.1226708E+00
        -11   -1    0    0    0    0  0.00000000000E+00  0.00000000000E+00  0.45593999997E+02  0.45594000000E+02  0.51100000000E-03 0. -1.
         11   -1    0    0    0    0 -0.00000000000E+00 -0.00000000000E+00 -0.45593999997E+02  0.45594000000E+02  0.51100000000E-03 0.  1.
    9900012    2    1    2    0    0  0.70632824544E+01 -0.29042276277E+01  0.17098415990E+02  0.72461539403E+02  0.69999959758E+02 0.  0.
        -12    1    1    2    0    0 -0.70632824544E+01  0.29042276277E+01 -0.17098415990E+02  0.18726460597E+02  0.00000000000E+00 0.  1.
         11    1    3    3    0    0 -0.66032820404E+01  0.24747109885E+02  0.11636230949E+02  0.28132270657E+02  0.51100000000E-03 0. -1.
        -11    1    3    3    0    0  0.40267048546E+01  0.27734555525E+01 -0.82522354035E+01  0.95919652368E+01  0.51100000000E-03 0.  1.
        -12    1    3    3    0    0  0.96398596403E+01 -0.30424793065E+02  0.13714420444E+02  0.34737303509E+02  0.00000000000E+00 0.  1.
</event>
<event>
 7    1  0.3440346E-013  0.7246154E+02  0.7816164E-02  0.1226708E+00
        -11   -1    0    0    0    0  0.00000000000E+00  0.00000000000E+00  0.45593999997E+02  0.45594000000E+02  0.51100000000E-03 0. -1.
         11   -1    0    0    0    0 -0.00000000000E+00 -0.00000000000E+00 -0.45593999997E+02  0.45594000000E+02  0.51100000000E-03 0.  1.
    9900012    2    1    2    0    0 -0.17899910159E+02 -0.33478337102E+01  0.43664164983E+01  0.72461538313E+02  0.69999958339E+02 0.  0.
        -12    1    1    2    0    0  0.17899910159E+02  0.33478337102E+01 -0.43664164983E+01  0.18726461687E+02  0.00000000000E+00 0.  1.
         11    1    3    3    0    0 -0.24096838309E+01 -0.11174200882E+01 -0.94315345447E+01  0.97984206864E+01  0.51100000000E-03 0. -1.
        -11    1    3    3    0    0  0.20964943981E+02 -0.79558524304E+01 -0.20184547558E+01  0.22514409251E+02  0.51100000000E-03 0.  1.
         12    1    3    3    0    0 -0.36455170310E+02  0.57254388084E+01  0.15816405799E+02  0.40148708376E+02  0.00000000000E+00 0. -1.
</event>
<event>
 7    1  0.3440346E-013  0.7246098E+02  0.7816164E-02  0.1226710E+00
        -11   -1    0    0    0    0  0.00000000000E+00  0.00000000000E+00  0.45593999997E+02  0.45594000000E+02  0.51100000000E-03 0.  1.
         11   -1    0    0    0    0 -0.00000000000E+00 -0.00000000000E+00 -0.45593999997E+02  0.45594000000E+02  0.51100000000E-03 0. -1.
    9900012    2    1    2    0    0 -0.75666289639E+01 -0.49377215758E+01 -0.16403240081E+02  0.72460980659E+02  0.69999231887E+02 0.  0.
        -12    1    1    2    0    0  0.75666289639E+01  0.49377215758E+01  0.16403240081E+02  0.18727019341E+02  0.00000000000E+00 0.  1.
         11    1    3    3    0    0  0.16785083332E+02  0.19938243089E+02  0.52812329495E+01  0.26592555004E+02  0.51100000000E-03 0.  1.
        -11    1    3    3    0    0 -0.99687821810E+01  0.11877894427E+01 -0.90964756233E+01  0.13547447396E+02  0.51100000000E-03 0. -1.
        -12    1    3    3    0    0 -0.14382930115E+02 -0.26063754108E+02 -0.12587997407E+02  0.32320978258E+02  0.00000000000E+00 0.  1.
</event>
<event>
 7    1  0.3440346E-013  0.7246145E+02  0.7816164E-02  0.1226708E+00
        -11   -1    0    0    0    0  0.00000000000E+00  0.00000000000E+00  0.45593999997E+02  0.45594000000E+02  0.51100000000E-03 0. -1.
         11   -1    0    0    0    0 -0.00000000000E+00 -0.00000000000E+00 -0.45593999997E+02  0.45594000000E+02  0.51100000000E-03 0.  1.
    9900012    2    1    2    0    0 -0.69292649647E+01  0.15604853617E+02  0.76913878698E+01  0.72461451554E+02  0.69999845318E+02 0.  0.
        -12    1    1    2    0    0  0.69292649647E+01 -0.15604853617E+02 -0.76913878698E+01  0.18726548446E+02  0.00000000000E+00 0.  1.
         11    1    3    3    0    0 -0.23737492946E+01  0.79875962082E+00 -0.68088762710E+01  0.72548948290E+01  0.51100000000E-03 0. -1.
        -11    1    3    3    0    0  0.99389886124E+01 -0.19796535227E+02 -0.53136898624E+01  0.22779850786E+02  0.51100000000E-03 0.  1.
         12    1    3    3    0    0 -0.14494504283E+02  0.34602629223E+02  0.19813954003E+02  0.42426705938E+02  0.00000000000E+00 0. -1.
</event>
<event>
 7    1  0.3440346E-013  0.7246158E+02  0.7816164E-02  0.1226708E+00
        -11   -1    0    0    0    0  0.00000000000E+00  0.00000000000E+00  0.45593999997E+02  0.45594000000E+02  0.51100000000E-03 0. -1.
         11   -1    0    0    0    0 -0.00000000000E+00 -0.00000000000E+00 -0.45593999997E+02  0.45594000000E+02  0.51100000000E-03 0.  1.
    9900012    2    1    2    0    0 -0.27420022981E+01  0.90720706249E+01  0.16151095426E+02  0.72461576810E+02  0.70000008488E+02 0.  0.
        -12    1    1    2    0    0  0.27420022981E+01 -0.90720706249E+01 -0.16151095426E+02  0.18726423190E+02  0.00000000000E+00 0.  1.
         11    1    3    3    0    0 -0.18809335998E+02  0.22946176688E+02 -0.35221772242E+01  0.29878485202E+02  0.51100000000E-03 0. -1.
        -11    1    3    3    0    0 -0.78292065397E+00  0.57573856864E+01 -0.43654408274E+01  0.72675668949E+01  0.51100000000E-03 0.  1.
        -12    1    3    3    0    0  0.16850254353E+02 -0.19631491750E+02  0.24038713478E+02  0.35315524713E+02  0.00000000000E+00 0.  1.
</event>
<event>
 7    1  0.3440346E-013  0.7246157E+02  0.7816164E-02  0.1226708E+00
        -11   -1    0    0    0    0  0.00000000000E+00  0.00000000000E+00  0.45593999997E+02  0.45594000000E+02  0.51100000000E-03 0. -1.
         11   -1    0    0    0    0 -0.00000000000E+00 -0.00000000000E+00 -0.45593999997E+02  0.45594000000E+02  0.51100000000E-03 0.  1.
    9900012    2    1    2    0    0 -0.15458374952E+01  0.58511748695E+01  0.17721551539E+02  0.72461568149E+02  0.69999997206E+02 0.  0.
        -12    1    1    2    0    0  0.15458374952E+01 -0.58511748695E+01 -0.17721551539E+02  0.18726431851E+02  0.00000000000E+00 0.  1.
         11    1    3    3    0    0  0.29289389407E+01  0.32147242368E+02  0.26857099667E+02  0.41991995403E+02  0.51100000000E-03 0. -1.
        -11    1    3    3    0    0  0.30155309490E+01 -0.22675295431E+01 -0.26131223524E+00  0.37819838020E+01  0.51100000000E-03 0.  1.
        -12    1    3    3    0    0 -0.74903073849E+01 -0.24028537955E+02 -0.88742358927E+01  0.26687588944E+02  0.00000000000E+00 0.  1.
</event>
<event>
 7    1  0.3440346E-013  0.7246160E+02  0.7816164E-02  0.1226708E+00
        -11   -1    0    0    0    0  0.00000000000E+00  0.00000000000E+00  0.45593999997E+02  0.45594000000E+02  0.51100000000E-03 0. -1.
         11   -1    0    0    0    0 -0.00000000000E+00 -0.00000000000E+00 -0.45593999997E+02  0.45594000000E+02  0.51100000000E-03 0.  1.
    9900012    2    1    2    0    0  0.75223551111E+01  0.10138478420E+02  0.13831249052E+02  0.72461600949E+02  0.70000039933E+02 0.  0.
        -12    1    1    2    0    0 -0.75223551111E+01 -0.10138478420E+02 -0.13831249052E+02  0.18726399051E+02  0.00000000000E+00 0.  1.
         11    1    3    3    0    0  0.35484188950E+00  0.74636434652E+01 -0.55559917537E+01  0.93113334798E+01  0.51100000000E-03 0. -1.
        -11    1    3    3    0    0  0.22235519300E+02  0.62785286441E+01 -0.13525963953E+02  0.26772933003E+02  0.51100000000E-03 0.  1.
         12    1    3    3    0    0 -0.15068006079E+02 -0.36036936889E+01  0.32913204758E+02  0.36377334466E+02  0.00000000000E+00 0. -1.
</event>
<event>
 7    1  0.3440346E-013  0.7246155E+02  0.7816164E-02  0.1226708E+00
        -11   -1    0    0    0    0  0.00000000000E+00  0.00000000000E+00  0.45593999997E+02  0.45594000000E+02  0.51100000000E-03 0.  1.
         11   -1    0    0    0    0 -0.00000000000E+00 -0.00000000000E+00 -0.45593999997E+02  0.45594000000E+02  0.51100000000E-03 0. -1.
    9900012    2    1    2    0    0 -0.29913075329E+01 -0.17584960791E+02 -0.57009838688E+01  0.72461548552E+02  0.69999971676E+02 0.  0.
        -12    1    1    2    0    0  0.29913075329E+01  0.17584960791E+02  0.57009838688E+01  0.18726451448E+02  0.00000000000E+00 0.  1.
         11    1    3    3    0    0  0.61395712911E+01 -0.63587185271E+01 -0.69394738516E+01  0.11237612493E+02  0.51100000000E-03 0. -1.
        -11    1    3    3    0    0 -0.10186375806E+02  0.22906323464E+02  0.81932156275E+01  0.26374053335E+02  0.51100000000E-03 0.  1.
         12    1    3    3    0    0  0.10554969820E+01 -0.34132565728E+02 -0.69547256447E+01  0.34849882724E+02  0.00000000000E+00 0. -1.
</event>
<event>
 7    1  0.3440346E-013  0.7246158E+02  0.7816164E-02  0.1226708E+00
        -11   -1    0    0    0    0  0.00000000000E+00  0.00000000000E+00  0.45593999997E+02  0.45594000000E+02  0.51100000000E-03 0.  1.
         11   -1    0    0    0    0 -0.00000000000E+00 -0.00000000000E+00 -0.45593999997E+02  0.45594000000E+02  0.51100000000E-03 0. -1.
    9900012    2    1    2    0    0 -0.12837855491E+02  0.12868045411E+02 -0.45035224818E+01  0.72461579064E+02  0.70000011424E+02 0.  0.
        -12    1    1    2    0    0  0.12837855491E+02 -0.12868045411E+02  0.45035224818E+01  0.18726420936E+02  0.00000000000E+00 0.  1.
         11    1    3    3    0    0 -0.14477546481E+02  0.10022247527E+02 -0.71476140804E+01  0.19003504543E+02  0.51100000000E-03 0. -1.
        -11    1    3    3    0    0  0.86305109938E+01 -0.23691134266E+02 -0.31517069856E+01  0.25410407711E+02  0.51100000000E-03 0.  1.
         12    1    3    3    0    0 -0.69908200040E+01  0.26536932150E+02  0.57957985843E+01  0.28047666811E+02  0.00000000000E+00 0. -1.
</event>
<event>
 7    1  0.3440346E-013  0.7246154E+02  0.7816164E-02  0.1226708E+00
        -11   -1    0    0    0    0  0.00000000000E+00  0.00000000000E+00  0.45593999997E+02  0.45594000000E+02  0.51100000000E-03 0.  1.
         11   -1    0    0    0    0 -0.00000000000E+00 -0.00000000000E+00 -0.45593999997E+02  0.45594000000E+02  0.51100000000E-03 0. -1.
    9900012    2    1    2    0    0  0.14009795221E+02  0.78529084722E+01 -0.96300393630E+01  0.72461543001E+02  0.69999964445E+02 0.  0.
        -12    1    1    2    0    0 -0.14009795221E+02 -0.78529084722E+01  0.96300393630E+01  0.18726456999E+02  0.00000000000E+00 0.  1.
         11    1    3    3    0    0 -0.92366340195E+01 -0.16120598738E+02  0.70592945874E+01  0.19875179295E+02  0.51100000000E-03 0. -1.
        -11    1    3    3    0    0  0.20155124716E+02 -0.49481047962E+01 -0.60860445220E+01  0.21627591905E+02  0.51100000000E-03 0.  1.
         12    1    3    3    0    0  0.30913045242E+01  0.28921612006E+02 -0.10603289428E+02  0.30958771801E+02  0.00000000000E+00 0. -1.
</event>
<event>
 7    1  0.3440346E-013  0.7246140E+02  0.7816164E-02  0.1226708E+00
        -11   -1    0    0    0    0  0.00000000000E+00  0.00000000000E+00  0.45593999997E+02  0.45594000000E+02  0.51100000000E-03 0. -1.
         11   -1    0    0    0    0 -0.00000000000E+00 -0.00000000000E+00 -0.45593999997E+02  0.45594000000E+02  0.51100000000E-03 0.  1.
    9900012    2    1    2    0    0  0.14240606186E+00  0.18539520683E+02  0.26365690129E+01  0.72461398525E+02  0.69999776238E+02 0.  0.
        -12    1    1    2    0    0 -0.14240606186E+00 -0.18539520683E+02 -0.26365690129E+01  0.18726601475E+02  0.00000000000E+00 0.  1.
         11    1    3    3    0    0  0.12141682724E+02  0.20957760233E+02  0.20132292789E+02  0.31495354999E+02  0.51100000000E-03 0. -1.
        -11    1    3    3    0    0 -0.91236072831E+01  0.15987475886E+02 -0.83430170848E+01  0.20210035363E+02  0.51100000000E-03 0.  1.
         12    1    3    3    0    0 -0.28756693792E+01 -0.18405715435E+02 -0.91527066913E+01  0.20756008162E+02  0.00000000000E+00 0. -1.
</event>
<event>
 7    1  0.3440346E-013  0.7246156E+02  0.7816164E-02  0.1226708E+00
        -11   -1    0    0    0    0  0.00000000000E+00  0.00000000000E+00  0.45593999997E+02  0.45594000000E+02  0.51100000000E-03 0.  1.
         11   -1    0    0    0    0 -0.00000000000E+00 -0.00000000000E+00 -0.45593999997E+02  0.45594000000E+02  0.51100000000E-03 0. -1.
    9900012    2    1    2    0    0 -0.55947225034E+01 -0.28994138830E+01 -0.17634395787E+02  0.72461563192E+02  0.69999990747E+02 0.  0.
        -12    1    1    2    0    0  0.55947225034E+01  0.28994138830E+01  0.17634395787E+02  0.18726436808E+02  0.00000000000E+00 0.  1.
         11    1    3    3    0    0  0.13076143759E+02  0.44870437535E+01  0.29560708234E+01  0.14137094900E+02  0.51100000000E-03 0. -1.
        -11    1    3    3    0    0  0.60679711462E+01 -0.68356207702E+01  0.13436887506E+02  0.16251028621E+02  0.51100000000E-03 0.  1.
         12    1    3    3    0    0 -0.24738837408E+02 -0.55083686623E+00 -0.34027354116E+02  0.42073439670E+02  0.00000000000E+00 0. -1.
</event>
<event>
 7    1  0.3440346E-013  0.7246153E+02  0.7816164E-02  0.1226708E+00
        -11   -1    0    0    0    0  0.00000000000E+00  0.00000000000E+00  0.45593999997E+02  0.45594000000E+02  0.51100000000E-03 0.  1.
         11   -1    0    0    0    0 -0.00000000000E+00 -0.00000000000E+00 -0.45593999997E+02  0.45594000000E+02  0.51100000000E-03 0. -1.
    9900012    2    1    2    0    0 -0.11761275300E+02  0.20014139776E+01 -0.14434247690E+02  0.72461527802E+02  0.69999944646E+02 0.  0.
        -12    1    1    2    0    0  0.11761275300E+02 -0.20014139776E+01  0.14434247690E+02  0.18726472198E+02  0.00000000000E+00 0.  1.
         11    1    3    3    0    0 -0.63910146035E+00 -0.47705364771E+00 -0.16239875044E+02  0.16259445642E+02  0.51100000000E-03 0. -1.
        -11    1    3    3    0    0 -0.28117192294E+02 -0.12601961525E+02 -0.73977833203E+01  0.31687744241E+02  0.51100000000E-03 0.  1.
        -12    1    3    3    0    0  0.16995018454E+02  0.15080429150E+02  0.92034106745E+01  0.24514337920E+02  0.00000000000E+00 0.  1.
</event>
<event>
 7    1  0.3440346E-013  0.7246174E+02  0.7816164E-02  0.1226708E+00
        -11   -1    0    0    0    0  0.00000000000E+00  0.00000000000E+00  0.45593999997E+02  0.45594000000E+02  0.51100000000E-03 0.  1.
         11   -1    0    0    0    0 -0.00000000000E+00 -0.00000000000E+00 -0.45593999997E+02  0.45594000000E+02  0.51100000000E-03 0. -1.
    9900012    2    1    2    0    0  0.32907747922E+01 -0.10316276632E+02 -0.15278026206E+02  0.72461739107E+02  0.70000219909E+02 0.  0.
        -12    1    1    2    0    0 -0.32907747922E+01  0.10316276632E+02  0.15278026206E+02  0.18726260893E+02  0.00000000000E+00 0.  1.
         11    1    3    3    0    0  0.15713468045E+02 -0.67886326885E+01 -0.35191881543E+00  0.17120819457E+02  0.51100000000E-03 0. -1.
        -11    1    3    3    0    0  0.62351434378E+01 -0.17517007866E+02  0.10078619045E+02  0.21149495038E+02  0.51100000000E-03 0.  1.
         12    1    3    3    0    0 -0.18657836690E+02  0.13989363922E+02 -0.25004726435E+02  0.34191424612E+02  0.00000000000E+00 0. -1.
</event>
<event>
 7    1  0.3440346E-013  0.7246147E+02  0.7816164E-02  0.1226708E+00
        -11   -1    0    0    0    0  0.00000000000E+00  0.00000000000E+00  0.45593999997E+02  0.45594000000E+02  0.51100000000E-03 0. -1.
         11   -1    0    0    0    0 -0.00000000000E+00 -0.00000000000E+00 -0.45593999997E+02  0.45594000000E+02  0.51100000000E-03 0.  1.
    9900012    2    1    2    0    0 -0.80523291601E+01 -0.13321925752E+02  0.10410047737E+02  0.72461473239E+02  0.69999873568E+02 0.  0.
        -12    1    1    2    0    0  0.80523291601E+01  0.13321925752E+02 -0.10410047737E+02  0.18726526761E+02  0.00000000000E+00 0.  1.
         11    1    3    3    0    0  0.45364656031E+01 -0.58705773761E+01  0.58463532406E+01  0.94457951159E+01  0.51100000000E-03 0. -1.
        -11    1    3    3    0    0 -0.49058413073E+01  0.12858746397E+02 -0.23680224908E+02  0.27389189287E+02  0.51100000000E-03 0.  1.
         12    1    3    3    0    0 -0.76829534559E+01 -0.20310094772E+02  0.28243919405E+02  0.35626488836E+02  0.00000000000E+00 0. -1.
</event>
<event>
 7    1  0.3440346E-013  0.7246164E+02  0.7816164E-02  0.1226708E+00
        -11   -1    0    0    0    0  0.00000000000E+00  0.00000000000E+00  0.45593999997E+02  0.45594000000E+02  0.51100000000E-03 0.  1.
         11   -1    0    0    0    0 -0.00000000000E+00 -0.00000000000E+00 -0.45593999997E+02  0.45594000000E+02  0.51100000000E-03 0. -1.
    9900012    2    1    2    0    0  0.10282056464E+02 -0.14713286052E+02 -0.53361978776E+01  0.72461642122E+02  0.70000093569E+02 0.  0.
        -12    1    1    2    0    0 -0.10282056464E+02  0.14713286052E+02  0.53361978776E+01  0.18726357878E+02  0.00000000000E+00 0.  1.
         11    1    3    3    0    0  0.15276882651E+02  0.20804946567E+01 -0.32352614777E+02  0.35838572582E+02  0.51100000000E-03 0. -1.
        -11    1    3    3    0    0  0.31168198048E+01  0.67006494565E+00  0.11380199902E+02  0.11818312181E+02  0.51100000000E-03 0.  1.
        -12    1    3    3    0    0 -0.81116459912E+01 -0.17463845654E+02  0.15636216997E+02  0.24804757360E+02  0.00000000000E+00 0.  1.
</event>
<event>
 7    1  0.3440346E-013  0.7246151E+02  0.7816164E-02  0.1226708E+00
        -11   -1    0    0    0    0  0.00000000000E+00  0.00000000000E+00  0.45593999997E+02  0.45594000000E+02  0.51100000000E-03 0. -1.
         11   -1    0    0    0    0 -0.00000000000E+00 -0.00000000000E+00 -0.45593999997E+02  0.45594000000E+02  0.51100000000E-03 0.  1.
    9900012    2    1    2    0    0 -0.86844643700E+01 -0.79945177346E+01  0.14537859900E+02  0.72461505249E+02  0.69999915266E+02 0.  0.
        -12    1    1    2    0    0  0.86844643700E+01  0.79945177346E+01 -0.14537859900E+02  0.18726494751E+02  0.00000000000E+00 0.  1.
         11    1    3    3    0    0  0.98791856183E+01  0.18387233318E+01  0.88855952186E+01  0.13413911235E+02  0.51100000000E-03 0. -1.
        -11    1    3    3    0    0 -0.52170701634E+00 -0.26198788620E+02  0.17948262358E+02  0.31761436134E+02  0.51100000000E-03 0.  1.
         12    1    3    3    0    0 -0.18041942972E+02  0.16365547554E+02 -0.12295997676E+02  0.27286157879E+02  0.00000000000E+00 0. -1.
</event>
<event>
 7    1  0.3440346E-013  0.7246159E+02  0.7816164E-02  0.1226708E+00
        -11   -1    0    0    0    0  0.00000000000E+00  0.00000000000E+00  0.45593999997E+02  0.45594000000E+02  0.51100000000E-03 0.  1.
         11   -1    0    0    0    0 -0.00000000000E+00 -0.00000000000E+00 -0.45593999997E+02  0.45594000000E+02  0.51100000000E-03 0. -1.
    9900012    2    1    2    0    0  0.63415805258E+01 -0.12010939638E+02 -0.12891859735E+02  0.72461591856E+02  0.70000028087E+02 0.  0.
        -12    1    1    2    0    0 -0.63415805258E+01  0.12010939638E+02  0.12891859735E+02  0.18726408144E+02  0.00000000000E+00 0.  1.
         11    1    3    3    0    0  0.18396235374E+02 -0.55770688611E+01 -0.32737690140E+01  0.19499813764E+02  0.51100000000E-03 0. -1.
        -11    1    3    3    0    0  0.97322029007E+01  0.15852377384E+02 -0.11274314798E+02  0.21751409528E+02  0.51100000000E-03 0.  1.
         12    1    3    3    0    0 -0.21786857749E+02 -0.22286248161E+02  0.16562240763E+01  0.31210368564E+02  0.00000000000E+00 0. -1.
</event>
<event>
 7    1  0.3440346E-013  0.7246155E+02  0.7816164E-02  0.1226708E+00
        -11   -1    0    0    0    0  0.00000000000E+00  0.00000000000E+00  0.45593999997E+02  0.45594000000E+02  0.51100000000E-03 0.  1.
         11   -1    0    0    0    0 -0.00000000000E+00 -0.00000000000E+00 -0.45593999997E+02  0.45594000000E+02  0.51100000000E-03 0. -1.
    9900012    2    1    2    0    0  0.80724231678E+01 -0.78298886692E+01 -0.14973598700E+02  0.72461552649E+02  0.69999977013E+02 0.  0.
        -12    1    1    2    0    0 -0.80724231678E+01  0.78298886692E+01  0.14973598700E+02  0.18726447351E+02  0.00000000000E+00 0.  1.
         11    1    3    3    0    0 -0.23531295659E+02 -0.19517658826E+02  0.55131229207E+01  0.31065340913E+02  0.51100000000E-03 0. -1.
        -11    1    3    3    0    0  0.91723772764E+01 -0.14724263050E+01 -0.20391731587E+01  0.95109816295E+01  0.51100000000E-03 0.  1.
        -12    1    3    3    0    0  0.22431341551E+02  0.13160196462E+02 -0.18447548462E+02  0.31885230106E+02  0.00000000000E+00 0.  1.
</event>
<event>
 7    1  0.3440346E-013  0.7246155E+02  0.7816164E-02  0.1226708E+00
        -11   -1    0    0    0    0  0.00000000000E+00  0.00000000000E+00  0.45593999997E+02  0.45594000000E+02  0.51100000000E-03 0.  1.
         11   -1    0    0    0    0 -0.00000000000E+00 -0.00000000000E+00 -0.45593999997E+02  0.45594000000E+02  0.51100000000E-03 0. -1.
    9900012    2    1    2    0    0  0.83575793729E+01 -0.16179545304E+02 -0.43649751599E+01  0.72461552729E+02  0.69999977119E+02 0.  0.
        -12    1    1    2    0    0 -0.83575793729E+01  0.16179545304E+02  0.43649751599E+01  0.18726447271E+02  0.00000000000E+00 0.  1.
         11    1    3    3    0    0 -0.81129491390E+01  0.12648342855E+02 -0.22476355050E+02  0.27036772317E+02  0.51100000000E-03 0. -1.
        -11    1    3    3    0    0 -0.25244946634E+01 -0.26863027539E+01 -0.46243956543E+01  0.59139099774E+01  0.51100000000E-03 0.  1.
        -12    1    3    3    0    0  0.18995023175E+02 -0.26141585406E+02  0.22735775545E+02  0.39510870435E+02  0.00000000000E+00 0.  1.
</event>
<event>
 7    1  0.3440346E-013  0.7246117E+02  0.7816164E-02  0.1226709E+00
        -11   -1    0    0    0    0  0.00000000000E+00  0.00000000000E+00  0.45593999997E+02  0.45594000000E+02  0.51100000000E-03 0. -1.
         11   -1    0    0    0    0 -0.00000000000E+00 -0.00000000000E+00 -0.45593999997E+02  0.45594000000E+02  0.51100000000E-03 0.  1.
    9900012    2    1    2    0    0  0.29273678040E+01 -0.15477291852E+02  0.10128084796E+02  0.72461170397E+02  0.69999479058E+02 0.  0.
        -12    1    1    2    0    0 -0.29273678040E+01  0.15477291852E+02 -0.10128084796E+02  0.18726829603E+02  0.00000000000E+00 0.  1.
         11    1    3    3    0    0 -0.15645335009E+02 -0.25124504309E+01  0.25854987421E+02  0.30324400893E+02  0.51100000000E-03 0. -1.
        -11    1    3    3    0    0 -0.14122889051E+00 -0.19296560994E+02 -0.68340279134E+01  0.20471471603E+02  0.51100000000E-03 0.  1.
         12    1    3    3    0    0  0.18713931703E+02  0.63317195725E+01 -0.88928747116E+01  0.21665297902E+02  0.00000000000E+00 0. -1.
</event>
<event>
 7    1  0.3440346E-013  0.7246157E+02  0.7816164E-02  0.1226708E+00
        -11   -1    0    0    0    0  0.00000000000E+00  0.00000000000E+00  0.45593999997E+02  0.45594000000E+02  0.51100000000E-03 0. -1.
         11   -1    0    0    0    0 -0.00000000000E+00 -0.00000000000E+00 -0.45593999997E+02  0.45594000000E+02  0.51100000000E-03 0.  1.
    9900012    2    1    2    0    0  0.50943588725E+01  0.12047268880E+02  0.13401121172E+02  0.72461568721E+02  0.69999997950E+02 0.  0.
        -12    1    1    2    0    0 -0.50943588725E+01 -0.12047268880E+02 -0.13401121172E+02  0.18726431279E+02  0.00000000000E+00 0.  1.
         11    1    3    3    0    0  0.79127617955E+01  0.36677724170E+01  0.17677059751E+02  0.19711488920E+02  0.51100000000E-03 0. -1.
        -11    1    3    3    0    0  0.21256583698E+02 -0.87843004967E+01 -0.13744816573E+01  0.23041169367E+02  0.51100000000E-03 0.  1.
         12    1    3    3    0    0 -0.24074986621E+02  0.17163796960E+02 -0.29014569218E+01  0.29708910434E+02  0.00000000000E+00 0. -1.
</event>
<event>
 7    1  0.3440346E-013  0.7246172E+02  0.7816164E-02  0.1226708E+00
        -11   -1    0    0    0    0  0.00000000000E+00  0.00000000000E+00  0.45593999997E+02  0.45594000000E+02  0.51100000000E-03 0. -1.
         11   -1    0    0    0    0 -0.00000000000E+00 -0.00000000000E+00 -0.45593999997E+02  0.45594000000E+02  0.51100000000E-03 0.  1.
    9900012    2    1    2    0    0 -0.17073187893E+02 -0.14598930163E+01  0.75530526073E+01  0.72461718038E+02  0.70000192463E+02 0.  0.
        -12    1    1    2    0    0  0.17073187893E+02  0.14598930163E+01 -0.75530526073E+01  0.18726281962E+02  0.00000000000E+00 0.  1.
         11    1    3    3    0    0 -0.11928766918E+02 -0.53293628743E+01  0.10292740018E+02  0.16632440776E+02  0.51100000000E-03 0. -1.
        -11    1    3    3    0    0 -0.22050345634E+02 -0.65510530301E+01 -0.19256419309E+02  0.29999062040E+02  0.51100000000E-03 0.  1.
        -12    1    3    3    0    0  0.16905924659E+02  0.10420522888E+02  0.16516731898E+02  0.25830215222E+02  0.00000000000E+00 0.  1.
</event>
<event>
 7    1  0.3440346E-013  0.7246155E+02  0.7816164E-02  0.1226708E+00
        -11   -1    0    0    0    0  0.00000000000E+00  0.00000000000E+00  0.45593999997E+02  0.45594000000E+02  0.51100000000E-03 0.  1.
         11   -1    0    0    0    0 -0.00000000000E+00 -0.00000000000E+00 -0.45593999997E+02  0.45594000000E+02  0.51100000000E-03 0. -1.
    9900012    2    1    2    0    0 -0.27410333913E+01 -0.15881894576E+02 -0.95358375644E+01  0.72461547121E+02  0.69999969813E+02 0.  0.
        -12    1    1    2    0    0  0.27410333913E+01  0.15881894576E+02  0.95358375644E+01  0.18726452879E+02  0.00000000000E+00 0.  1.
         11    1    3    3    0    0  0.11932283834E+02 -0.51924173566E+01 -0.13101094687E+02  0.18465624218E+02  0.51100000000E-03 0. -1.
        -11    1    3    3    0    0 -0.19868401328E+02  0.13341895597E+02  0.13500766300E+02  0.27477813603E+02  0.51100000000E-03 0.  1.
         12    1    3    3    0    0  0.51950841022E+01 -0.24031372816E+02 -0.99355091769E+01  0.26518109300E+02  0.00000000000E+00 0. -1.
</event>
<event>
 7    1  0.3440346E-013  0.7246157E+02  0.7816164E-02  0.1226708E+00
        -11   -1    0    0    0    0  0.00000000000E+00  0.00000000000E+00  0.45593999997E+02  0.45594000000E+02  0.51100000000E-03 0. -1.
         11   -1    0    0    0    0 -0.00000000000E+00 -0.00000000000E+00 -0.45593999997E+02  0.45594000000E+02  0.51100000000E-03 0.  1.
    9900012    2    1    2    0    0 -0.11813682290E+02  0.30479956637E+01  0.14206539542E+02  0.72461571281E+02  0.70000001285E+02 0.  0.
        -12    1    1    2    0    0  0.11813682290E+02 -0.30479956637E+01 -0.14206539542E+02  0.18726428719E+02  0.00000000000E+00 0.  1.
         11    1    3    3    0    0 -0.63164521451E+01  0.37016109052E+01  0.16515668160E+01  0.75051425172E+01  0.51100000000E-03 0. -1.
        -11    1    3    3    0    0 -0.27985473551E+02 -0.60536169350E+01 -0.12160197605E+02  0.31107931688E+02  0.51100000000E-03 0.  1.
         12    1    3    3    0    0  0.22488243406E+02  0.54000016935E+01  0.24715170331E+02  0.33848497075E+02  0.00000000000E+00 0. -1.
</event>
<event>
 7    1  0.3440346E-013  0.7246155E+02  0.7816164E-02  0.1226708E+00
        -11   -1    0    0    0    0  0.00000000000E+00  0.00000000000E+00  0.45593999997E+02  0.45594000000E+02  0.51100000000E-03 0.  1.
         11   -1    0    0    0    0 -0.00000000000E+00 -0.00000000000E+00 -0.45593999997E+02  0.45594000000E+02  0.51100000000E-03 0. -1.
    9900012    2    1    2    0    0  0.86525343837E+01  0.11464532651E+02 -0.12015739926E+02  0.72461551694E+02  0.69999975770E+02 0.  0.
        -12    1    1    2    0    0 -0.86525343837E+01 -0.11464532651E+02  0.12015739926E+02  0.18726448306E+02  0.00000000000E+00 0.  1.
         11    1    3    3    0    0  0.45979904734E+01  0.20206595858E+01 -0.33107684994E+00  0.50333084246E+01  0.51100000000E-03 0. -1.
        -11    1    3    3    0    0  0.21821164307E+02 -0.16699207851E+02  0.98400810254E+01  0.29186537126E+02  0.51100000000E-03 0.  1.
         12    1    3    3    0    0 -0.17766620397E+02  0.26143080916E+02 -0.21524744102E+02  0.38241706144E+02  0.00000000000E+00 0. -1.
</event>
<event>
 7    1  0.3440346E-013  0.7246157E+02  0.7816164E-02  0.1226708E+00
        -11   -1    0    0    0    0  0.00000000000E+00  0.00000000000E+00  0.45593999997E+02  0.45594000000E+02  0.51100000000E-03 0. -1.
         11   -1    0    0    0    0 -0.00000000000E+00 -0.00000000000E+00 -0.45593999997E+02  0.45594000000E+02  0.51100000000E-03 0.  1.
    9900012    2    1    2    0    0 -0.51838124208E+01 -0.30188713856E+01  0.17739605271E+02  0.72461572395E+02  0.70000002737E+02 0.  0.
        -12    1    1    2    0    0  0.51838124208E+01  0.30188713856E+01 -0.17739605271E+02  0.18726427605E+02  0.00000000000E+00 0.  1.
         11    1    3    3    0    0 -0.13523543332E+00 -0.30723586531E+02 -0.39082653051E+01  0.30971464220E+02  0.51100000000E-03 0. -1.
        -11    1    3    3    0    0  0.33874309665E+01 -0.10485085719E+01 -0.12689243298E+01  0.37661954269E+01  0.51100000000E-03 0.  1.
        -12    1    3    3    0    0 -0.84360079539E+01  0.28753223717E+02  0.22916794906E+02  0.37723912749E+02  0.00000000000E+00 0.  1.
</event>
<event>
 7    1  0.3440346E-013  0.7246157E+02  0.7816164E-02  0.1226708E+00
        -11   -1    0    0    0    0  0.00000000000E+00  0.00000000000E+00  0.45593999997E+02  0.45594000000E+02  0.51100000000E-03 0.  1.
         11   -1    0    0    0    0 -0.00000000000E+00 -0.00000000000E+00 -0.45593999997E+02  0.45594000000E+02  0.51100000000E-03 0. -1.
    9900012    2    1    2    0    0 -0.89313776740E+01  0.14076115128E+02 -0.85306937476E+01  0.72461567876E+02  0.69999996850E+02 0.  0.
        -12    1    1    2    0    0  0.89313776740E+01 -0.14076115128E+02  0.85306937476E+01  0.18726432124E+02  0.00000000000E+00 0.  1.
         11    1    3    3    0    0 -0.22564515525E+01  0.17278649642E+02 -0.24273023452E+02  0.29880143488E+02  0.51100000000E-03 0. -1.
        -11    1    3    3    0    0 -0.22817399972E+01 -0.12290427161E+02 -0.93005292898E+01  0.15580782476E+02  0.51100000000E-03 0.  1.
        -12    1    3    3    0    0 -0.43931861242E+01  0.90878926480E+01  0.25042858995E+02  0.27000641913E+02  0.00000000000E+00 0.  1.
</event>
<event>
 7    1  0.3440346E-013  0.7246154E+02  0.7816164E-02  0.1226708E+00
        -11   -1    0    0    0    0  0.00000000000E+00  0.00000000000E+00  0.45593999997E+02  0.45594000000E+02  0.51100000000E-03 0.  1.
         11   -1    0    0    0    0 -0.00000000000E+00 -0.00000000000E+00 -0.45593999997E+02  0.45594000000E+02  0.51100000000E-03 0. -1.
    9900012    2    1    2    0    0  0.14636986800E+02  0.98351961075E+01 -0.63014208026E+01  0.72461538263E+02  0.69999958274E+02 0.  0.
        -12    1    1    2    0    0 -0.14636986800E+02 -0.98351961075E+01  0.63014208026E+01  0.18726461737E+02  0.00000000000E+00 0.  1.
         11    1    3    3    0    0 -0.90168623560E+01 -0.90274219543E+01 -0.18915993816E+02  0.22816944936E+02  0.51100000000E-03 0. -1.
        -11    1    3    3    0    0  0.10843984325E+02  0.10266076694E+02 -0.12963308692E+02  0.19774521467E+02  0.51100000000E-03 0.  1.
        -12    1    3    3    0    0  0.12809864831E+02  0.85965413675E+01  0.25577881705E+02  0.29870071861E+02  0.00000000000E+00 0.  1.
</event>
<event>
 7    1  0.5223645E-013  0.7246160E+02  0.7816164E-02  0.1226708E+00
        -11   -1    0    0    0    0  0.00000000000E+00  0.00000000000E+00  0.45593999997E+02  0.45594000000E+02  0.51100000000E-03 0. -1.
         11   -1    0    0    0    0 -0.00000000000E+00 -0.00000000000E+00 -0.45593999997E+02  0.45594000000E+02  0.51100000000E-03 0.  1.
    9900012    2    1    2    0    0  0.11017130881E+02  0.98183137493E+01  0.11528303531E+02  0.72461595112E+02  0.70000032329E+02 0.  0.
        -12    1    1    2    0    0 -0.11017130881E+02 -0.98183137493E+01 -0.11528303531E+02  0.18726404888E+02  0.00000000000E+00 0.  1.
         11    1    3    3    0    0 -0.29223801298E+01  0.22166681733E+02  0.27080953193E+02  0.35118088085E+02  0.51100000000E-03 0. -1.
        -11    1    3    3    0    0  0.15021343268E+02  0.54953693529E+01 -0.60733684762E+01  0.17109226832E+02  0.51100000000E-03 0.  1.
        -12    1    3    3    0    0 -0.10818322567E+01 -0.17843737337E+02 -0.94792811856E+01  0.20234280194E+02  0.00000000000E+00 0.  1.
</event>
<event>
 7    1  0.3440346E-013  0.7246159E+02  0.7816164E-02  0.1226708E+00
        -11   -1    0    0    0    0  0.00000000000E+00  0.00000000000E+00  0.45593999997E+02  0.45594000000E+02  0.51100000000E-03 0.  1.
         11   -1    0    0    0    0 -0.00000000000E+00 -0.00000000000E+00 -0.45593999997E+02  0.45594000000E+02  0.51100000000E-03 0. -1.
    9900012    2    1    2    0    0  0.13525702006E+02  0.12937440138E+02  0.59701439955E+00  0.72461590886E+02  0.70000026825E+02 0.  0.
        -12    1    1    2    0    0 -0.13525702006E+02 -0.12937440138E+02 -0.59701439955E+00  0.18726409114E+02  0.00000000000E+00 0.  1.
         11    1    3    3    0    0 -0.20975370821E+01  0.99747580918E+01  0.14199775722E+02  0.17479390482E+02  0.51100000000E-03 0. -1.
        -11    1    3    3    0    0  0.17701077484E+02  0.16925703468E+02  0.10818789134E+02  0.26774125207E+02  0.51100000000E-03 0.  1.
         12    1    3    3    0    0 -0.20778383957E+01 -0.13963021422E+02 -0.24421550457E+02  0.28208075198E+02  0.00000000000E+00 0. -1.
</event>
<event>
 7    1  0.3440346E-013  0.7246152E+02  0.7816164E-02  0.1226708E+00
        -11   -1    0    0    0    0  0.00000000000E+00  0.00000000000E+00  0.45593999997E+02  0.45594000000E+02  0.51100000000E-03 0. -1.
         11   -1    0    0    0    0 -0.00000000000E+00 -0.00000000000E+00 -0.45593999997E+02  0.45594000000E+02  0.51100000000E-03 0.  1.
    9900012    2    1    2    0    0  0.16711150965E+02  0.17882202767E+01  0.82595748841E+01  0.72461524742E+02  0.69999940660E+02 0.  0.
        -12    1    1    2    0    0 -0.16711150965E+02 -0.17882202767E+01 -0.82595748841E+01  0.18726475258E+02  0.00000000000E+00 0.  1.
         11    1    3    3    0    0  0.47697353361E+01  0.94409334480E+01 -0.13382569132E+02  0.17057982190E+02  0.51100000000E-03 0. -1.
        -11    1    3    3    0    0  0.11808522512E+02  0.92963637603E+01 -0.10999228880E+02  0.18623818601E+02  0.51100000000E-03 0.  1.
         12    1    3    3    0    0  0.13289311670E+00 -0.16949076932E+02  0.32641372896E+02  0.36779723951E+02  0.00000000000E+00 0. -1.
</event>
<event>
 7    1  0.3440346E-013  0.7246158E+02  0.7816164E-02  0.1226708E+00
        -11   -1    0    0    0    0  0.00000000000E+00  0.00000000000E+00  0.45593999997E+02  0.45594000000E+02  0.51100000000E-03 0.  1.
         11   -1    0    0    0    0 -0.00000000000E+00 -0.00000000000E+00 -0.45593999997E+02  0.45594000000E+02  0.51100000000E-03 0. -1.
    9900012    2    1    2    0    0 -0.49503464522E+01 -0.48625060607E+01 -0.17393361275E+02  0.72461577180E+02  0.70000008970E+02 0.  0.
        -12    1    1    2    0    0  0.49503464522E+01  0.48625060607E+01  0.17393361275E+02  0.18726422820E+02  0.00000000000E+00 0.  1.
         11    1    3    3    0    0 -0.59742257145E+01 -0.99164717041E+00  0.13436310108E+02  0.14738017729E+02  0.51100000000E-03 0. -1.
        -11    1    3    3    0    0 -0.74120294909E+01 -0.24938131725E+02 -0.18222290992E+02  0.31763193862E+02  0.51100000000E-03 0.  1.
         12    1    3    3    0    0  0.84359087531E+01  0.21067272834E+02 -0.12607380391E+02  0.25960365589E+02  0.00000000000E+00 0. -1.
</event>
<event>
 7    1  0.3440346E-013  0.7246159E+02  0.7816164E-02  0.1226708E+00
        -11   -1    0    0    0    0  0.00000000000E+00  0.00000000000E+00  0.45593999997E+02  0.45594000000E+02  0.51100000000E-03 0. -1.
         11   -1    0    0    0    0 -0.00000000000E+00 -0.00000000000E+00 -0.45593999997E+02  0.45594000000E+02  0.51100000000E-03 0.  1.
    9900012    2    1    2    0    0  0.16837028630E+02  0.71971418157E+01  0.39235415526E+01  0.72461586523E+02  0.70000021141E+02 0.  0.
        -12    1    1    2    0    0 -0.16837028630E+02 -0.71971418157E+01 -0.39235415526E+01  0.18726413477E+02  0.00000000000E+00 0.  1.
         11    1    3    3    0    0 -0.91147960556E+01 -0.11534125419E+01  0.94881692863E+01  0.13207392789E+02  0.51100000000E-03 0. -1.
        -11    1    3    3    0    0 -0.20272505214E+01  0.20138540848E+01  0.20377176494E+02  0.20576556443E+02  0.51100000000E-03 0.  1.
        -12    1    3    3    0    0  0.27979075207E+02  0.63367002728E+01 -0.25941804227E+02  0.38677637290E+02  0.00000000000E+00 0.  1.
</event>
<event>
 7    1  0.3440346E-013  0.7246113E+02  0.7816164E-02  0.1226709E+00
        -11   -1    0    0    0    0  0.00000000000E+00  0.00000000000E+00  0.45593999997E+02  0.45594000000E+02  0.51100000000E-03 0.  1.
         11   -1    0    0    0    0 -0.00000000000E+00 -0.00000000000E+00 -0.45593999997E+02  0.45594000000E+02  0.51100000000E-03 0. -1.
    9900012    2    1    2    0    0 -0.16498457909E+02 -0.72797061522E+01 -0.50500068037E+01  0.72461126162E+02  0.69999421433E+02 0.  0.
        -12    1    1    2    0    0  0.16498457909E+02  0.72797061522E+01  0.50500068037E+01  0.18726873838E+02  0.00000000000E+00 0.  1.
         11    1    3    3    0    0  0.11885410012E+02 -0.68901538842E+01 -0.76169114146E+01  0.15708422309E+02  0.51100000000E-03 0. -1.
        -11    1    3    3    0    0  0.34152722463E+01  0.16961204760E+02 -0.79376996348E+01  0.19035588438E+02  0.51100000000E-03 0.  1.
        -12    1    3    3    0    0 -0.31799140167E+02 -0.17350757028E+02  0.10504604246E+02  0.37717115414E+02  0.00000000000E+00 0.  1.
</event>
<event>
 7    1  0.4935492E-013  0.7246159E+02  0.7816164E-02  0.1226708E+00
        -11   -1    0    0    0    0  0.00000000000E+00  0.00000000000E+00  0.45593999997E+02  0.45594000000E+02  0.51100000000E-03 0. -1.
         11   -1    0    0    0    0 -0.00000000000E+00 -0.00000000000E+00 -0.45593999997E+02  0.45594000000E+02  0.51100000000E-03 0.  1.
    9900012    2    1    2    0    0 -0.70461993163E+01 -0.90584309907E+01  0.14797782794E+02  0.72461588907E+02  0.70000024246E+02 0.  0.
        -12    1    1    2    0    0  0.70461993163E+01  0.90584309907E+01 -0.14797782794E+02  0.18726411093E+02  0.00000000000E+00 0.  1.
         11    1    3    3    0    0  0.54753970081E+01  0.97148192647E+01  0.28874527578E+02  0.30953126318E+02  0.51100000000E-03 0. -1.
        -11    1    3    3    0    0 -0.14892216766E+02 -0.98216918031E+00  0.45882951514E+01  0.15613943421E+02  0.51100000000E-03 0.  1.
        -12    1    3    3    0    0  0.23706204416E+01 -0.17791081075E+02 -0.18665039936E+02  0.25894519167E+02  0.00000000000E+00 0.  1.
</event>
<event>
 7    1  0.3440346E-013  0.7246158E+02  0.7816164E-02  0.1226708E+00
        -11   -1    0    0    0    0  0.00000000000E+00  0.00000000000E+00  0.45593999997E+02  0.45594000000E+02  0.51100000000E-03 0.  1.
         11   -1    0    0    0    0 -0.00000000000E+00 -0.00000000000E+00 -0.45593999997E+02  0.45594000000E+02  0.51100000000E-03 0. -1.
    9900012    2    1    2    0    0 -0.10109977661E+02  0.25611821512E+01 -0.15553376574E+02  0.72461579488E+02  0.70000011977E+02 0.  0.
        -12    1    1    2    0    0  0.10109977661E+02 -0.25611821512E+01  0.15553376574E+02  0.18726420512E+02  0.00000000000E+00 0.  1.
         11    1    3    3    0    0 -0.14458536682E+02 -0.80346685766E+01  0.12501395795E+02  0.20733790758E+02  0.51100000000E-03 0. -1.
        -11    1    3    3    0    0  0.12160572270E+02 -0.46356464211E+01  0.54453967728E+01  0.14107483190E+02  0.51100000000E-03 0.  1.
         12    1    3    3    0    0 -0.78120132498E+01  0.15231497149E+02 -0.33500169142E+02  0.37620305540E+02  0.00000000000E+00 0. -1.
</event>
<event>
 7    1  0.3440346E-013  0.7246171E+02  0.7816164E-02  0.1226708E+00
        -11   -1    0    0    0    0  0.00000000000E+00  0.00000000000E+00  0.45593999997E+02  0.45594000000E+02  0.51100000000E-03 0. -1.
         11   -1    0    0    0    0 -0.00000000000E+00 -0.00000000000E+00 -0.45593999997E+02  0.45594000000E+02  0.51100000000E-03 0.  1.
    9900012    2    1    2    0    0  0.10955495955E+02 -0.29283517463E+01 -0.14902211984E+02  0.72461706784E+02  0.70000177803E+02 0.  0.
        -12    1    1    2    0    0 -0.10955495955E+02  0.29283517463E+01  0.14902211984E+02  0.18726293216E+02  0.00000000000E+00 0.  1.
         11    1    3    3    0    0  0.73807506318E+01 -0.16105663799E+02  0.79856589461E+01  0.19432926577E+02  0.51100000000E-03 0. -1.
        -11    1    3    3    0    0 -0.22648118917E+01 -0.13590026040E+02 -0.21577043124E+02  0.25600526770E+02  0.51100000000E-03 0.  1.
        -12    1    3    3    0    0  0.58395572148E+01  0.26767338093E+02 -0.13108278064E+01  0.27428253437E+02  0.00000000000E+00 0.  1.
</event>
<event>
 7    1  0.3440346E-013  0.7246136E+02  0.7816164E-02  0.1226709E+00
        -11   -1    0    0    0    0  0.00000000000E+00  0.00000000000E+00  0.45593999997E+02  0.45594000000E+02  0.51100000000E-03 0.  1.
         11   -1    0    0    0    0 -0.00000000000E+00 -0.00000000000E+00 -0.45593999997E+02  0.45594000000E+02  0.51100000000E-03 0. -1.
    9900012    2    1    2    0    0  0.81273578893E+01  0.15289881866E+02 -0.71311143657E+01  0.72461355190E+02  0.69999719786E+02 0.  0.
        -12    1    1    2    0    0 -0.81273578893E+01 -0.15289881866E+02  0.71311143657E+01  0.18726644810E+02  0.00000000000E+00 0.  1.
         11    1    3    3    0    0  0.49492020829E+00  0.26967206427E+01 -0.37185803337E+01  0.46200744796E+01  0.51100000000E-03 0. -1.
        -11    1    3    3    0    0  0.89931211335E+01  0.39567536674E+02  0.30602184152E+00  0.40577824434E+02  0.51100000000E-03 0.  1.
         12    1    3    3    0    0 -0.13606834525E+01 -0.26974375450E+02 -0.37185558735E+01  0.27263456277E+02  0.00000000000E+00 0. -1.
</event>
<event>
 7    1  0.3440346E-013  0.7246174E+02  0.7816164E-02  0.1226708E+00
        -11   -1    0    0    0    0  0.00000000000E+00  0.00000000000E+00  0.45593999997E+02  0.45594000000E+02  0.51100000000E-03 0.  1.
         11   -1    0    0    0    0 -0.00000000000E+00 -0.00000000000E+00 -0.45593999997E+02  0.45594000000E+02  0.51100000000E-03 0. -1.
    9900012    2    1    2    0    0 -0.26956306988E+00 -0.52691496838E+00 -0.18716899599E+02  0.72461744789E+02  0.70000227311E+02 0.  0.
        -12    1    1    2    0    0  0.26956306988E+00  0.52691496838E+00  0.18716899599E+02  0.18726255211E+02  0.00000000000E+00 0.  1.
         11    1    3    3    0    0  0.94930095124E+01  0.51232088015E+01 -0.40387898882E+01  0.11518520827E+02  0.51100000000E-03 0.  1.
        -11    1    3    3    0    0 -0.11952840261E+02  0.10661791480E+02 -0.32776330045E+02  0.36480570162E+02  0.51100000000E-03 0. -1.
         12    1    3    3    0    0  0.21902676788E+01 -0.16311915250E+02  0.18098220334E+02  0.24462653799E+02  0.00000000000E+00 0. -1.
</event>
<event>
 7    1  0.3440346E-013  0.7246169E+02  0.7816164E-02  0.1226708E+00
        -11   -1    0    0    0    0  0.00000000000E+00  0.00000000000E+00  0.45593999997E+02  0.45594000000E+02  0.51100000000E-03 0. -1.
         11   -1    0    0    0    0 -0.00000000000E+00 -0.00000000000E+00 -0.45593999997E+02  0.45594000000E+02  0.51100000000E-03 0.  1.
    9900012    2    1    2    0    0 -0.16564912811E+02  0.22323551750E+01 -0.84436320890E+01  0.72461690462E+02  0.70000156540E+02 0.  0.
        -12    1    1    2    0    0  0.16564912811E+02 -0.22323551750E+01  0.84436320890E+01  0.18726309538E+02  0.00000000000E+00 0.  1.
         11    1    3    3    0    0 -0.23390868329E+02 -0.74718938304E+01  0.84611471351E+01  0.25972156817E+02  0.51100000000E-03 0. -1.
        -11    1    3    3    0    0 -0.12167089994E+02 -0.99369920953E+01 -0.36788091660E+01  0.16134296637E+02  0.51100000000E-03 0.  1.
        -12    1    3    3    0    0  0.18993045512E+02  0.19641241101E+02 -0.13225970058E+02  0.30355237008E+02  0.00000000000E+00 0.  1.
</event>
<event>
 7    1  0.3440346E-013  0.7246163E+02  0.7816164E-02  0.1226708E+00
        -11   -1    0    0    0    0  0.00000000000E+00  0.00000000000E+00  0.45593999997E+02  0.45594000000E+02  0.51100000000E-03 0.  1.
         11   -1    0    0    0    0 -0.00000000000E+00 -0.00000000000E+00 -0.45593999997E+02  0.45594000000E+02  0.51100000000E-03 0. -1.
    9900012    2    1    2    0    0  0.53539134191E+01  0.52093818134E+01 -0.17171921352E+02  0.72461630072E+02  0.70000077871E+02 0.  0.
        -12    1    1    2    0    0 -0.53539134191E+01 -0.52093818134E+01  0.17171921352E+02  0.18726369928E+02  0.00000000000E+00 0.  1.
         11    1    3    3    0    0  0.71448470213E+01 -0.15174566938E+01  0.61330440156E+01  0.95375962870E+01  0.51100000000E-03 0. -1.
        -11    1    3    3    0    0  0.21304700235E+02  0.30000186590E+01  0.87617567444E+01  0.23230556291E+02  0.51100000000E-03 0.  1.
         12    1    3    3    0    0 -0.23095633838E+02  0.37268198483E+01 -0.32066722112E+02  0.39693477494E+02  0.00000000000E+00 0. -1.
</event>
<event>
 7    1  0.3440346E-013  0.7246155E+02  0.7816164E-02  0.1226708E+00
        -11   -1    0    0    0    0  0.00000000000E+00  0.00000000000E+00  0.45593999997E+02  0.45594000000E+02  0.51100000000E-03 0. -1.
         11   -1    0    0    0    0 -0.00000000000E+00 -0.00000000000E+00 -0.45593999997E+02  0.45594000000E+02  0.51100000000E-03 0.  1.
    9900012    2    1    2    0    0 -0.52266033892E+00  0.16841374717E+02  0.81715778366E+01  0.72461554514E+02  0.69999979444E+02 0.  0.
        -12    1    1    2    0    0  0.52266033892E+00 -0.16841374717E+02 -0.81715778366E+01  0.18726445486E+02  0.00000000000E+00 0.  1.
         11    1    3    3    0    0 -0.74083945641E+01  0.17818841299E+01  0.29842336056E+01  0.81832188987E+01  0.51100000000E-03 0. -1.
        -11    1    3    3    0    0 -0.20736007413E+02  0.21499580063E+02 -0.10749098810E+02  0.31745189743E+02  0.51100000000E-03 0.  1.
         12    1    3    3    0    0  0.27621741638E+02 -0.64400894759E+01  0.15936443041E+02  0.32533145873E+02  0.00000000000E+00 0. -1.
</event>
<event>
 7    1  0.3440346E-013  0.7246155E+02  0.7816164E-02  0.1226708E+00
        -11   -1    0    0    0    0  0.00000000000E+00  0.00000000000E+00  0.45593999997E+02  0.45594000000E+02  0.51100000000E-03 0.  1.
         11   -1    0    0    0    0 -0.00000000000E+00 -0.00000000000E+00 -0.45593999997E+02  0.45594000000E+02  0.51100000000E-03 0. -1.
    9900012    2    1    2    0    0  0.97810316772E+01 -0.93397301659E+01 -0.12953017557E+02  0.72461553351E+02  0.69999977929E+02 0.  0.
        -12    1    1    2    0    0 -0.97810316772E+01  0.93397301659E+01  0.12953017557E+02  0.18726446649E+02  0.00000000000E+00 0.  1.
         11    1    3    3    0    0 -0.81398152321E+01 -0.11020943849E+02 -0.14040999392E+01  0.13772773586E+02  0.51100000000E-03 0. -1.
        -11    1    3    3    0    0  0.30206704581E+02 -0.14181609535E+02  0.35777737001E+01  0.33561339597E+02  0.51100000000E-03 0.  1.
         12    1    3    3    0    0 -0.12285857672E+02  0.15862823218E+02 -0.15126691318E+02  0.25127440168E+02  0.00000000000E+00 0. -1.
</event>
<event>
 7    1  0.3440346E-013  0.7246157E+02  0.7816164E-02  0.1226708E+00
        -11   -1    0    0    0    0  0.00000000000E+00  0.00000000000E+00  0.45593999997E+02  0.45594000000E+02  0.51100000000E-03 0.  1.
         11   -1    0    0    0    0 -0.00000000000E+00 -0.00000000000E+00 -0.45593999997E+02  0.45594000000E+02  0.51100000000E-03 0. -1.
    9900012    2    1    2    0    0  0.70497665790E+01 -0.99838905765E+01 -0.14188085139E+02  0.72461573758E+02  0.70000004513E+02 0.  0.
        -12    1    1    2    0    0 -0.70497665790E+01  0.99838905765E+01  0.14188085139E+02  0.18726426242E+02  0.00000000000E+00 0.  1.
         11    1    3    3    0    0 -0.13477029933E+02  0.59492127672E+01 -0.75067908097E+01  0.16534067161E+02  0.51100000000E-03 0. -1.
        -11    1    3    3    0    0 -0.58174030930E+01 -0.21669209420E+02  0.96301119144E+01  0.24415893827E+02  0.51100000000E-03 0.  1.
         12    1    3    3    0    0  0.26344199605E+02  0.57361060761E+01 -0.16311406244E+02  0.31511612770E+02  0.00000000000E+00 0. -1.
</event>
<event>
 7    1  0.3440346E-013  0.7246163E+02  0.7816164E-02  0.1226708E+00
        -11   -1    0    0    0    0  0.00000000000E+00  0.00000000000E+00  0.45593999997E+02  0.45594000000E+02  0.51100000000E-03 0.  1.
         11   -1    0    0    0    0 -0.00000000000E+00 -0.00000000000E+00 -0.45593999997E+02  0.45594000000E+02  0.51100000000E-03 0. -1.
    9900012    2    1    2    0    0 -0.90335405533E+01 -0.12051023005E+02 -0.11128558755E+02  0.72461632751E+02  0.70000081361E+02 0.  0.
        -12    1    1    2    0    0  0.90335405533E+01  0.12051023005E+02  0.11128558755E+02  0.18726367249E+02  0.00000000000E+00 0.  1.
         11    1    3    3    0    0 -0.32551386953E+02 -0.11978907022E+02  0.59093558214E+01  0.35185330643E+02  0.51100000000E-03 0.  1.
        -11    1    3    3    0    0  0.16658547148E+02 -0.49282054425E+01  0.97468124972E+00  0.17399551884E+02  0.51100000000E-03 0. -1.
        -12    1    3    3    0    0  0.68592992515E+01  0.48560894601E+01 -0.18012595826E+02  0.19876750224E+02  0.00000000000E+00 0.  1.
</event>
<event>
 7    1  0.3440346E-013  0.7246152E+02  0.7816164E-02  0.1226708E+00
        -11   -1    0    0    0    0  0.00000000000E+00  0.00000000000E+00  0.45593999997E+02  0.45594000000E+02  0.51100000000E-03 0. -1.
         11   -1    0    0    0    0 -0.00000000000E+00 -0.00000000000E+00 -0.45593999997E+02  0.45594000000E+02  0.51100000000E-03 0.  1.
    9900012    2    1    2    0    0 -0.13164530506E+01 -0.69973936228E+01  0.17320060240E+02  0.72461520009E+02  0.69999934494E+02 0.  0.
        -12    1    1    2    0    0  0.13164530506E+01  0.69973936228E+01 -0.17320060240E+02  0.18726479991E+02  0.00000000000E+00 0.  1.
         11    1    3    3    0    0 -0.25628328480E+02  0.58710564385E+01  0.11922816899E+02  0.28869258519E+02  0.51100000000E-03 0. -1.
        -11    1    3    3    0    0 -0.80304562013E+00 -0.17661676978E+02  0.26363300316E+01  0.17875400758E+02  0.51100000000E-03 0.  1.
         12    1    3    3    0    0  0.25114921050E+02  0.47932269169E+01  0.27609133098E+01  0.25716860732E+02  0.00000000000E+00 0. -1.
</event>
<event>
 7    1  0.3440346E-013  0.7246157E+02  0.7816164E-02  0.1226708E+00
        -11   -1    0    0    0    0  0.00000000000E+00  0.00000000000E+00  0.45593999997E+02  0.45594000000E+02  0.51100000000E-03 0.  1.
         11   -1    0    0    0    0 -0.00000000000E+00 -0.00000000000E+00 -0.45593999997E+02  0.45594000000E+02  0.51100000000E-03 0. -1.
    9900012    2    1    2    0    0  0.75245347941E+01 -0.15099345739E+02  0.81283627917E+01  0.72461570888E+02  0.70000000773E+02 0.  0.
        -12    1    1    2    0    0 -0.75245347941E+01  0.15099345739E+02 -0.81283627917E+01  0.18726429112E+02  0.00000000000E+00 0.  1.
         11    1    3    3    0    0 -0.53116052748E+01 -0.22384067253E+01 -0.14041130142E+01  0.59325499476E+01  0.51100000000E-03 0. -1.
        -11    1    3    3    0    0 -0.98993437090E+01 -0.25472429359E+02  0.24350985168E+02  0.36603444404E+02  0.51100000000E-03 0.  1.
         12    1    3    3    0    0  0.22735483778E+02  0.12611490345E+02 -0.14818509362E+02  0.29925576537E+02  0.00000000000E+00 0. -1.
</event>
<event>
 7    1  0.3440346E-013  0.7246157E+02  0.7816164E-02  0.1226708E+00
        -11   -1    0    0    0    0  0.00000000000E+00  0.00000000000E+00  0.45593999997E+02  0.45594000000E+02  0.51100000000E-03 0.  1.
         11   -1    0    0    0    0 -0.00000000000E+00 -0.00000000000E+00 -0.45593999997E+02  0.45594000000E+02  0.51100000000E-03 0. -1.
    9900012    2    1    2    0    0  0.16535570424E+02 -0.85911963650E+01 -0.18561549862E+01  0.72461573337E+02  0.70000003964E+02 0.  0.
        -12    1    1    2    0    0 -0.16535570424E+02  0.85911963650E+01  0.18561549862E+01  0.18726426663E+02  0.00000000000E+00 0.  1.
         11    1    3    3    0    0 -0.45943980202E+01 -0.54142400003E+01 -0.15914804722E+02  0.17427090909E+02  0.51100000000E-03 0. -1.
        -11    1    3    3    0    0  0.32434087164E+02 -0.41762057251E+01 -0.47725044472E+01  0.33048260217E+02  0.51100000000E-03 0.  1.
        -12    1    3    3    0    0 -0.11304118720E+02  0.99924936034E+00  0.18831154183E+02  0.21986222212E+02  0.00000000000E+00 0.  1.
</event>
<event>
 7    1  0.3440346E-013  0.7246214E+02  0.7816164E-02  0.1226707E+00
        -11   -1    0    0    0    0  0.00000000000E+00  0.00000000000E+00  0.45593999997E+02  0.45594000000E+02  0.51100000000E-03 0.  1.
         11   -1    0    0    0    0 -0.00000000000E+00 -0.00000000000E+00 -0.45593999997E+02  0.45594000000E+02  0.51100000000E-03 0. -1.
    9900012    2    1    2    0    0  0.17367105064E+02 -0.60002645989E+01  0.36108730960E+01  0.72462137721E+02  0.70000739175E+02 0.  0.
        -12    1    1    2    0    0 -0.17367105064E+02  0.60002645989E+01 -0.36108730960E+01  0.18725862279E+02  0.00000000000E+00 0.  1.
         11    1    3    3    0    0  0.71793783274E+01  0.24747601442E+02  0.28317931465E+01  0.25923084365E+02  0.51100000000E-03 0. -1.
        -11    1    3    3    0    0 -0.44653593442E+01  0.30394237500E+01 -0.70567223095E+01  0.88867801154E+01  0.51100000000E-03 0.  1.
        -12    1    3    3    0    0  0.14653086081E+02 -0.33787289791E+02  0.78358022591E+01  0.37652273241E+02  0.00000000000E+00 0.  1.
</event>
<event>
 7    1  0.3440346E-013  0.7246156E+02  0.7816164E-02  0.1226708E+00
        -11   -1    0    0    0    0  0.00000000000E+00  0.00000000000E+00  0.45593999997E+02  0.45594000000E+02  0.51100000000E-03 0. -1.
         11   -1    0    0    0    0 -0.00000000000E+00 -0.00000000000E+00 -0.45593999997E+02  0.45594000000E+02  0.51100000000E-03 0.  1.
    9900012    2    1    2    0    0 -0.78986977772E+01 -0.47784016306E+01  0.16292848611E+02  0.72461562417E+02  0.69999989738E+02 0.  0.
        -12    1    1    2    0    0  0.78986977772E+01  0.47784016306E+01 -0.16292848611E+02  0.18726437583E+02  0.00000000000E+00 0.  1.
         11    1    3    3    0    0 -0.68314960986E+01 -0.17117527992E+02  0.12392944775E+02  0.22209551638E+02  0.51100000000E-03 0. -1.
        -11    1    3    3    0    0 -0.18114982948E+02 -0.86604955805E+01  0.10138983912E+02  0.22493460959E+02  0.51100000000E-03 0.  1.
        -12    1    3    3    0    0  0.17047781269E+02  0.20999621942E+02 -0.62390800765E+01  0.27758549820E+02  0.00000000000E+00 0.  1.
</event>
<event>
 7    1  0.3440346E-013  0.7246130E+02  0.7816164E-02  0.1226709E+00
        -11   -1    0    0    0    0  0.00000000000E+00  0.00000000000E+00  0.45593999997E+02  0.45594000000E+02  0.51100000000E-03 0.  1.
         11   -1    0    0    0    0 -0.00000000000E+00 -0.00000000000E+00 -0.45593999997E+02  0.45594000000E+02  0.51100000000E-03 0. -1.
    9900012    2    1    2    0    0  0.77963618648E+00 -0.16055294832E+02 -0.96077571038E+01  0.72461299242E+02  0.69999646903E+02 0.  0.
        -12    1    1    2    0    0 -0.77963618648E+00  0.16055294832E+02  0.96077571038E+01  0.18726700758E+02  0.00000000000E+00 0.  1.
         11    1    3    3    0    0 -0.22635933502E+02  0.61919206130E+01  0.59318120033E+01  0.24205614231E+02  0.51100000000E-03 0. -1.
        -11    1    3    3    0    0  0.11649249474E+02  0.73606784185E+01 -0.37138852739E+01  0.14271564181E+02  0.51100000000E-03 0.  1.
        -12    1    3    3    0    0  0.11766320215E+02 -0.29607893863E+02 -0.11825683833E+02  0.33984120830E+02  0.00000000000E+00 0.  1.
</event>
<event>
 7    1  0.3440346E-013  0.7246157E+02  0.7816164E-02  0.1226708E+00
        -11   -1    0    0    0    0  0.00000000000E+00  0.00000000000E+00  0.45593999997E+02  0.45594000000E+02  0.51100000000E-03 0.  1.
         11   -1    0    0    0    0 -0.00000000000E+00 -0.00000000000E+00 -0.45593999997E+02  0.45594000000E+02  0.51100000000E-03 0. -1.
    9900012    2    1    2    0    0  0.96926503808E+01  0.16014818351E+02 -0.50712250611E+00  0.72461573447E+02  0.70000004107E+02 0.  0.
        -12    1    1    2    0    0 -0.96926503808E+01 -0.16014818351E+02  0.50712250611E+00  0.18726426553E+02  0.00000000000E+00 0.  1.
         11    1    3    3    0    0  0.16170474143E+02 -0.18739833258E+02  0.42307997605E+01  0.25111058349E+02  0.51100000000E-03 0. -1.
        -11    1    3    3    0    0  0.12584166746E+02  0.11628459752E+02 -0.21684181107E+01  0.17270910985E+02  0.51100000000E-03 0.  1.
        -12    1    3    3    0    0 -0.19061990508E+02  0.23126191857E+02 -0.25695041560E+01  0.30079604113E+02  0.00000000000E+00 0.  1.
</event>
<event>
 7    1  0.3440346E-013  0.7246171E+02  0.7816164E-02  0.1226708E+00
        -11   -1    0    0    0    0  0.00000000000E+00  0.00000000000E+00  0.45593999997E+02  0.45594000000E+02  0.51100000000E-03 0.  1.
         11   -1    0    0    0    0 -0.00000000000E+00 -0.00000000000E+00 -0.45593999997E+02  0.45594000000E+02  0.51100000000E-03 0. -1.
    9900012    2    1    2    0    0 -0.15794819449E+02  0.84385822226E+01  0.54761153846E+01  0.72461712833E+02  0.70000185683E+02 0.  0.
        -12    1    1    2    0    0  0.15794819449E+02 -0.84385822226E+01 -0.54761153846E+01  0.18726287167E+02  0.00000000000E+00 0.  1.
         11    1    3    3    0    0  0.45661370292E+00  0.26434272656E+02 -0.25963320089E+01  0.26565394917E+02  0.51100000000E-03 0. -1.
        -11    1    3    3    0    0  0.66939085429E+01 -0.13510632381E+02  0.15244347855E+02  0.21441449128E+02  0.51100000000E-03 0.  1.
        -12    1    3    3    0    0 -0.22945341695E+02 -0.44850580519E+01 -0.71719004619E+01  0.24454868788E+02  0.00000000000E+00 0.  1.
</event>
<event>
 7    1  0.3815219E-013  0.7246155E+02  0.7816164E-02  0.1226708E+00
        -11   -1    0    0    0    0  0.00000000000E+00  0.00000000000E+00  0.45593999997E+02  0.45594000000E+02  0.51100000000E-03 0. -1.
         11   -1    0    0    0    0 -0.00000000000E+00 -0.00000000000E+00 -0.45593999997E+02  0.45594000000E+02  0.51100000000E-03 0.  1.
    9900012    2    1    2    0    0  0.11077925879E+02 -0.14244213219E+02 -0.50061800949E+01  0.72461551027E+02  0.69999974901E+02 0.  0.
        -12    1    1    2    0    0 -0.11077925879E+02  0.14244213219E+02  0.50061800949E+01  0.18726448973E+02  0.00000000000E+00 0.  1.
         11    1    3    3    0    0 -0.67822314775E+01 -0.14003552840E+02 -0.26446556699E+02  0.30684173730E+02  0.51100000000E-03 0. -1.
        -11    1    3    3    0    0 -0.13610877169E+00  0.12469140098E+02  0.24885296999E+01  0.12715768192E+02  0.51100000000E-03 0.  1.
        -12    1    3    3    0    0  0.17996266128E+02 -0.12709800477E+02  0.18951846905E+02  0.29061609106E+02  0.00000000000E+00 0.  1.
</event>
<event>
 7    1  0.3440346E-013  0.7246159E+02  0.7816164E-02  0.1226708E+00
        -11   -1    0    0    0    0  0.00000000000E+00  0.00000000000E+00  0.45593999997E+02  0.45594000000E+02  0.51100000000E-03 0.  1.
         11   -1    0    0    0    0 -0.00000000000E+00 -0.00000000000E+00 -0.45593999997E+02  0.45594000000E+02  0.51100000000E-03 0. -1.
    9900012    2    1    2    0    0  0.11780344423E+02  0.42429548162E+01 -0.13924777811E+02  0.72461585036E+02  0.70000019204E+02 0.  0.
        -12    1    1    2    0    0 -0.11780344423E+02 -0.42429548162E+01  0.13924777811E+02  0.18726414964E+02  0.00000000000E+00 0.  1.
         11    1    3    3    0    0  0.13059024437E+02 -0.61352678216E+01 -0.15399902442E+02  0.21103000402E+02  0.51100000000E-03 0. -1.
        -11    1    3    3    0    0  0.20854272051E+02 -0.54381206625E+01  0.86534495901E+01  0.23224039468E+02  0.51100000000E-03 0.  1.
        -12    1    3    3    0    0 -0.22132952065E+02  0.15816343300E+02 -0.71783249597E+01  0.28134545167E+02  0.00000000000E+00 0.  1.
</event>
<event>
 7    1  0.3440346E-013  0.7246155E+02  0.7816164E-02  0.1226708E+00
        -11   -1    0    0    0    0  0.00000000000E+00  0.00000000000E+00  0.45593999997E+02  0.45594000000E+02  0.51100000000E-03 0.  1.
         11   -1    0    0    0    0 -0.00000000000E+00 -0.00000000000E+00 -0.45593999997E+02  0.45594000000E+02  0.51100000000E-03 0. -1.
    9900012    2    1    2    0    0  0.28518191477E+01 -0.12186957643E+02 -0.13929291316E+02  0.72461549038E+02  0.69999972310E+02 0.  0.
        -12    1    1    2    0    0 -0.28518191477E+01  0.12186957643E+02  0.13929291316E+02  0.18726450962E+02  0.00000000000E+00 0.  1.
         11    1    3    3    0    0 -0.17681184826E+02  0.13287045869E+02 -0.62306628632E+01  0.22978055722E+02  0.51100000000E-03 0. -1.
        -11    1    3    3    0    0 -0.24801920057E+01  0.73850256128E+01  0.23323616764E+01  0.81320272342E+01  0.51100000000E-03 0.  1.
        -12    1    3    3    0    0  0.23013195979E+02 -0.32859029124E+02 -0.10030990130E+02  0.41351466082E+02  0.00000000000E+00 0.  1.
</event>
<event>
 7    1  0.5000405E-013  0.7246151E+02  0.7816164E-02  0.1226708E+00
        -11   -1    0    0    0    0  0.00000000000E+00  0.00000000000E+00  0.45593999997E+02  0.45594000000E+02  0.51100000000E-03 0. -1.
         11   -1    0    0    0    0 -0.00000000000E+00 -0.00000000000E+00 -0.45593999997E+02  0.45594000000E+02  0.51100000000E-03 0.  1.
    9900012    2    1    2    0    0 -0.95118644991E+01 -0.10555112242E+02  0.12198168911E+02  0.72461513798E+02  0.69999926403E+02 0.  0.
        -12    1    1    2    0    0  0.95118644991E+01  0.10555112242E+02 -0.12198168911E+02  0.18726486202E+02  0.00000000000E+00 0.  1.
         11    1    3    3    0    0  0.31071129261E+01  0.58291794309E+01  0.25716916181E+02  0.26551709204E+02  0.51100000000E-03 0. -1.
        -11    1    3    3    0    0 -0.62245035679E+01 -0.58375320675E+01  0.13635535389E+02  0.16085678441E+02  0.51100000000E-03 0.  1.
        -12    1    3    3    0    0 -0.63944738573E+01 -0.10546759606E+02 -0.27154282658E+02  0.29824126153E+02  0.00000000000E+00 0.  1.
</event>
<event>
 7    1  0.3440346E-013  0.7246157E+02  0.7816164E-02  0.1226708E+00
        -11   -1    0    0    0    0  0.00000000000E+00  0.00000000000E+00  0.45593999997E+02  0.45594000000E+02  0.51100000000E-03 0. -1.
         11   -1    0    0    0    0 -0.00000000000E+00 -0.00000000000E+00 -0.45593999997E+02  0.45594000000E+02  0.51100000000E-03 0.  1.
    9900012    2    1    2    0    0  0.12785588830E+02 -0.51246505782E+01  0.12686449464E+02  0.72461566135E+02  0.69999994582E+02 0.  0.
        -12    1    1    2    0    0 -0.12785588830E+02  0.51246505782E+01 -0.12686449464E+02  0.18726433865E+02  0.00000000000E+00 0.  1.
         11    1    3    3    0    0  0.25670152107E+02  0.16313783884E+02  0.24847881599E+02  0.39274845309E+02  0.51100000000E-03 0. -1.
        -11    1    3    3    0    0 -0.59358767399E+01 -0.11066855489E+02 -0.15800216432E+02  0.20183081099E+02  0.51100000000E-03 0.  1.
        -12    1    3    3    0    0 -0.69486865371E+01 -0.10371578974E+02  0.36387842977E+01  0.13003639728E+02  0.00000000000E+00 0.  1.
</event>
<event>
 7    1  0.3440346E-013  0.7246157E+02  0.7816164E-02  0.1226708E+00
        -11   -1    0    0    0    0  0.00000000000E+00  0.00000000000E+00  0.45593999997E+02  0.45594000000E+02  0.51100000000E-03 0. -1.
         11   -1    0    0    0    0 -0.00000000000E+00 -0.00000000000E+00 -0.45593999997E+02  0.45594000000E+02  0.51100000000E-03 0.  1.
    9900012    2    1    2    0    0 -0.16482528428E+02  0.62926578329E+01  0.62775849731E+01  0.72461565233E+02  0.69999993407E+02 0.  0.
        -12    1    1    2    0    0  0.16482528428E+02 -0.62926578329E+01 -0.62775849731E+01  0.18726434767E+02  0.00000000000E+00 0.  1.
         11    1    3    3    0    0  0.40667658357E+01  0.81765734483E+01  0.76917692871E+01  0.11939776076E+02  0.51100000000E-03 0. -1.
        -11    1    3    3    0    0 -0.37513742705E+02 -0.58981765046E+01 -0.12362317998E+02  0.39936152598E+02  0.51100000000E-03 0.  1.
         12    1    3    3    0    0  0.16964448441E+02  0.40142608892E+01  0.10948133684E+02  0.20585636559E+02  0.00000000000E+00 0. -1.
</event>
<event>
 7    1  0.3440346E-013  0.7246133E+02  0.7816164E-02  0.1226709E+00
        -11   -1    0    0    0    0  0.00000000000E+00  0.00000000000E+00  0.45593999997E+02  0.45594000000E+02  0.51100000000E-03 0.  1.
         11   -1    0    0    0    0 -0.00000000000E+00 -0.00000000000E+00 -0.45593999997E+02  0.45594000000E+02  0.51100000000E-03 0. -1.
    9900012    2    1    2    0    0 -0.44245388488E+01  0.95192022667E+01 -0.15507949530E+02  0.72461327727E+02  0.69999684010E+02 0.  0.
        -12    1    1    2    0    0  0.44245388488E+01 -0.95192022667E+01  0.15507949530E+02  0.18726672273E+02  0.00000000000E+00 0.  1.
         11    1    3    3    0    0 -0.23507904689E+02 -0.18376156775E+02 -0.37079014616E+01  0.30067478348E+02  0.51100000000E-03 0. -1.
        -11    1    3    3    0    0 -0.16424544354E+01 -0.71600255064E+00 -0.64098736973E+01  0.66555839188E+01  0.51100000000E-03 0.  1.
        -12    1    3    3    0    0  0.20725820276E+02  0.28611361593E+02 -0.53901743709E+01  0.35738265459E+02  0.00000000000E+00 0.  1.
</event>
<event>
 7    1  0.3440346E-013  0.7246141E+02  0.7816164E-02  0.1226708E+00
        -11   -1    0    0    0    0  0.00000000000E+00  0.00000000000E+00  0.45593999997E+02  0.45594000000E+02  0.51100000000E-03 0.  1.
         11   -1    0    0    0    0 -0.00000000000E+00 -0.00000000000E+00 -0.45593999997E+02  0.45594000000E+02  0.51100000000E-03 0. -1.
    9900012    2    1    2    0    0  0.48335160187E+01  0.93418251128E+01 -0.15493628485E+02  0.72461412025E+02  0.69999793825E+02 0.  0.
        -12    1    1    2    0    0 -0.48335160187E+01 -0.93418251128E+01  0.15493628485E+02  0.18726587975E+02  0.00000000000E+00 0.  1.
         11    1    3    3    0    0  0.30212527036E+01  0.22699906375E+02 -0.20512942341E+02  0.30744016021E+02  0.51100000000E-03 0. -1.
        -11    1    3    3    0    0  0.96378973336E+00  0.14004756050E+02  0.16071689953E+01  0.14129581562E+02  0.51100000000E-03 0.  1.
        -12    1    3    3    0    0  0.84847358176E+00 -0.27362837312E+02  0.34121448604E+01  0.27587814443E+02  0.00000000000E+00 0.  1.
</event>
<event>
 7    1  0.3440346E-013  0.7246156E+02  0.7816164E-02  0.1226708E+00
        -11   -1    0    0    0    0  0.00000000000E+00  0.00000000000E+00  0.45593999997E+02  0.45594000000E+02  0.51100000000E-03 0. -1.
         11   -1    0    0    0    0 -0.00000000000E+00 -0.00000000000E+00 -0.45593999997E+02  0.45594000000E+02  0.51100000000E-03 0.  1.
    9900012    2    1    2    0    0  0.10088183230E+02 -0.10522844663E+00  0.15776471929E+02  0.72461559323E+02  0.69999985707E+02 0.  0.
        -12    1    1    2    0    0 -0.10088183230E+02  0.10522844663E+00 -0.15776471929E+02  0.18726440677E+02  0.00000000000E+00 0.  1.
         11    1    3    3    0    0 -0.45206819953E+01 -0.11192078610E+02  0.14490558268E+02  0.18859360235E+02  0.51100000000E-03 0. -1.
        -11    1    3    3    0    0  0.20686918380E+02 -0.10430684518E+02 -0.13482840926E+02  0.26805498900E+02  0.51100000000E-03 0.  1.
        -12    1    3    3    0    0 -0.60780531553E+01  0.21517534681E+02  0.14768754587E+02  0.26796700188E+02  0.00000000000E+00 0.  1.
</event>
<event>
 7    1  0.3440346E-013  0.7246157E+02  0.7816164E-02  0.1226708E+00
        -11   -1    0    0    0    0  0.00000000000E+00  0.00000000000E+00  0.45593999997E+02  0.45594000000E+02  0.51100000000E-03 0.  1.
         11   -1    0    0    0    0 -0.00000000000E+00 -0.00000000000E+00 -0.45593999997E+02  0.45594000000E+02  0.51100000000E-03 0. -1.
    9900012    2    1    2    0    0  0.71505157015E+01 -0.13384970729E+02 -0.10972328569E+02  0.72461566531E+02  0.69999995098E+02 0.  0.
        -12    1    1    2    0    0 -0.71505157015E+01  0.13384970729E+02  0.10972328569E+02  0.18726433469E+02  0.00000000000E+00 0.  1.
         11    1    3    3    0    0  0.21947941724E+02 -0.14901640107E+02 -0.18870094801E+01  0.26595710722E+02  0.51100000000E-03 0. -1.
        -11    1    3    3    0    0 -0.17618082243E+02 -0.71038273897E+01 -0.22641587007E+02  0.29555078210E+02  0.51100000000E-03 0.  1.
         12    1    3    3    0    0  0.28206562214E+01  0.86204967676E+01  0.13556267918E+02  0.16310777599E+02  0.00000000000E+00 0. -1.
</event>
<event>
 7    1  0.3440346E-013  0.7246158E+02  0.7816164E-02  0.1226708E+00
        -11   -1    0    0    0    0  0.00000000000E+00  0.00000000000E+00  0.45593999997E+02  0.45594000000E+02  0.51100000000E-03 0.  1.
         11   -1    0    0    0    0 -0.00000000000E+00 -0.00000000000E+00 -0.45593999997E+02  0.45594000000E+02  0.51100000000E-03 0. -1.
    9900012    2    1    2    0    0  0.68006126786E+01 -0.12019969715E+02 -0.12647169657E+02  0.72461577354E+02  0.70000009197E+02 0.  0.
        -12    1    1    2    0    0 -0.68006126786E+01  0.12019969715E+02  0.12647169657E+02  0.18726422646E+02  0.00000000000E+00 0.  1.
         11    1    3    3    0    0 -0.17645053438E+02 -0.87981871047E+01 -0.12244876909E+02  0.23209761264E+02  0.51100000000E-03 0. -1.
        -11    1    3    3    0    0 -0.36261846711E+01  0.12316715261E+02 -0.94186546425E+01  0.15923622252E+02  0.51100000000E-03 0.  1.
        -12    1    3    3    0    0  0.28071850788E+02 -0.15538497871E+02  0.90163618936E+01  0.33328193839E+02  0.00000000000E+00 0.  1.
</event>
<event>
 7    1  0.3440346E-013  0.7246158E+02  0.7816164E-02  0.1226708E+00
        -11   -1    0    0    0    0  0.00000000000E+00  0.00000000000E+00  0.45593999997E+02  0.45594000000E+02  0.51100000000E-03 0.  1.
         11   -1    0    0    0    0 -0.00000000000E+00 -0.00000000000E+00 -0.45593999997E+02  0.45594000000E+02  0.51100000000E-03 0. -1.
    9900012    2    1    2    0    0  0.36795567653E+01  0.11057681828E+02 -0.14658355294E+02  0.72461578951E+02  0.70000011277E+02 0.  0.
        -12    1    1    2    0    0 -0.36795567653E+01 -0.11057681828E+02  0.14658355294E+02  0.18726421049E+02  0.00000000000E+00 0.  1.
         11    1    3    3    0    0 -0.85567021552E+01  0.14446122056E+02 -0.25678882668E+02  0.30680818267E+02  0.51100000000E-03 0. -1.
        -11    1    3    3    0    0  0.79379602484E+01  0.14210944441E+02 -0.55810827518E+01  0.17207865637E+02  0.51100000000E-03 0.  1.
        -12    1    3    3    0    0  0.42982986721E+01 -0.17599384670E+02  0.16601610126E+02  0.24572895047E+02  0.00000000000E+00 0.  1.
</event>
<event>
 7    1  0.3440346E-013  0.7246148E+02  0.7816164E-02  0.1226708E+00
        -11   -1    0    0    0    0  0.00000000000E+00  0.00000000000E+00  0.45593999997E+02  0.45594000000E+02  0.51100000000E-03 0.  1.
         11   -1    0    0    0    0 -0.00000000000E+00 -0.00000000000E+00 -0.45593999997E+02  0.45594000000E+02  0.51100000000E-03 0. -1.
    9900012    2    1    2    0    0  0.92453059477E+01  0.14968566382E+02 -0.64147462328E+01  0.72461477877E+02  0.69999879609E+02 0.  0.
        -12    1    1    2    0    0 -0.92453059477E+01 -0.14968566382E+02  0.64147462328E+01  0.18726522123E+02  0.00000000000E+00 0.  1.
         11    1    3    3    0    0 -0.41055285890E+01 -0.10808352870E+02 -0.15252946992E+02  0.19139703471E+02  0.51100000000E-03 0. -1.
        -11    1    3    3    0    0  0.12197650563E+02 -0.10600949237E+02  0.35154914288E+01  0.16538484943E+02  0.51100000000E-03 0.  1.
         12    1    3    3    0    0  0.11531839741E+01  0.36377868489E+02  0.53227093302E+01  0.36783289463E+02  0.00000000000E+00 0. -1.
</event>
<event>
 7    1  0.3440346E-013  0.7246157E+02  0.7816164E-02  0.1226708E+00
        -11   -1    0    0    0    0  0.00000000000E+00  0.00000000000E+00  0.45593999997E+02  0.45594000000E+02  0.51100000000E-03 0. -1.
         11   -1    0    0    0    0 -0.00000000000E+00 -0.00000000000E+00 -0.45593999997E+02  0.45594000000E+02  0.51100000000E-03 0.  1.
    9900012    2    1    2    0    0  0.16672848667E+02 -0.78594306482E+01  0.33052468890E+01  0.72461569753E+02  0.69999999295E+02 0.  0.
        -12    1    1    2    0    0 -0.16672848667E+02  0.78594306482E+01 -0.33052468890E+01  0.18726430247E+02  0.00000000000E+00 0.  1.
         11    1    3    3    0    0  0.22703098630E+02 -0.18090405266E+02  0.16468186799E+01  0.29075857032E+02  0.51100000000E-03 0. -1.
        -11    1    3    3    0    0  0.27797201459E+00 -0.16188642835E+02  0.73758935363E+00  0.16207821062E+02  0.51100000000E-03 0.  1.
        -12    1    3    3    0    0 -0.63082219776E+01  0.26419617452E+02  0.92083885550E+00  0.27177891659E+02  0.00000000000E+00 0.  1.
</event>
<event>
 7    1  0.3440346E-013  0.7246180E+02  0.7816164E-02  0.1226707E+00
        -11   -1    0    0    0    0  0.00000000000E+00  0.00000000000E+00  0.45593999997E+02  0.45594000000E+02  0.51100000000E-03 0. -1.
         11   -1    0    0    0    0 -0.00000000000E+00 -0.00000000000E+00 -0.45593999997E+02  0.45594000000E+02  0.51100000000E-03 0.  1.
    9900012    2    1    2    0    0  0.64034902160E+01 -0.13385632060E+02  0.11423251390E+02  0.72461801643E+02  0.70000301373E+02 0.  0.
        -12    1    1    2    0    0 -0.64034902160E+01  0.13385632060E+02 -0.11423251390E+02  0.18726198357E+02  0.00000000000E+00 0.  1.
         11    1    3    3    0    0 -0.12997528683E+01 -0.92322686364E+01  0.48249988709E+01  0.10497845306E+02  0.51100000000E-03 0. -1.
        -11    1    3    3    0    0  0.30881607200E+02 -0.13062553028E+02  0.13569530759E+02  0.36172311512E+02  0.51100000000E-03 0.  1.
        -12    1    3    3    0    0 -0.23178364116E+02  0.89091896040E+01 -0.69712782396E+01  0.25791644825E+02  0.00000000000E+00 0.  1.
</event>
<event>
 7    1  0.3440346E-013  0.7246162E+02  0.7816164E-02  0.1226708E+00
        -11   -1    0    0    0    0  0.00000000000E+00  0.00000000000E+00  0.45593999997E+02  0.45594000000E+02  0.51100000000E-03 0. -1.
         11   -1    0    0    0    0 -0.00000000000E+00 -0.00000000000E+00 -0.45593999997E+02  0.45594000000E+02  0.51100000000E-03 0.  1.
    9900012    2    1    2    0    0 -0.91953943619E+01 -0.15930071050E+02 -0.35149250053E+01  0.72461624512E+02  0.70000070629E+02 0.  0.
        -12    1    1    2    0    0  0.91953943619E+01  0.15930071050E+02  0.35149250053E+01  0.18726375488E+02  0.00000000000E+00 0.  1.
         11    1    3    3    0    0 -0.28707703253E+02  0.71802534212E+01  0.86469606969E+01  0.30829502020E+02  0.51100000000E-03 0. -1.
        -11    1    3    3    0    0 -0.61824391232E+01 -0.34353254545E+01 -0.44741963451E+01  0.83691366153E+01  0.51100000000E-03 0.  1.
        -12    1    3    3    0    0  0.25694748014E+02 -0.19674999016E+02 -0.76876893572E+01  0.33262985877E+02  0.00000000000E+00 0.  1.
</event>
<event>
 7    1  0.3440346E-013  0.7246153E+02  0.7816164E-02  0.1226708E+00
        -11   -1    0    0    0    0  0.00000000000E+00  0.00000000000E+00  0.45593999997E+02  0.45594000000E+02  0.51100000000E-03 0.  1.
         11   -1    0    0    0    0 -0.00000000000E+00 -0.00000000000E+00 -0.45593999997E+02  0.45594000000E+02  0.51100000000E-03 0. -1.
    9900012    2    1    2    0    0  0.57204469525E+01 -0.16518798142E+01 -0.17754672342E+02  0.72461531827E+02  0.69999949889E+02 0.  0.
        -12    1    1    2    0    0 -0.57204469525E+01  0.16518798142E+01  0.17754672342E+02  0.18726468173E+02  0.00000000000E+00 0.  1.
         11    1    3    3    0    0  0.73625796155E+01  0.23338038700E+02 -0.59947413006E+01  0.25195407369E+02  0.51100000000E-03 0. -1.
        -11    1    3    3    0    0 -0.46039358824E+01 -0.11539705362E+02 -0.25153747408E+02  0.28054804123E+02  0.51100000000E-03 0.  1.
        -12    1    3    3    0    0  0.29618032194E+01 -0.13450213153E+02  0.13393816366E+02  0.19211320335E+02  0.00000000000E+00 0.  1.
</event>
<event>
 7    1  0.3440346E-013  0.7246153E+02  0.7816164E-02  0.1226708E+00
        -11   -1    0    0    0    0  0.00000000000E+00  0.00000000000E+00  0.45593999997E+02  0.45594000000E+02  0.51100000000E-03 0.  1.
         11   -1    0    0    0    0 -0.00000000000E+00 -0.00000000000E+00 -0.45593999997E+02  0.45594000000E+02  0.51100000000E-03 0. -1.
    9900012    2    1    2    0    0  0.12319566169E+02 -0.11523022890E+02  0.81319572490E+01  0.72461534882E+02  0.69999953869E+02 0.  0.
        -12    1    1    2    0    0 -0.12319566169E+02  0.11523022890E+02 -0.81319572490E+01  0.18726465118E+02  0.00000000000E+00 0.  1.
         11    1    3    3    0    0 -0.27877152314E+00  0.84249426344E+01 -0.14702911498E+02  0.16947949101E+02  0.51100000000E-03 0. -1.
        -11    1    3    3    0    0 -0.10025164528E+02 -0.17683715634E+02 -0.36020142849E+01  0.20644423693E+02  0.51100000000E-03 0.  1.
        -12    1    3    3    0    0  0.22623502220E+02 -0.22642498899E+01  0.26436883032E+02  0.34869162088E+02  0.00000000000E+00 0.  1.
</event>
<event>
 7    1  0.3440346E-013  0.7246159E+02  0.7816164E-02  0.1226708E+00
        -11   -1    0    0    0    0  0.00000000000E+00  0.00000000000E+00  0.45593999997E+02  0.45594000000E+02  0.51100000000E-03 0.  1.
         11   -1    0    0    0    0 -0.00000000000E+00 -0.00000000000E+00 -0.45593999997E+02  0.45594000000E+02  0.51100000000E-03 0. -1.
    9900012    2    1    2    0    0 -0.43279955475E+01  0.90509765748E+01  0.15812233033E+02  0.72461589882E+02  0.70000025517E+02 0.  0.
        -12    1    1    2    0    0  0.43279955475E+01 -0.90509765748E+01 -0.15812233033E+02  0.18726410118E+02  0.00000000000E+00 0.  1.
         11    1    3    3    0    0  0.79046562048E+01 -0.79454156777E+01 -0.42608920005E+00  0.11215826865E+02  0.51100000000E-03 0. -1.
        -11    1    3    3    0    0 -0.52454934075E+01 -0.19980431008E+02  0.10522081998E+02  0.23182903920E+02  0.51100000000E-03 0.  1.
         12    1    3    3    0    0 -0.69871583449E+01  0.36976823260E+02  0.57162402355E+01  0.38062859096E+02  0.00000000000E+00 0. -1.
</event>
<event>
 7    1  0.3440346E-013  0.7246160E+02  0.7816164E-02  0.1226708E+00
        -11   -1    0    0    0    0  0.00000000000E+00  0.00000000000E+00  0.45593999997E+02  0.45594000000E+02  0.51100000000E-03 0. -1.
         11   -1    0    0    0    0 -0.00000000000E+00 -0.00000000000E+00 -0.45593999997E+02  0.45594000000E+02  0.51100000000E-03 0.  1.
    9900012    2    1    2    0    0  0.18036625634E+02 -0.23599663700E+01 -0.44484499923E+01  0.72461601177E+02  0.70000040231E+02 0.  0.
        -12    1    1    2    0    0 -0.18036625634E+02  0.23599663700E+01  0.44484499923E+01  0.18726398823E+02  0.00000000000E+00 0.  1.
         11    1    3    3    0    0 -0.47748676497E+01  0.64012908719E+01 -0.18237788828E+02  0.19909616457E+02  0.51100000000E-03 0. -1.
        -11    1    3    3    0    0  0.14393437372E+02  0.20736480296E+01 -0.14856869780E+02  0.20789363517E+02  0.51100000000E-03 0.  1.
         12    1    3    3    0    0  0.84180559122E+01 -0.10834905272E+02  0.28646208616E+02  0.31762621202E+02  0.00000000000E+00 0. -1.
</event>
<event>
 7    1  0.3440346E-013  0.7246155E+02  0.7816164E-02  0.1226708E+00
        -11   -1    0    0    0    0  0.00000000000E+00  0.00000000000E+00  0.45593999997E+02  0.45594000000E+02  0.51100000000E-03 0. -1.
         11   -1    0    0    0    0 -0.00000000000E+00 -0.00000000000E+00 -0.45593999997E+02  0.45594000000E+02  0.51100000000E-03 0.  1.
    9900012    2    1    2    0    0  0.18461667672E+02  0.19252026707E+01 -0.24779508866E+01  0.72461552949E+02  0.69999977405E+02 0.  0.
        -12    1    1    2    0    0 -0.18461667672E+02 -0.19252026707E+01  0.24779508866E+01  0.18726447051E+02  0.00000000000E+00 0.  1.
         11    1    3    3    0    0  0.15470409369E+02  0.16492654795E+02  0.23712258210E+02  0.32766025361E+02  0.51100000000E-03 0. -1.
        -11    1    3    3    0    0  0.12557862740E+01  0.48985833006E+01  0.19624281953E+01  0.54244116918E+01  0.51100000000E-03 0.  1.
        -12    1    3    3    0    0  0.17354720284E+01 -0.19466035425E+02 -0.28152637292E+02  0.34271115897E+02  0.00000000000E+00 0.  1.
</event>
<event>
 7    1  0.3440346E-013  0.7246109E+02  0.7816164E-02  0.1226709E+00
        -11   -1    0    0    0    0  0.00000000000E+00  0.00000000000E+00  0.45593999997E+02  0.45594000000E+02  0.51100000000E-03 0.  1.
         11   -1    0    0    0    0 -0.00000000000E+00 -0.00000000000E+00 -0.45593999997E+02  0.45594000000E+02  0.51100000000E-03 0. -1.
    9900012    2    1    2    0    0 -0.33524225428E+00 -0.18586731216E+02  0.22623604505E+01  0.72461087829E+02  0.69999371496E+02 0.  0.
        -12    1    1    2    0    0  0.33524225428E+00  0.18586731216E+02 -0.22623604505E+01  0.18726912171E+02  0.00000000000E+00 0.  1.
         11    1    3    3    0    0 -0.17313579290E+02 -0.16887533857E+02  0.36208200805E+01  0.24455248229E+02  0.51100000000E-03 0. -1.
        -11    1    3    3    0    0  0.25909601721E+01 -0.20799527804E+02  0.78490077337E+01  0.22381696856E+02  0.51100000000E-03 0.  1.
        -12    1    3    3    0    0  0.14387376864E+02  0.19100330445E+02 -0.92074673637E+01  0.25624142744E+02  0.00000000000E+00 0.  1.
</event>
<event>
 7    1  0.3440346E-013  0.7246157E+02  0.7816164E-02  0.1226708E+00
        -11   -1    0    0    0    0  0.00000000000E+00  0.00000000000E+00  0.45593999997E+02  0.45594000000E+02  0.51100000000E-03 0. -1.
         11   -1    0    0    0    0 -0.00000000000E+00 -0.00000000000E+00 -0.45593999997E+02  0.45594000000E+02  0.51100000000E-03 0.  1.
    9900012    2    1    2    0    0 -0.11560897224E+01 -0.18342907196E+02 -0.35889382398E+01  0.72461567730E+02  0.69999996660E+02 0.  0.
        -12    1    1    2    0    0  0.11560897224E+01  0.18342907196E+02  0.35889382398E+01  0.18726432270E+02  0.00000000000E+00 0.  1.
         11    1    3    3    0    0 -0.14564591788E+02 -0.54086815133E+01  0.26588484884E+02  0.30794945987E+02  0.51100000000E-03 0. -1.
        -11    1    3    3    0    0  0.66069479082E+01  0.43272419507E+01 -0.23843862233E+01  0.82499746354E+01  0.51100000000E-03 0.  1.
        -12    1    3    3    0    0  0.68015541574E+01 -0.17261467634E+02 -0.27793036900E+02  0.33416647108E+02  0.00000000000E+00 0.  1.
</event>
<event>
 7    1  0.3440346E-013  0.7246161E+02  0.7816164E-02  0.1226708E+00
        -11   -1    0    0    0    0  0.00000000000E+00  0.00000000000E+00  0.45593999997E+02  0.45594000000E+02  0.51100000000E-03 0.  1.
         11   -1    0    0    0    0 -0.00000000000E+00 -0.00000000000E+00 -0.45593999997E+02  0.45594000000E+02  0.51100000000E-03 0. -1.
    9900012    2    1    2    0    0 -0.10257347162E+02 -0.13688860719E+01 -0.15607385562E+02  0.72461614765E+02  0.70000057931E+02 0.  0.
        -12    1    1    2    0    0  0.10257347162E+02  0.13688860719E+01  0.15607385562E+02  0.18726385235E+02  0.00000000000E+00 0.  1.
         11    1    3    3    0    0  0.45076495086E+01 -0.51660969525E+01 -0.18050331938E+02  0.19308597700E+02  0.51100000000E-03 0. -1.
        -11    1    3    3    0    0  0.13457875010E+02  0.17209404420E+02  0.75262153811E+00  0.21859653239E+02  0.51100000000E-03 0.  1.
         12    1    3    3    0    0 -0.28222871681E+02 -0.13412193540E+02  0.16903248375E+01  0.31293363826E+02  0.00000000000E+00 0. -1.
</event>
<event>
 7    1  0.3440346E-013  0.7246158E+02  0.7816164E-02  0.1226708E+00
        -11   -1    0    0    0    0  0.00000000000E+00  0.00000000000E+00  0.45593999997E+02  0.45594000000E+02  0.51100000000E-03 0. -1.
         11   -1    0    0    0    0 -0.00000000000E+00 -0.00000000000E+00 -0.45593999997E+02  0.45594000000E+02  0.51100000000E-03 0.  1.
    9900012    2    1    2    0    0  0.12822422935E+02 -0.12758152037E+02  0.48470391258E+01  0.72461581186E+02  0.70000014188E+02 0.  0.
        -12    1    1    2    0    0 -0.12822422935E+02  0.12758152037E+02 -0.48470391258E+01  0.18726418814E+02  0.00000000000E+00 0.  1.
         11    1    3    3    0    0  0.18504313257E+02 -0.17239867671E+01  0.28354135846E+02  0.33901899052E+02  0.51100000000E-03 0. -1.
        -11    1    3    3    0    0  0.66438515715E+01 -0.71954117755E+01  0.19779863625E+01  0.99913534936E+01  0.51100000000E-03 0.  1.
        -12    1    3    3    0    0 -0.12325741894E+02 -0.38387534939E+01 -0.25485083082E+02  0.28568328641E+02  0.00000000000E+00 0.  1.
</event>
<event>
 7    1  0.3440346E-013  0.7246158E+02  0.7816164E-02  0.1226708E+00
        -11   -1    0    0    0    0  0.00000000000E+00  0.00000000000E+00  0.45593999997E+02  0.45594000000E+02  0.51100000000E-03 0.  1.
         11   -1    0    0    0    0 -0.00000000000E+00 -0.00000000000E+00 -0.45593999997E+02  0.45594000000E+02  0.51100000000E-03 0. -1.
    9900012    2    1    2    0    0 -0.55153744023E+00 -0.12566906738E+01 -0.18676066366E+02  0.72461576960E+02  0.70000008683E+02 0.  0.
        -12    1    1    2    0    0  0.55153744023E+00  0.12566906738E+01  0.18676066366E+02  0.18726423040E+02  0.00000000000E+00 0.  1.
         11    1    3    3    0    0  0.14159385851E+02 -0.16615317504E+02 -0.17138293297E+02  0.27753884067E+02  0.51100000000E-03 0. -1.
        -11    1    3    3    0    0 -0.42406831164E+01 -0.13134586972E+02  0.26801614613E+01  0.14060015431E+02  0.51100000000E-03 0.  1.
        -12    1    3    3    0    0 -0.10470240175E+02  0.28493213802E+02 -0.42179345303E+01  0.30647677461E+02  0.00000000000E+00 0.  1.
</event>
<event>
 7    1  0.3440346E-013  0.7246160E+02  0.7816164E-02  0.1226708E+00
        -11   -1    0    0    0    0  0.00000000000E+00  0.00000000000E+00  0.45593999997E+02  0.45594000000E+02  0.51100000000E-03 0.  1.
         11   -1    0    0    0    0 -0.00000000000E+00 -0.00000000000E+00 -0.45593999997E+02  0.45594000000E+02  0.51100000000E-03 0. -1.
    9900012    2    1    2    0    0 -0.12090607116E+02 -0.29862039821E+01 -0.13984913957E+02  0.72461601173E+02  0.70000040225E+02 0.  0.
        -12    1    1    2    0    0  0.12090607116E+02  0.29862039821E+01  0.13984913957E+02  0.18726398827E+02  0.00000000000E+00 0.  1.
         11    1    3    3    0    0 -0.20670652816E+02  0.31453363411E+01 -0.95595117931E+01  0.22990286960E+02  0.51100000000E-03 0. -1.
        -11    1    3    3    0    0 -0.12300382075E+02 -0.18456456221E+02 -0.10403848612E+02  0.24498576319E+02  0.51100000000E-03 0.  1.
        -12    1    3    3    0    0  0.20880427775E+02  0.12324915898E+02  0.59784464486E+01  0.24972737893E+02  0.00000000000E+00 0.  1.
</event>
<event>
 7    1  0.3440346E-013  0.7246155E+02  0.7816164E-02  0.1226708E+00
        -11   -1    0    0    0    0  0.00000000000E+00  0.00000000000E+00  0.45593999997E+02  0.45594000000E+02  0.51100000000E-03 0. -1.
         11   -1    0    0    0    0 -0.00000000000E+00 -0.00000000000E+00 -0.45593999997E+02  0.45594000000E+02  0.51100000000E-03 0.  1.
    9900012    2    1    2    0    0 -0.18417885898E+01  0.50858004944E+01  0.17928253556E+02  0.72461552728E+02  0.69999977116E+02 0.  0.
        -12    1    1    2    0    0  0.18417885898E+01 -0.50858004944E+01 -0.17928253556E+02  0.18726447272E+02  0.00000000000E+00 0.  1.
         11    1    3    3    0    0  0.89305717055E+01  0.13376421402E+02  0.43944099868E+01  0.16673170061E+02  0.51100000000E-03 0. -1.
        -11    1    3    3    0    0 -0.57695568286E+01 -0.13967411045E+02 -0.17917545066E+02  0.23439598519E+02  0.51100000000E-03 0.  1.
         12    1    3    3    0    0 -0.50028034667E+01  0.56767901375E+01  0.31451388635E+02  0.32348784148E+02  0.00000000000E+00 0. -1.
</event>
<event>
 7    1  0.3440346E-013  0.7246148E+02  0.7816164E-02  0.1226708E+00
        -11   -1    0    0    0    0  0.00000000000E+00  0.00000000000E+00  0.45593999997E+02  0.45594000000E+02  0.51100000000E-03 0.  1.
         11   -1    0    0    0    0 -0.00000000000E+00 -0.00000000000E+00 -0.45593999997E+02  0.45594000000E+02  0.51100000000E-03 0. -1.
    9900012    2    1    2    0    0  0.71469614969E-01 -0.13531159508E+02 -0.12945470053E+02  0.72461479222E+02  0.69999881362E+02 0.  0.
        -12    1    1    2    0    0 -0.71469614969E-01  0.13531159508E+02  0.12945470053E+02  0.18726520778E+02  0.00000000000E+00 0.  1.
         11    1    3    3    0    0 -0.76467651422E+00  0.14985772103E+02 -0.84658968359E+01  0.17228740673E+02  0.51100000000E-03 0. -1.
        -11    1    3    3    0    0 -0.17466966824E+02 -0.18172259792E+02  0.12568235254E+02  0.28165342065E+02  0.51100000000E-03 0.  1.
         12    1    3    3    0    0  0.18303112953E+02 -0.10344671818E+02 -0.17047808471E+02  0.27067396485E+02  0.00000000000E+00 0. -1.
</event>
<event>
 7    1  0.3440346E-013  0.7246162E+02  0.7816164E-02  0.1226708E+00
        -11   -1    0    0    0    0  0.00000000000E+00  0.00000000000E+00  0.45593999997E+02  0.45594000000E+02  0.51100000000E-03 0.  1.
         11   -1    0    0    0    0 -0.00000000000E+00 -0.00000000000E+00 -0.45593999997E+02  0.45594000000E+02  0.51100000000E-03 0. -1.
    9900012    2    1    2    0    0 -0.64643486893E+01  0.14034387703E+02 -0.10579482689E+02  0.72461620314E+02  0.70000065160E+02 0.  0.
        -12    1    1    2    0    0  0.64643486893E+01 -0.14034387703E+02  0.10579482689E+02  0.18726379686E+02  0.00000000000E+00 0.  1.
         11    1    3    3    0    0 -0.16498706917E+02  0.19179714913E+02  0.34300446000E+00  0.25301905983E+02  0.51100000000E-03 0. -1.
        -11    1    3    3    0    0 -0.17016539063E+02 -0.70212025836E+01 -0.73007564268E+01  0.19803053605E+02  0.51100000000E-03 0.  1.
         12    1    3    3    0    0  0.27050897291E+02  0.18758753741E+01 -0.36217307223E+01  0.27356660726E+02  0.00000000000E+00 0. -1.
</event>
<event>
 7    1  0.3440346E-013  0.7246157E+02  0.7816164E-02  0.1226708E+00
        -11   -1    0    0    0    0  0.00000000000E+00  0.00000000000E+00  0.45593999997E+02  0.45594000000E+02  0.51100000000E-03 0. -1.
         11   -1    0    0    0    0 -0.00000000000E+00 -0.00000000000E+00 -0.45593999997E+02  0.45594000000E+02  0.51100000000E-03 0.  1.
    9900012    2    1    2    0    0  0.41311600363E+01  0.12164987472E+02  0.13624455733E+02  0.72461569549E+02  0.69999999029E+02 0.  0.
        -12    1    1    2    0    0 -0.41311600363E+01 -0.12164987472E+02 -0.13624455733E+02  0.18726430451E+02  0.00000000000E+00 0.  1.
         11    1    3    3    0    0  0.16177148432E+02 -0.90317026115E+01 -0.48706974569E+01  0.19157126022E+02  0.51100000000E-03 0. -1.
        -11    1    3    3    0    0  0.79664873639E+01 -0.70365700483E+01 -0.47225001162E+01  0.11631003679E+02  0.51100000000E-03 0.  1.
         12    1    3    3    0    0 -0.20012475760E+02  0.28233260132E+02  0.23217653306E+02  0.41673439848E+02  0.00000000000E+00 0. -1.
</event>
<event>
 7    1  0.3440346E-013  0.7246158E+02  0.7816164E-02  0.1226708E+00
        -11   -1    0    0    0    0  0.00000000000E+00  0.00000000000E+00  0.45593999997E+02  0.45594000000E+02  0.51100000000E-03 0. -1.
         11   -1    0    0    0    0 -0.00000000000E+00 -0.00000000000E+00 -0.45593999997E+02  0.45594000000E+02  0.51100000000E-03 0.  1.
    9900012    2    1    2    0    0  0.12848312985E+01 -0.13874445733E+01  0.18630705333E+02  0.72461575485E+02  0.70000006762E+02 0.  0.
        -12    1    1    2    0    0 -0.12848312985E+01  0.13874445733E+01 -0.18630705333E+02  0.18726424515E+02  0.00000000000E+00 0.  1.
         11    1    3    3    0    0  0.73078812159E+01 -0.54035169561E+01 -0.50436606473E+01  0.10394307882E+02  0.51100000000E-03 0. -1.
        -11    1    3    3    0    0 -0.20871116026E+02 -0.12641623236E+02 -0.58171554498E+01  0.25084924157E+02  0.51100000000E-03 0.  1.
         12    1    3    3    0    0  0.14848066109E+02  0.16657695618E+02  0.29491521430E+02  0.36982343446E+02  0.00000000000E+00 0. -1.
</event>
<event>
 7    1  0.3440346E-013  0.7246158E+02  0.7816164E-02  0.1226708E+00
        -11   -1    0    0    0    0  0.00000000000E+00  0.00000000000E+00  0.45593999997E+02  0.45594000000E+02  0.51100000000E-03 0.  1.
         11   -1    0    0    0    0 -0.00000000000E+00 -0.00000000000E+00 -0.45593999997E+02  0.45594000000E+02  0.51100000000E-03 0. -1.
    9900012    2    1    2    0    0 -0.99197115372E+01  0.11421181175E+02 -0.11037879873E+02  0.72461578866E+02  0.70000011166E+02 0.  0.
        -12    1    1    2    0    0  0.99197115372E+01 -0.11421181175E+02  0.11037879873E+02  0.18726421134E+02  0.00000000000E+00 0.  1.
         11    1    3    3    0    0 -0.11294835790E+02  0.16011162781E+02 -0.13996536454E+02  0.24079735923E+02  0.51100000000E-03 0. -1.
        -11    1    3    3    0    0 -0.11383661975E+02  0.13572978403E+02  0.14926212286E+02  0.23164742955E+02  0.51100000000E-03 0.  1.
         12    1    3    3    0    0  0.12758786228E+02 -0.18162960009E+02 -0.11967555704E+02  0.25217099989E+02  0.00000000000E+00 0. -1.
</event>
<event>
 7    1  0.3440346E-013  0.7246157E+02  0.7816164E-02  0.1226708E+00
        -11   -1    0    0    0    0  0.00000000000E+00  0.00000000000E+00  0.45593999997E+02  0.45594000000E+02  0.51100000000E-03 0.  1.
         11   -1    0    0    0    0 -0.00000000000E+00 -0.00000000000E+00 -0.45593999997E+02  0.45594000000E+02  0.51100000000E-03 0. -1.
    9900012    2    1    2    0    0 -0.83435398754E+01 -0.11755023494E+01 -0.16723722253E+02  0.72461565491E+02  0.69999993743E+02 0.  0.
        -12    1    1    2    0    0  0.83435398754E+01  0.11755023494E+01  0.16723722253E+02  0.18726434509E+02  0.00000000000E+00 0.  1.
         11    1    3    3    0    0 -0.97286573444E+01 -0.36134671451E+01 -0.16738170214E+02  0.19694422076E+02  0.51100000000E-03 0. -1.
        -11    1    3    3    0    0 -0.20000052713E+02  0.41393551718E+01  0.16056448193E+02  0.25979720911E+02  0.51100000000E-03 0.  1.
        -12    1    3    3    0    0  0.21385170182E+02 -0.17013903761E+01 -0.16042000232E+02  0.26787422504E+02  0.00000000000E+00 0.  1.
</event>
<event>
 7    1  0.3440346E-013  0.7246158E+02  0.7816164E-02  0.1226708E+00
        -11   -1    0    0    0    0  0.00000000000E+00  0.00000000000E+00  0.45593999997E+02  0.45594000000E+02  0.51100000000E-03 0. -1.
         11   -1    0    0    0    0 -0.00000000000E+00 -0.00000000000E+00 -0.45593999997E+02  0.45594000000E+02  0.51100000000E-03 0.  1.
    9900012    2    1    2    0    0  0.13603933244E+02 -0.12701378099E+02  0.20704384755E+01  0.72461582275E+02  0.70000015607E+02 0.  0.
        -12    1    1    2    0    0 -0.13603933244E+02  0.12701378099E+02 -0.20704384755E+01  0.18726417725E+02  0.00000000000E+00 0.  1.
         11    1    3    3    0    0  0.37369106510E+01 -0.67335215359E+01  0.22158380961E+02  0.23458445399E+02  0.51100000000E-03 0. -1.
        -11    1    3    3    0    0 -0.43563408547E+01  0.36150630248E+01  0.11636053765E+02  0.12940020626E+02  0.51100000000E-03 0.  1.
         12    1    3    3    0    0  0.14223363448E+02 -0.95829195877E+01 -0.31723996250E+02  0.36063116250E+02  0.00000000000E+00 0. -1.
</event>
<event>
 7    1  0.3440346E-013  0.7246158E+02  0.7816164E-02  0.1226708E+00
        -11   -1    0    0    0    0  0.00000000000E+00  0.00000000000E+00  0.45593999997E+02  0.45594000000E+02  0.51100000000E-03 0.  1.
         11   -1    0    0    0    0 -0.00000000000E+00 -0.00000000000E+00 -0.45593999997E+02  0.45594000000E+02  0.51100000000E-03 0. -1.
    9900012    2    1    2    0    0 -0.79767453171E+01  0.37922647621E+01 -0.16512689121E+02  0.72461584436E+02  0.70000018422E+02 0.  0.
        -12    1    1    2    0    0  0.79767453171E+01 -0.37922647621E+01  0.16512689121E+02  0.18726415564E+02  0.00000000000E+00 0.  1.
         11    1    3    3    0    0  0.80496925990E+01 -0.93279245529E+01  0.83424440155E+01  0.14879653888E+02  0.51100000000E-03 0. -1.
        -11    1    3    3    0    0  0.14590379825E+02  0.14488297922E+02 -0.53233253955E+01  0.21239768211E+02  0.51100000000E-03 0.  1.
         12    1    3    3    0    0 -0.30616817741E+02 -0.13681086066E+01 -0.19531807741E+02  0.36342162338E+02  0.00000000000E+00 0. -1.
</event>
<event>
 7    1  0.3440346E-013  0.7246158E+02  0.7816164E-02  0.1226708E+00
        -11   -1    0    0    0    0  0.00000000000E+00  0.00000000000E+00  0.45593999997E+02  0.45594000000E+02  0.51100000000E-03 0.  1.
         11   -1    0    0    0    0 -0.00000000000E+00 -0.00000000000E+00 -0.45593999997E+02  0.45594000000E+02  0.51100000000E-03 0. -1.
    9900012    2    1    2    0    0 -0.82791760930E+01 -0.96020504853E+01 -0.13781674491E+02  0.72461583309E+02  0.70000016954E+02 0.  0.
        -12    1    1    2    0    0  0.82791760930E+01  0.96020504853E+01  0.13781674491E+02  0.18726416691E+02  0.00000000000E+00 0.  1.
         11    1    3    3    0    0  0.62407649326E+01  0.11762616137E+02 -0.13275653022E+02  0.18802905327E+02  0.51100000000E-03 0. -1.
        -11    1    3    3    0    0 -0.11521295483E+02 -0.30637060698E+00 -0.21106004890E+02  0.24047818097E+02  0.51100000000E-03 0.  1.
        -12    1    3    3    0    0 -0.29986455431E+01 -0.21058296015E+02  0.20599983421E+02  0.29610859884E+02  0.00000000000E+00 0.  1.
</event>
<event>
 7    1  0.3440346E-013  0.7246164E+02  0.7816164E-02  0.1226708E+00
        -11   -1    0    0    0    0  0.00000000000E+00  0.00000000000E+00  0.45593999997E+02  0.45594000000E+02  0.51100000000E-03 0.  1.
         11   -1    0    0    0    0 -0.00000000000E+00 -0.00000000000E+00 -0.45593999997E+02  0.45594000000E+02  0.51100000000E-03 0. -1.
    9900012    2    1    2    0    0 -0.12463249879E+02 -0.94090012409E+01 -0.10335117314E+02  0.72461640188E+02  0.70000091050E+02 0.  0.
        -12    1    1    2    0    0  0.12463249879E+02  0.94090012409E+01  0.10335117314E+02  0.18726359812E+02  0.00000000000E+00 0.  1.
         11    1    3    3    0    0 -0.17858137581E+02 -0.17714673959E+02 -0.17022030901E+02  0.30372228888E+02  0.51100000000E-03 0. -1.
        -11    1    3    3    0    0 -0.21372966362E+01 -0.15930164559E+02  0.40369869290E+01  0.16572128515E+02  0.51100000000E-03 0.  1.
        -12    1    3    3    0    0  0.75321843378E+01  0.24235837278E+02  0.26499266584E+01  0.25517282785E+02  0.00000000000E+00 0.  1.
</event>
<event>
 7    1  0.3440346E-013  0.7246158E+02  0.7816164E-02  0.1226708E+00
        -11   -1    0    0    0    0  0.00000000000E+00  0.00000000000E+00  0.45593999997E+02  0.45594000000E+02  0.51100000000E-03 0.  1.
         11   -1    0    0    0    0 -0.00000000000E+00 -0.00000000000E+00 -0.45593999997E+02  0.45594000000E+02  0.51100000000E-03 0. -1.
    9900012    2    1    2    0    0 -0.13365397969E+01 -0.16653529077E+02 -0.84588729574E+01  0.72461577463E+02  0.70000009338E+02 0.  0.
        -12    1    1    2    0    0  0.13365397969E+01  0.16653529077E+02  0.84588729574E+01  0.18726422537E+02  0.00000000000E+00 0.  1.
         11    1    3    3    0    0 -0.73602212429E+01  0.16883984424E+02  0.81323694699E+01  0.20133981728E+02  0.51100000000E-03 0. -1.
        -11    1    3    3    0    0  0.12212546474E+02 -0.17690413351E+00 -0.13579794378E+02  0.18264402592E+02  0.51100000000E-03 0.  1.
        -12    1    3    3    0    0 -0.61888650275E+01 -0.33360609367E+02 -0.30114480489E+01  0.34063193142E+02  0.00000000000E+00 0.  1.
</event>
<event>
 7    1  0.3440346E-013  0.7246155E+02  0.7816164E-02  0.1226708E+00
        -11   -1    0    0    0    0  0.00000000000E+00  0.00000000000E+00  0.45593999997E+02  0.45594000000E+02  0.51100000000E-03 0.  1.
         11   -1    0    0    0    0 -0.00000000000E+00 -0.00000000000E+00 -0.45593999997E+02  0.45594000000E+02  0.51100000000E-03 0. -1.
    9900012    2    1    2    0    0 -0.10999488889E+02 -0.12100287663E+02 -0.91254656321E+01  0.72461552383E+02  0.69999976667E+02 0.  0.
        -12    1    1    2    0    0  0.10999488889E+02  0.12100287663E+02  0.91254656321E+01  0.18726447617E+02  0.00000000000E+00 0.  1.
         11    1    3    3    0    0  0.13759755733E+02 -0.38522565554E+01 -0.27517983318E+02  0.31006614852E+02  0.51100000000E-03 0. -1.
        -11    1    3    3    0    0 -0.19498255335E+02 -0.53064123493E+01 -0.18901165757E+01  0.20295627954E+02  0.51100000000E-03 0.  1.
        -12    1    3    3    0    0 -0.52609892870E+01 -0.29416187584E+01  0.20282634262E+02  0.21159309578E+02  0.00000000000E+00 0.  1.
</event>
<event>
 7    1  0.3440346E-013  0.7246155E+02  0.7816164E-02  0.1226708E+00
        -11   -1    0    0    0    0  0.00000000000E+00  0.00000000000E+00  0.45593999997E+02  0.45594000000E+02  0.51100000000E-03 0.  1.
         11   -1    0    0    0    0 -0.00000000000E+00 -0.00000000000E+00 -0.45593999997E+02  0.45594000000E+02  0.51100000000E-03 0. -1.
    9900012    2    1    2    0    0  0.20419258164E+01 -0.12226367169E+02 -0.14036614136E+02  0.72461546743E+02  0.69999969319E+02 0.  0.
        -12    1    1    2    0    0 -0.20419258164E+01  0.12226367169E+02  0.14036614136E+02  0.18726453257E+02  0.00000000000E+00 0.  1.
         11    1    3    3    0    0  0.25373209382E+02  0.10225175125E+02 -0.13470799354E+02  0.30492890912E+02  0.51100000000E-03 0. -1.
        -11    1    3    3    0    0 -0.41879601297E+00  0.43664792848E+01  0.45574294126E+01  0.63254797887E+01  0.51100000000E-03 0.  1.
        -12    1    3    3    0    0 -0.22912487553E+02 -0.26818021579E+02 -0.51232441949E+01  0.35643176042E+02  0.00000000000E+00 0.  1.
</event>
<event>
 7    1  0.3440346E-013  0.7246156E+02  0.7816164E-02  0.1226708E+00
        -11   -1    0    0    0    0  0.00000000000E+00  0.00000000000E+00  0.45593999997E+02  0.45594000000E+02  0.51100000000E-03 0.  1.
         11   -1    0    0    0    0 -0.00000000000E+00 -0.00000000000E+00 -0.45593999997E+02  0.45594000000E+02  0.51100000000E-03 0. -1.
    9900012    2    1    2    0    0  0.18419444736E+02  0.24174550618E+01  0.23579002973E+01  0.72461555405E+02  0.69999980604E+02 0.  0.
        -12    1    1    2    0    0 -0.18419444736E+02 -0.24174550618E+01 -0.23579002973E+01  0.18726444595E+02  0.00000000000E+00 0.  1.
         11    1    3    3    0    0  0.21013133124E+02  0.90791505366E+01  0.66401519484E+01  0.23834310485E+02  0.51100000000E-03 0. -1.
        -11    1    3    3    0    0 -0.10012060117E+02  0.14356853479E+02  0.11828414499E+02  0.21125150399E+02  0.51100000000E-03 0.  1.
         12    1    3    3    0    0  0.74183717288E+01 -0.21018548953E+02 -0.16110666150E+02  0.27502094520E+02  0.00000000000E+00 0. -1.
</event>
<event>
 7    1  0.3440346E-013  0.7246155E+02  0.7816164E-02  0.1226708E+00
        -11   -1    0    0    0    0  0.00000000000E+00  0.00000000000E+00  0.45593999997E+02  0.45594000000E+02  0.51100000000E-03 0.  1.
         11   -1    0    0    0    0 -0.00000000000E+00 -0.00000000000E+00 -0.45593999997E+02  0.45594000000E+02  0.51100000000E-03 0. -1.
    9900012    2    1    2    0    0 -0.14558240307E+02  0.70005025834E+01 -0.94726154859E+01  0.72461552355E+02  0.69999976630E+02 0.  0.
        -12    1    1    2    0    0  0.14558240307E+02 -0.70005025834E+01  0.94726154859E+01  0.18726447645E+02  0.00000000000E+00 0.  1.
         11    1    3    3    0    0 -0.24744616118E+02 -0.11034507043E+02 -0.93223640341E+01  0.28652449179E+02  0.51100000000E-03 0. -1.
        -11    1    3    3    0    0  0.75728957720E+01  0.27829572964E+01 -0.18275259685E+02  0.19976954686E+02  0.51100000000E-03 0.  1.
        -12    1    3    3    0    0  0.26134800384E+01  0.15252052330E+02  0.18125008234E+02  0.23832148490E+02  0.00000000000E+00 0.  1.
</event>
<event>
 7    1  0.3440346E-013  0.7246153E+02  0.7816164E-02  0.1226708E+00
        -11   -1    0    0    0    0  0.00000000000E+00  0.00000000000E+00  0.45593999997E+02  0.45594000000E+02  0.51100000000E-03 0.  1.
         11   -1    0    0    0    0 -0.00000000000E+00 -0.00000000000E+00 -0.45593999997E+02  0.45594000000E+02  0.51100000000E-03 0. -1.
    9900012    2    1    2    0    0  0.15499710435E+02 -0.70985940694E+01 -0.77491713080E+01  0.72461528968E+02  0.69999946165E+02 0.  0.
        -12    1    1    2    0    0 -0.15499710435E+02  0.70985940694E+01  0.77491713080E+01  0.18726471032E+02  0.00000000000E+00 0.  1.
         11    1    3    3    0    0  0.15573840215E+01 -0.15873850010E+02  0.57069036512E+01  0.16940286558E+02  0.51100000000E-03 0. -1.
        -11    1    3    3    0    0  0.14198033412E+02 -0.19432081124E+02  0.45160413319E+00  0.24070601907E+02  0.51100000000E-03 0.  1.
         12    1    3    3    0    0 -0.25570699812E+00  0.28207337065E+02 -0.13907679092E+02  0.31450640504E+02  0.00000000000E+00 0. -1.
</event>
<event>
 7    1  0.3440346E-013  0.7246157E+02  0.7816164E-02  0.1226708E+00
        -11   -1    0    0    0    0  0.00000000000E+00  0.00000000000E+00  0.45593999997E+02  0.45594000000E+02  0.51100000000E-03 0.  1.
         11   -1    0    0    0    0 -0.00000000000E+00 -0.00000000000E+00 -0.45593999997E+02  0.45594000000E+02  0.51100000000E-03 0. -1.
    9900012    2    1    2    0    0  0.17782734574E+02  0.46238875303E+01  0.36157095744E+01  0.72461565728E+02  0.69999994052E+02 0.  0.
        -12    1    1    2    0    0 -0.17782734574E+02 -0.46238875303E+01 -0.36157095744E+01  0.18726434272E+02  0.00000000000E+00 0.  1.
         11    1    3    3    0    0  0.87017660235E+01 -0.97249807294E+01 -0.16773428982E+02  0.21251915260E+02  0.51100000000E-03 0. -1.
        -11    1    3    3    0    0 -0.12996572057E+02 -0.32015213646E+01 -0.39503585438E+01  0.13955857450E+02  0.51100000000E-03 0.  1.
         12    1    3    3    0    0  0.22077540607E+02  0.17550389624E+02  0.24339497100E+02  0.37253793019E+02  0.00000000000E+00 0. -1.
</event>
<event>
 7    1  0.3440346E-013  0.7246159E+02  0.7816164E-02  0.1226708E+00
        -11   -1    0    0    0    0  0.00000000000E+00  0.00000000000E+00  0.45593999997E+02  0.45594000000E+02  0.51100000000E-03 0.  1.
         11   -1    0    0    0    0 -0.00000000000E+00 -0.00000000000E+00 -0.45593999997E+02  0.45594000000E+02  0.51100000000E-03 0. -1.
    9900012    2    1    2    0    0  0.78848919428E+00  0.15505514600E+02 -0.10470711269E+02  0.72461588366E+02  0.70000023541E+02 0.  0.
        -12    1    1    2    0    0 -0.78848919428E+00 -0.15505514600E+02  0.10470711269E+02  0.18726411634E+02  0.00000000000E+00 0.  1.
         11    1    3    3    0    0 -0.26254028214E+01 -0.11803162532E+02 -0.26798419729E+01  0.12385028824E+02  0.51100000000E-03 0. -1.
        -11    1    3    3    0    0  0.19475726641E+02  0.69412046103E+01  0.15003172313E+02  0.25545634252E+02  0.51100000000E-03 0.  1.
         12    1    3    3    0    0 -0.16061834625E+02  0.20367472521E+02 -0.22794041609E+02  0.34530925289E+02  0.00000000000E+00 0. -1.
</event>
<event>
 7    1  0.3440346E-013  0.7246201E+02  0.7816164E-02  0.1226707E+00
        -11   -1    0    0    0    0  0.00000000000E+00  0.00000000000E+00  0.45593999997E+02  0.45594000000E+02  0.51100000000E-03 0. -1.
         11   -1    0    0    0    0 -0.00000000000E+00 -0.00000000000E+00 -0.45593999997E+02  0.45594000000E+02  0.51100000000E-03 0.  1.
    9900012    2    1    2    0    0 -0.69823589064E+01  0.11792928524E+02  0.12760729461E+02  0.72462009627E+02  0.70000572310E+02 0.  0.
        -12    1    1    2    0    0  0.69823589064E+01 -0.11792928524E+02 -0.12760729461E+02  0.18725990373E+02  0.00000000000E+00 0.  1.
         11    1    3    3    0    0  0.13184081609E+00  0.29933236687E+01  0.13292721971E+01  0.32778550031E+01  0.51100000000E-03 0. -1.
        -11    1    3    3    0    0 -0.12009766040E+02  0.12594703910E+02 -0.25976272509E+02  0.31267039845E+02  0.51100000000E-03 0.  1.
         12    1    3    3    0    0  0.48955663176E+01 -0.37950990551E+01  0.37407729773E+02  0.37917114779E+02  0.00000000000E+00 0. -1.
</event>
<event>
 7    1  0.3440346E-013  0.7246159E+02  0.7816164E-02  0.1226708E+00
        -11   -1    0    0    0    0  0.00000000000E+00  0.00000000000E+00  0.45593999997E+02  0.45594000000E+02  0.51100000000E-03 0.  1.
         11   -1    0    0    0    0 -0.00000000000E+00 -0.00000000000E+00 -0.45593999997E+02  0.45594000000E+02  0.51100000000E-03 0. -1.
    9900012    2    1    2    0    0  0.42080320245E+01 -0.64044163986E+01 -0.17086668778E+02  0.72461592634E+02  0.70000029101E+02 0.  0.
        -12    1    1    2    0    0 -0.42080320245E+01  0.64044163986E+01  0.17086668778E+02  0.18726407366E+02  0.00000000000E+00 0.  1.
         11    1    3    3    0    0  0.13619324697E+02 -0.28812070954E+02 -0.23274865186E+02  0.39463157344E+02  0.51100000000E-03 0. -1.
        -11    1    3    3    0    0  0.33988281708E+01 -0.21269195955E+01  0.32579535562E+01  0.51662444324E+01  0.51100000000E-03 0.  1.
        -12    1    3    3    0    0 -0.12810120843E+02  0.24534574151E+02  0.29302428517E+01  0.27832190858E+02  0.00000000000E+00 0.  1.
</event>
<event>
 7    1  0.3440346E-013  0.7246168E+02  0.7816164E-02  0.1226708E+00
        -11   -1    0    0    0    0  0.00000000000E+00  0.00000000000E+00  0.45593999997E+02  0.45594000000E+02  0.51100000000E-03 0.  1.
         11   -1    0    0    0    0 -0.00000000000E+00 -0.00000000000E+00 -0.45593999997E+02  0.45594000000E+02  0.51100000000E-03 0. -1.
    9900012    2    1    2    0    0 -0.14041927907E+02 -0.10348199841E+02 -0.68127895148E+01  0.72461679479E+02  0.70000142233E+02 0.  0.
        -12    1    1    2    0    0  0.14041927907E+02  0.10348199841E+02  0.68127895148E+01  0.18726320521E+02  0.00000000000E+00 0.  1.
         11    1    3    3    0    0  0.98355520930E+01  0.49378672386E+01  0.63593824628E+01  0.12710718446E+02  0.51100000000E-03 0.  1.
        -11    1    3    3    0    0 -0.24208786070E+02 -0.18802516229E+02 -0.29800738067E+02  0.42751420200E+02  0.51100000000E-03 0. -1.
         12    1    3    3    0    0  0.33130606980E+00  0.35164491498E+01  0.16628566089E+02  0.16999540833E+02  0.00000000000E+00 0. -1.
</event>
<event>
 7    1  0.3440346E-013  0.7246097E+02  0.7816164E-02  0.1226710E+00
        -11   -1    0    0    0    0  0.00000000000E+00  0.00000000000E+00  0.45593999997E+02  0.45594000000E+02  0.51100000000E-03 0. -1.
         11   -1    0    0    0    0 -0.00000000000E+00 -0.00000000000E+00 -0.45593999997E+02  0.45594000000E+02  0.51100000000E-03 0.  1.
    9900012    2    1    2    0    0 -0.15898432792E+02  0.72387704663E+01 -0.67484470726E+01  0.72460974048E+02  0.69999223274E+02 0.  0.
        -12    1    1    2    0    0  0.15898432792E+02 -0.72387704663E+01  0.67484470726E+01  0.18727025952E+02  0.00000000000E+00 0.  1.
         11    1    3    3    0    0  0.46704962512E+01  0.14671375638E+02  0.11424718887E+02  0.19172558521E+02  0.51100000000E-03 0. -1.
        -11    1    3    3    0    0 -0.35648598616E+01  0.47392304947E+01 -0.29097271447E+02  0.29695449776E+02  0.51100000000E-03 0.  1.
         12    1    3    3    0    0 -0.17004069182E+02 -0.12171835666E+02  0.10924105487E+02  0.23592965751E+02  0.00000000000E+00 0. -1.
</event>
<event>
 7    1  0.3440346E-013  0.7246157E+02  0.7816164E-02  0.1226708E+00
        -11   -1    0    0    0    0  0.00000000000E+00  0.00000000000E+00  0.45593999997E+02  0.45594000000E+02  0.51100000000E-03 0. -1.
         11   -1    0    0    0    0 -0.00000000000E+00 -0.00000000000E+00 -0.45593999997E+02  0.45594000000E+02  0.51100000000E-03 0.  1.
    9900012    2    1    2    0    0 -0.14761680213E+02 -0.10550001900E+02 -0.46334946225E+01  0.72461574415E+02  0.70000005368E+02 0.  0.
        -12    1    1    2    0    0  0.14761680213E+02  0.10550001900E+02  0.46334946225E+01  0.18726425585E+02  0.00000000000E+00 0.  1.
         11    1    3    3    0    0  0.17675261873E+02  0.59688700802E+01 -0.12412305960E+02  0.22407758295E+02  0.51100000000E-03 0. -1.
        -11    1    3    3    0    0 -0.10986340324E+02 -0.24266929763E+02  0.40646391702E+01  0.26946332695E+02  0.51100000000E-03 0.  1.
        -12    1    3    3    0    0 -0.21450601761E+02  0.77480577835E+01  0.37141721670E+01  0.23107483425E+02  0.00000000000E+00 0.  1.
</event>
<event>
 7    1  0.3440346E-013  0.7246155E+02  0.7816164E-02  0.1226708E+00
        -11   -1    0    0    0    0  0.00000000000E+00  0.00000000000E+00  0.45593999997E+02  0.45594000000E+02  0.51100000000E-03 0.  1.
         11   -1    0    0    0    0 -0.00000000000E+00 -0.00000000000E+00 -0.45593999997E+02  0.45594000000E+02  0.51100000000E-03 0. -1.
    9900012    2    1    2    0    0 -0.69413679198E+01  0.14328402902E+02 -0.98587090223E+01  0.72461551808E+02  0.69999975918E+02 0.  0.
        -12    1    1    2    0    0  0.69413679198E+01 -0.14328402902E+02  0.98587090223E+01  0.18726448192E+02  0.00000000000E+00 0.  1.
         11    1    3    3    0    0 -0.13844775249E+02 -0.12612831536E+01 -0.34693434668E+01  0.14328467512E+02  0.51100000000E-03 0. -1.
        -11    1    3    3    0    0  0.27046272362E+02 -0.62248400181E+01  0.38459297694E-01  0.27753395491E+02  0.51100000000E-03 0.  1.
         12    1    3    3    0    0 -0.20142865033E+02  0.21814526073E+02 -0.64278248532E+01  0.30379688805E+02  0.00000000000E+00 0. -1.
</event>
<event>
 7    1  0.3440346E-013  0.7246156E+02  0.7816164E-02  0.1226708E+00
        -11   -1    0    0    0    0  0.00000000000E+00  0.00000000000E+00  0.45593999997E+02  0.45594000000E+02  0.51100000000E-03 0. -1.
         11   -1    0    0    0    0 -0.00000000000E+00 -0.00000000000E+00 -0.45593999997E+02  0.45594000000E+02  0.51100000000E-03 0.  1.
    9900012    2    1    2    0    0 -0.56747990670E+01 -0.17703067480E+02  0.22533644459E+01  0.72461558961E+02  0.69999985237E+02 0.  0.
        -12    1    1    2    0    0  0.56747990670E+01  0.17703067480E+02 -0.22533644459E+01  0.18726441039E+02  0.00000000000E+00 0.  1.
         11    1    3    3    0    0  0.13327078726E+02 -0.23088132586E+02  0.38752021492E+01  0.26938635556E+02  0.51100000000E-03 0.  1.
        -11    1    3    3    0    0 -0.16313307882E+02 -0.67709186192E+01  0.16077052612E+02  0.23883906170E+02  0.51100000000E-03 0. -1.
        -12    1    3    3    0    0 -0.26885699110E+01  0.12155983726E+02 -0.17698890315E+02  0.21639017235E+02  0.00000000000E+00 0.  1.
</event>
<event>
 7    1  0.3440346E-013  0.7246156E+02  0.7816164E-02  0.1226708E+00
        -11   -1    0    0    0    0  0.00000000000E+00  0.00000000000E+00  0.45593999997E+02  0.45594000000E+02  0.51100000000E-03 0.  1.
         11   -1    0    0    0    0 -0.00000000000E+00 -0.00000000000E+00 -0.45593999997E+02  0.45594000000E+02  0.51100000000E-03 0. -1.
    9900012    2    1    2    0    0 -0.13817226293E+02 -0.10636762375E+02 -0.68281104712E+01  0.72461560166E+02  0.69999986806E+02 0.  0.
        -12    1    1    2    0    0  0.13817226293E+02  0.10636762375E+02  0.68281104712E+01  0.18726439834E+02  0.00000000000E+00 0.  1.
         11    1    3    3    0    0 -0.16516781046E+02 -0.20556282744E+02 -0.16257393175E+02  0.30978503022E+02  0.51100000000E-03 0. -1.
        -11    1    3    3    0    0 -0.89457255495E+01  0.19964286680E+02 -0.25007390878E+01  0.22019365215E+02  0.51100000000E-03 0.  1.
        -12    1    3    3    0    0  0.11645280303E+02 -0.10044766310E+02  0.11930021791E+02  0.19463691929E+02  0.00000000000E+00 0.  1.
</event>
<event>
 7    1  0.3440346E-013  0.7246160E+02  0.7816164E-02  0.1226708E+00
        -11   -1    0    0    0    0  0.00000000000E+00  0.00000000000E+00  0.45593999997E+02  0.45594000000E+02  0.51100000000E-03 0.  1.
         11   -1    0    0    0    0 -0.00000000000E+00 -0.00000000000E+00 -0.45593999997E+02  0.45594000000E+02  0.51100000000E-03 0. -1.
    9900012    2    1    2    0    0  0.69118860207E+00 -0.94312306966E+01  0.16163301955E+02  0.72461596602E+02  0.70000034271E+02 0.  0.
        -12    1    1    2    0    0 -0.69118860207E+00  0.94312306966E+01 -0.16163301955E+02  0.18726403398E+02  0.00000000000E+00 0.  1.
         11    1    3    3    0    0 -0.43646474402E+01 -0.28671700097E+02 -0.51242834385E+01  0.29451227729E+02  0.51100000000E-03 0. -1.
        -11    1    3    3    0    0  0.14964370902E+02  0.12376165686E+01  0.26090827666E+01  0.15240452894E+02  0.51100000000E-03 0.  1.
        -12    1    3    3    0    0 -0.99085348596E+01  0.18002852831E+02  0.18678502627E+02  0.27769915980E+02  0.00000000000E+00 0.  1.
</event>
<event>
 7    1  0.3440346E-013  0.7246155E+02  0.7816164E-02  0.1226708E+00
        -11   -1    0    0    0    0  0.00000000000E+00  0.00000000000E+00  0.45593999997E+02  0.45594000000E+02  0.51100000000E-03 0.  1.
         11   -1    0    0    0    0 -0.00000000000E+00 -0.00000000000E+00 -0.45593999997E+02  0.45594000000E+02  0.51100000000E-03 0. -1.
    9900012    2    1    2    0    0  0.22350774055E+01  0.12991653788E+02  0.13300422760E+02  0.72461551198E+02  0.69999975123E+02 0.  0.
        -12    1    1    2    0    0 -0.22350774055E+01 -0.12991653788E+02 -0.13300422760E+02  0.18726448802E+02  0.00000000000E+00 0.  1.
         11    1    3    3    0    0 -0.83288769071E+01 -0.17348731489E+02 -0.32094381302E+01  0.19510232397E+02  0.51100000000E-03 0. -1.
        -11    1    3    3    0    0 -0.10043064351E+01 -0.58732504912E+01  0.13570952820E+02  0.14821419077E+02  0.51100000000E-03 0.  1.
         12    1    3    3    0    0  0.11568260748E+02  0.36213635768E+02  0.29389080701E+01  0.38129899724E+02  0.00000000000E+00 0. -1.
</event>
<event>
 7    1  0.3440346E-013  0.7246156E+02  0.7816164E-02  0.1226708E+00
        -11   -1    0    0    0    0  0.00000000000E+00  0.00000000000E+00  0.45593999997E+02  0.45594000000E+02  0.51100000000E-03 0. -1.
         11   -1    0    0    0    0 -0.00000000000E+00 -0.00000000000E+00 -0.45593999997E+02  0.45594000000E+02  0.51100000000E-03 0.  1.
    9900012    2    1    2    0    0 -0.32149359153E+01  0.18279038467E+02  0.24940703275E+01  0.72461562885E+02  0.69999990348E+02 0.  0.
        -12    1    1    2    0    0  0.32149359153E+01 -0.18279038467E+02 -0.24940703275E+01  0.18726437115E+02  0.00000000000E+00 0.  1.
         11    1    3    3    0    0  0.81162094860E+01  0.13777892266E+02  0.63862465871E+01  0.17218807085E+02  0.51100000000E-03 0. -1.
        -11    1    3    3    0    0  0.82619477930E+01  0.14199256750E+02 -0.21580049718E+02  0.27121526868E+02  0.51100000000E-03 0.  1.
         12    1    3    3    0    0 -0.19593093194E+02 -0.96981105488E+01  0.17687873458E+02  0.28121228931E+02  0.00000000000E+00 0. -1.
</event>
<event>
 7    1  0.3440346E-013  0.7246150E+02  0.7816164E-02  0.1226708E+00
        -11   -1    0    0    0    0  0.00000000000E+00  0.00000000000E+00  0.45593999997E+02  0.45594000000E+02  0.51100000000E-03 0.  1.
         11   -1    0    0    0    0 -0.00000000000E+00 -0.00000000000E+00 -0.45593999997E+02  0.45594000000E+02  0.51100000000E-03 0. -1.
    9900012    2    1    2    0    0 -0.64498529642E+00 -0.16690240579E+02 -0.84676731997E+01  0.72461504705E+02  0.69999914557E+02 0.  0.
        -12    1    1    2    0    0  0.64498529642E+00  0.16690240579E+02  0.84676731997E+01  0.18726495295E+02  0.00000000000E+00 0.  1.
         11    1    3    3    0    0  0.97950960147E+00 -0.26834048097E+02  0.14710421961E+01  0.26892183655E+02  0.51100000000E-03 0. -1.
        -11    1    3    3    0    0  0.30926021838E+00  0.14681522434E+01 -0.26622892709E+02  0.26665136965E+02  0.51100000000E-03 0.  1.
        -12    1    3    3    0    0 -0.19337551163E+01  0.86756552741E+01  0.16684177314E+02  0.18904184085E+02  0.00000000000E+00 0.  1.
</event>
<event>
 7    1  0.3440346E-013  0.7246159E+02  0.7816164E-02  0.1226708E+00
        -11   -1    0    0    0    0  0.00000000000E+00  0.00000000000E+00  0.45593999997E+02  0.45594000000E+02  0.51100000000E-03 0. -1.
         11   -1    0    0    0    0 -0.00000000000E+00 -0.00000000000E+00 -0.45593999997E+02  0.45594000000E+02  0.51100000000E-03 0.  1.
    9900012    2    1    2    0    0  0.12245363631E+02  0.49296863678E+01  0.13282611988E+02  0.72461587653E+02  0.70000022613E+02 0.  0.
        -12    1    1    2    0    0 -0.12245363631E+02 -0.49296863678E+01 -0.13282611988E+02  0.18726412347E+02  0.00000000000E+00 0.  1.
         11    1    3    3    0    0 -0.79049704997E+00  0.10294227138E+02  0.83712650927E+01  0.13291880133E+02  0.51100000000E-03 0. -1.
        -11    1    3    3    0    0 -0.17004120658E+02 -0.84416887444E+01 -0.13956703332E+02  0.23562508278E+02  0.51100000000E-03 0.  1.
         12    1    3    3    0    0  0.30039981339E+02  0.30771479737E+01  0.18868050228E+02  0.35607199242E+02  0.00000000000E+00 0. -1.
</event>
<event>
 7    1  0.3440346E-013  0.7246136E+02  0.7816164E-02  0.1226709E+00
        -11   -1    0    0    0    0  0.00000000000E+00  0.00000000000E+00  0.45593999997E+02  0.45594000000E+02  0.51100000000E-03 0.  1.
         11   -1    0    0    0    0 -0.00000000000E+00 -0.00000000000E+00 -0.45593999997E+02  0.45594000000E+02  0.51100000000E-03 0. -1.
    9900012    2    1    2    0    0 -0.12219685076E+02 -0.10791665444E+02  0.92144659325E+01  0.72461357781E+02  0.69999723161E+02 0.  0.
        -12    1    1    2    0    0  0.12219685076E+02  0.10791665444E+02 -0.92144659325E+01  0.18726642219E+02  0.00000000000E+00 0.  1.
         11    1    3    3    0    0  0.23552684770E+02 -0.57816389754E+01  0.32926214624E+01  0.24474428808E+02  0.51100000000E-03 0. -1.
        -11    1    3    3    0    0  0.25186653963E+01 -0.56800451052E+01 -0.52059791959E+01  0.81060969292E+01  0.51100000000E-03 0.  1.
        -12    1    3    3    0    0 -0.38291035242E+02  0.67001863693E+00  0.11127823666E+02  0.39880832043E+02  0.00000000000E+00 0.  1.
</event>
<event>
 7    1  0.3440346E-013  0.7246161E+02  0.7816164E-02  0.1226708E+00
        -11   -1    0    0    0    0  0.00000000000E+00  0.00000000000E+00  0.45593999997E+02  0.45594000000E+02  0.51100000000E-03 0.  1.
         11   -1    0    0    0    0 -0.00000000000E+00 -0.00000000000E+00 -0.45593999997E+02  0.45594000000E+02  0.51100000000E-03 0. -1.
    9900012    2    1    2    0    0  0.95785931730E+01 -0.12997785969E+02 -0.94860864116E+01  0.72461608925E+02  0.70000050324E+02 0.  0.
        -12    1    1    2    0    0 -0.95785931730E+01  0.12997785969E+02  0.94860864116E+01  0.18726391075E+02  0.00000000000E+00 0.  1.
         11    1    3    3    0    0  0.21396918419E+02 -0.12522224450E+02 -0.56064268355E+01  0.25417833211E+02  0.51100000000E-03 0. -1.
        -11    1    3    3    0    0  0.14288685889E+02  0.77621707938E+01  0.68440284333E+01  0.17642521513E+02  0.51100000000E-03 0.  1.
         12    1    3    3    0    0 -0.26107011135E+02 -0.82377323129E+01 -0.10723688009E+02  0.29401254201E+02  0.00000000000E+00 0. -1.
</event>
<event>
 7    1  0.3440346E-013  0.7246155E+02  0.7816164E-02  0.1226708E+00
        -11   -1    0    0    0    0  0.00000000000E+00  0.00000000000E+00  0.45593999997E+02  0.45594000000E+02  0.51100000000E-03 0.  1.
         11   -1    0    0    0    0 -0.00000000000E+00 -0.00000000000E+00 -0.45593999997E+02  0.45594000000E+02  0.51100000000E-03 0. -1.
    9900012    2    1    2    0    0  0.17963240185E+02  0.54398333208E+00 -0.52636549769E+01  0.72461548667E+02  0.69999971827E+02 0.  0.
        -12    1    1    2    0    0 -0.17963240185E+02 -0.54398333208E+00  0.52636549769E+01  0.18726451333E+02  0.00000000000E+00 0.  1.
         11    1    3    3    0    0  0.10422814876E+02  0.17804281465E+02 -0.44227646380E+01  0.21099487097E+02  0.51100000000E-03 0. -1.
        -11    1    3    3    0    0  0.31573747389E+00  0.10464229030E+02  0.15253573466E+02  0.18500575209E+02  0.51100000000E-03 0.  1.
        -12    1    3    3    0    0  0.72246878352E+01 -0.27724527163E+02 -0.16094463805E+02  0.32861486362E+02  0.00000000000E+00 0.  1.
</event>
<event>
 7    1  0.3440346E-013  0.7246144E+02  0.7816164E-02  0.1226708E+00
        -11   -1    0    0    0    0  0.00000000000E+00  0.00000000000E+00  0.45593999997E+02  0.45594000000E+02  0.51100000000E-03 0. -1.
         11   -1    0    0    0    0 -0.00000000000E+00 -0.00000000000E+00 -0.45593999997E+02  0.45594000000E+02  0.51100000000E-03 0.  1.
    9900012    2    1    2    0    0 -0.58388608529E+01  0.12094704328E+02  0.13050281384E+02  0.72461440972E+02  0.69999831533E+02 0.  0.
        -12    1    1    2    0    0  0.58388608529E+01 -0.12094704328E+02 -0.13050281384E+02  0.18726559028E+02  0.00000000000E+00 0.  1.
         11    1    3    3    0    0 -0.34045546084E+00 -0.13660151650E+01 -0.13111826396E+01  0.19238262726E+01  0.51100000000E-03 0. -1.
        -11    1    3    3    0    0 -0.86122113646E+01  0.25248118334E+02 -0.20475688605E+02  0.33628730100E+02  0.51100000000E-03 0.  1.
         12    1    3    3    0    0  0.31138059725E+01 -0.11787398841E+02  0.34837152629E+02  0.36908884599E+02  0.00000000000E+00 0. -1.
</event>
<event>
 7    1  0.3440346E-013  0.7246162E+02  0.7816164E-02  0.1226708E+00
        -11   -1    0    0    0    0  0.00000000000E+00  0.00000000000E+00  0.45593999997E+02  0.45594000000E+02  0.51100000000E-03 0. -1.
         11   -1    0    0    0    0 -0.00000000000E+00 -0.00000000000E+00 -0.45593999997E+02  0.45594000000E+02  0.51100000000E-03 0.  1.
    9900012    2    1    2    0    0  0.15828981640E+02  0.99882346136E+01 -0.59665075250E+00  0.72461615337E+02  0.70000058676E+02 0.  0.
        -12    1    1    2    0    0 -0.15828981640E+02 -0.99882346136E+01  0.59665075250E+00  0.18726384663E+02  0.00000000000E+00 0.  1.
         11    1    3    3    0    0  0.12453515715E+02 -0.16847901305E+02  0.24678379328E+02  0.32372275771E+02  0.51100000000E-03 0. -1.
        -11    1    3    3    0    0  0.29065378856E+01  0.33619109934E+01  0.12978990979E+01  0.46297894485E+01  0.51100000000E-03 0.  1.
        -12    1    3    3    0    0  0.46892803871E+00  0.23474224926E+02 -0.26572929179E+02  0.35459550117E+02  0.00000000000E+00 0.  1.
</event>
<event>
 7    1  0.3440346E-013  0.7246158E+02  0.7816164E-02  0.1226708E+00
        -11   -1    0    0    0    0  0.00000000000E+00  0.00000000000E+00  0.45593999997E+02  0.45594000000E+02  0.51100000000E-03 0. -1.
         11   -1    0    0    0    0 -0.00000000000E+00 -0.00000000000E+00 -0.45593999997E+02  0.45594000000E+02  0.51100000000E-03 0.  1.
    9900012    2    1    2    0    0  0.87175277766E+01  0.14952679998E+02  0.71484938642E+01  0.72461577646E+02  0.70000009576E+02 0.  0.
        -12    1    1    2    0    0 -0.87175277766E+01 -0.14952679998E+02 -0.71484938642E+01  0.18726422354E+02  0.00000000000E+00 0.  1.
         11    1    3    3    0    0 -0.96845720706E+01 -0.18594440603E+01 -0.13327579429E+02  0.16579289554E+02  0.51100000000E-03 0. -1.
        -11    1    3    3    0    0  0.11016211929E+02  0.14890117798E+02 -0.12296818665E+02  0.22232505096E+02  0.51100000000E-03 0.  1.
        -12    1    3    3    0    0  0.73858879180E+01  0.19220062607E+01  0.32772891958E+02  0.33649782996E+02  0.00000000000E+00 0.  1.
</event>
<event>
 7    1  0.3440346E-013  0.7246153E+02  0.7816164E-02  0.1226708E+00
        -11   -1    0    0    0    0  0.00000000000E+00  0.00000000000E+00  0.45593999997E+02  0.45594000000E+02  0.51100000000E-03 0. -1.
         11   -1    0    0    0    0 -0.00000000000E+00 -0.00000000000E+00 -0.45593999997E+02  0.45594000000E+02  0.51100000000E-03 0.  1.
    9900012    2    1    2    0    0  0.81815824965E+01 -0.16322873189E+02  0.41600515582E+01  0.72461534496E+02  0.69999953366E+02 0.  0.
        -12    1    1    2    0    0 -0.81815824965E+01  0.16322873189E+02 -0.41600515582E+01  0.18726465504E+02  0.00000000000E+00 0.  1.
         11    1    3    3    0    0  0.32972243531E+01 -0.26085786409E+02  0.20771878996E+02  0.33508370570E+02  0.51100000000E-03 0. -1.
        -11    1    3    3    0    0  0.17822780294E+02 -0.71060605462E-01 -0.13613805399E+02  0.22427488596E+02  0.51100000000E-03 0.  1.
        -12    1    3    3    0    0 -0.12938422151E+02  0.98339738252E+01 -0.29980220390E+01  0.16525675330E+02  0.00000000000E+00 0.  1.
</event>
<event>
 7    1  0.3440346E-013  0.7246156E+02  0.7816164E-02  0.1226708E+00
        -11   -1    0    0    0    0  0.00000000000E+00  0.00000000000E+00  0.45593999997E+02  0.45594000000E+02  0.51100000000E-03 0.  1.
         11   -1    0    0    0    0 -0.00000000000E+00 -0.00000000000E+00 -0.45593999997E+02  0.45594000000E+02  0.51100000000E-03 0. -1.
    9900012    2    1    2    0    0  0.77738960966E+01  0.12620430726E+02 -0.11444250571E+02  0.72461558710E+02  0.69999984910E+02 0.  0.
        -12    1    1    2    0    0 -0.77738960966E+01 -0.12620430726E+02  0.11444250571E+02  0.18726441290E+02  0.00000000000E+00 0.  1.
         11    1    3    3    0    0 -0.29265940994E+01 -0.12803403190E+02 -0.27625625076E+01  0.13421022246E+02  0.51100000000E-03 0. -1.
        -11    1    3    3    0    0  0.91206587150E+01 -0.11850690990E+02 -0.15023445716E+02  0.21197386957E+02  0.51100000000E-03 0.  1.
         12    1    3    3    0    0  0.15798314810E+01  0.37274524907E+02  0.63417576523E+01  0.37843149507E+02  0.00000000000E+00 0. -1.
</event>
<event>
 7    1  0.3440346E-013  0.7246155E+02  0.7816164E-02  0.1226708E+00
        -11   -1    0    0    0    0  0.00000000000E+00  0.00000000000E+00  0.45593999997E+02  0.45594000000E+02  0.51100000000E-03 0. -1.
         11   -1    0    0    0    0 -0.00000000000E+00 -0.00000000000E+00 -0.45593999997E+02  0.45594000000E+02  0.51100000000E-03 0.  1.
    9900012    2    1    2    0    0  0.30837972737E+01 -0.14082406552E+02  0.11952228963E+02  0.72461554606E+02  0.69999979563E+02 0.  0.
        -12    1    1    2    0    0 -0.30837972737E+01  0.14082406552E+02 -0.11952228963E+02  0.18726445394E+02  0.00000000000E+00 0.  1.
         11    1    3    3    0    0  0.11001957033E+02  0.87171073865E+01  0.32481609138E+02  0.35384826581E+02  0.51100000000E-03 0. -1.
        -11    1    3    3    0    0 -0.85071124120E+00 -0.52286270116E+01  0.35982052144E+01  0.64038528300E+01  0.51100000000E-03 0.  1.
        -12    1    3    3    0    0 -0.70674485179E+01 -0.17570886927E+02 -0.24127585390E+02  0.30672875194E+02  0.00000000000E+00 0.  1.
</event>
<event>
 7    1  0.3440346E-013  0.7246155E+02  0.7816164E-02  0.1226708E+00
        -11   -1    0    0    0    0  0.00000000000E+00  0.00000000000E+00  0.45593999997E+02  0.45594000000E+02  0.51100000000E-03 0.  1.
         11   -1    0    0    0    0 -0.00000000000E+00 -0.00000000000E+00 -0.45593999997E+02  0.45594000000E+02  0.51100000000E-03 0. -1.
    9900012    2    1    2    0    0 -0.26399657934E+01  0.85836910153E+01 -0.16432615164E+02  0.72461547801E+02  0.69999970699E+02 0.  0.
        -12    1    1    2    0    0  0.26399657934E+01 -0.85836910153E+01  0.16432615164E+02  0.18726452199E+02  0.00000000000E+00 0.  1.
         11    1    3    3    0    0  0.85550895918E+01  0.98406354681E+01 -0.13133693104E+02  0.18507337981E+02  0.51100000000E-03 0. -1.
        -11    1    3    3    0    0 -0.32240448258E+02  0.55148308741E+00 -0.55221060878E+01  0.32714588388E+02  0.51100000000E-03 0.  1.
         12    1    3    3    0    0  0.21045392873E+02 -0.18084275403E+01  0.22231840282E+01  0.21239621432E+02  0.00000000000E+00 0. -1.
</event>
<event>
 7    1  0.3440346E-013  0.7246163E+02  0.7816164E-02  0.1226708E+00
        -11   -1    0    0    0    0  0.00000000000E+00  0.00000000000E+00  0.45593999997E+02  0.45594000000E+02  0.51100000000E-03 0. -1.
         11   -1    0    0    0    0 -0.00000000000E+00 -0.00000000000E+00 -0.45593999997E+02  0.45594000000E+02  0.51100000000E-03 0.  1.
    9900012    2    1    2    0    0  0.41769577343E+01  0.32883527283E+01  0.17955969709E+02  0.72461625877E+02  0.70000072407E+02 0.  0.
        -12    1    1    2    0    0 -0.41769577343E+01 -0.32883527283E+01 -0.17955969709E+02  0.18726374123E+02  0.00000000000E+00 0.  1.
         11    1    3    3    0    0 -0.21063821435E+02  0.16111077704E+02  0.91485620505E+01  0.28052586086E+02  0.51100000000E-03 0. -1.
        -11    1    3    3    0    0 -0.76879078937E+00  0.73626920161E+01 -0.47585994300E+01  0.88002580529E+01  0.51100000000E-03 0.  1.
         12    1    3    3    0    0  0.26009569959E+02 -0.20185416992E+02  0.13566007089E+02  0.35608781739E+02  0.00000000000E+00 0. -1.
</event>
<event>
 7    1  0.3440346E-013  0.7246157E+02  0.7816164E-02  0.1226708E+00
        -11   -1    0    0    0    0  0.00000000000E+00  0.00000000000E+00  0.45593999997E+02  0.45594000000E+02  0.51100000000E-03 0.  1.
         11   -1    0    0    0    0 -0.00000000000E+00 -0.00000000000E+00 -0.45593999997E+02  0.45594000000E+02  0.51100000000E-03 0. -1.
    9900012    2    1    2    0    0  0.47895877781E+01 -0.12451059374E+02 -0.13141918137E+02  0.72461573674E+02  0.70000004403E+02 0.  0.
        -12    1    1    2    0    0 -0.47895877781E+01  0.12451059374E+02  0.13141918137E+02  0.18726426326E+02  0.00000000000E+00 0.  1.
         11    1    3    3    0    0 -0.63639875414E+01 -0.34799916224E+01 -0.25788303633E+02  0.26788939577E+02  0.51100000000E-03 0. -1.
        -11    1    3    3    0    0 -0.18334132212E+01 -0.27095244224E+01 -0.14537996827E+02  0.14901552893E+02  0.51100000000E-03 0.  1.
        -12    1    3    3    0    0  0.12986988541E+02 -0.62615433287E+01  0.27184382322E+02  0.30771081204E+02  0.00000000000E+00 0.  1.
</event>
<event>
 7    1  0.3440346E-013  0.7246164E+02  0.7816164E-02  0.1226708E+00
        -11   -1    0    0    0    0  0.00000000000E+00  0.00000000000E+00  0.45593999997E+02  0.45594000000E+02  0.51100000000E-03 0. -1.
         11   -1    0    0    0    0 -0.00000000000E+00 -0.00000000000E+00 -0.45593999997E+02  0.45594000000E+02  0.51100000000E-03 0.  1.
    9900012    2    1    2    0    0 -0.15392962928E+02 -0.10663961525E+02  0.11440608032E+00  0.72461642322E+02  0.70000093830E+02 0.  0.
        -12    1    1    2    0    0  0.15392962928E+02  0.10663961525E+02 -0.11440608032E+00  0.18726357678E+02  0.00000000000E+00 0.  1.
         11    1    3    3    0    0 -0.35515547470E+01  0.11905095817E+02 -0.12992098058E+02  0.17976080211E+02  0.51100000000E-03 0. -1.
        -11    1    3    3    0    0 -0.21548398284E+02 -0.21751357407E+01  0.21378729748E+02  0.30432133839E+02  0.51100000000E-03 0.  1.
         12    1    3    3    0    0  0.97069901023E+01 -0.20393921602E+02 -0.82722256095E+01  0.24053428273E+02  0.00000000000E+00 0. -1.
</event>
<event>
 7    1  0.3440346E-013  0.7246154E+02  0.7816164E-02  0.1226708E+00
        -11   -1    0    0    0    0  0.00000000000E+00  0.00000000000E+00  0.45593999997E+02  0.45594000000E+02  0.51100000000E-03 0.  1.
         11   -1    0    0    0    0 -0.00000000000E+00 -0.00000000000E+00 -0.45593999997E+02  0.45594000000E+02  0.51100000000E-03 0. -1.
    9900012    2    1    2    0    0 -0.63623336877E+01 -0.60961896612E+01 -0.16523841780E+02  0.72461543701E+02  0.69999965357E+02 0.  0.
        -12    1    1    2    0    0  0.63623336877E+01  0.60961896612E+01  0.16523841780E+02  0.18726456299E+02  0.00000000000E+00 0.  1.
         11    1    3    3    0    0 -0.24268201757E+02 -0.11805418789E+02  0.90934701454E+01  0.28478144758E+02  0.51100000000E-03 0. -1.
        -11    1    3    3    0    0  0.18400473288E+01 -0.61508830741E+01  0.45049501834E+01  0.78430678424E+01  0.51100000000E-03 0.  1.
         12    1    3    3    0    0  0.16065820741E+02  0.11860112202E+02 -0.30122262109E+02  0.36140331101E+02  0.00000000000E+00 0. -1.
</event>
<event>
 7    1  0.3827312E-013  0.7246155E+02  0.7816164E-02  0.1226708E+00
        -11   -1    0    0    0    0  0.00000000000E+00  0.00000000000E+00  0.45593999997E+02  0.45594000000E+02  0.51100000000E-03 0.  1.
         11   -1    0    0    0    0 -0.00000000000E+00 -0.00000000000E+00 -0.45593999997E+02  0.45594000000E+02  0.51100000000E-03 0. -1.
    9900012    2    1    2    0    0  0.14465537941E+02 -0.37407497796E+01 -0.11288713141E+02  0.72461547020E+02  0.69999969681E+02 0.  0.
        -12    1    1    2    0    0 -0.14465537941E+02  0.37407497796E+01  0.11288713141E+02  0.18726452980E+02  0.00000000000E+00 0.  1.
         11    1    3    3    0    0  0.22762981481E+02 -0.46033513357E+01 -0.18389030865E+02  0.29622637051E+02  0.51100000000E-03 0.  1.
        -11    1    3    3    0    0 -0.37691965877E+00 -0.19367202437E+02  0.83145665886E+01  0.21079910258E+02  0.51100000000E-03 0. -1.
        -12    1    3    3    0    0 -0.79205238812E+01  0.20229803993E+02 -0.12142488643E+01  0.21758999712E+02  0.00000000000E+00 0.  1.
</event>
<event>
 7    1  0.3440346E-013  0.7246156E+02  0.7816164E-02  0.1226708E+00
        -11   -1    0    0    0    0  0.00000000000E+00  0.00000000000E+00  0.45593999997E+02  0.45594000000E+02  0.51100000000E-03 0.  1.
         11   -1    0    0    0    0 -0.00000000000E+00 -0.00000000000E+00 -0.45593999997E+02  0.45594000000E+02  0.51100000000E-03 0. -1.
    9900012    2    1    2    0    0 -0.16778548217E+01 -0.15373339849E+02 -0.10560524989E+02  0.72461562459E+02  0.69999989793E+02 0.  0.
        -12    1    1    2    0    0  0.16778548217E+01  0.15373339849E+02  0.10560524989E+02  0.18726437541E+02  0.00000000000E+00 0.  1.
         11    1    3    3    0    0 -0.31775657987E+01 -0.41346927074E+02 -0.11566482796E+02  0.43051699472E+02  0.51100000000E-03 0. -1.
        -11    1    3    3    0    0  0.18027956641E+01 -0.11827946778E+01  0.64064254000E+00  0.22493329192E+01  0.51100000000E-03 0.  1.
        -12    1    3    3    0    0 -0.30308468706E+00  0.27156381902E+02  0.36531526683E+00  0.27160530069E+02  0.00000000000E+00 0.  1.
</event>
<event>
 7    1  0.3440346E-013  0.7246157E+02  0.7816164E-02  0.1226708E+00
        -11   -1    0    0    0    0  0.00000000000E+00  0.00000000000E+00  0.45593999997E+02  0.45594000000E+02  0.51100000000E-03 0.  1.
         11   -1    0    0    0    0 -0.00000000000E+00 -0.00000000000E+00 -0.45593999997E+02  0.45594000000E+02  0.51100000000E-03 0. -1.
    9900012    2    1    2    0    0  0.14217138960E+02  0.90645710958E+01 -0.81477516494E+01  0.72461565575E+02  0.69999993852E+02 0.  0.
        -12    1    1    2    0    0 -0.14217138960E+02 -0.90645710958E+01  0.81477516494E+01  0.18726434425E+02  0.00000000000E+00 0.  1.
         11    1    3    3    0    0  0.23381155439E+02  0.57490468660E+00  0.14963599977E+02  0.27765414991E+02  0.51100000000E-03 0. -1.
        -11    1    3    3    0    0  0.11941312353E+02 -0.48282543708E+01 -0.48122383003E+01  0.13750077044E+02  0.51100000000E-03 0.  1.
        -12    1    3    3    0    0 -0.21105328833E+02  0.13317920780E+02 -0.18299113326E+02  0.30946073540E+02  0.00000000000E+00 0.  1.
</event>
<event>
 7    1  0.3440346E-013  0.7246181E+02  0.7816164E-02  0.1226707E+00
        -11   -1    0    0    0    0  0.00000000000E+00  0.00000000000E+00  0.45593999997E+02  0.45594000000E+02  0.51100000000E-03 0.  1.
         11   -1    0    0    0    0 -0.00000000000E+00 -0.00000000000E+00 -0.45593999997E+02  0.45594000000E+02  0.51100000000E-03 0. -1.
    9900012    2    1    2    0    0 -0.13130068101E+02 -0.13229466056E+02 -0.18035053871E+01  0.72461812664E+02  0.70000315731E+02 0.  0.
        -12    1    1    2    0    0  0.13130068101E+02  0.13229466056E+02  0.18035053871E+01  0.18726187336E+02  0.00000000000E+00 0.  1.
         11    1    3    3    0    0  0.12763458672E+02 -0.16952157987E+02 -0.51518744923E+01  0.21836285141E+02  0.51100000000E-03 0. -1.
        -11    1    3    3    0    0  0.93954548933E+01  0.18518641288E+01 -0.90491705049E+01  0.13175411208E+02  0.51100000000E-03 0.  1.
        -12    1    3    3    0    0 -0.35288981666E+02  0.18708278028E+01  0.12397539610E+02  0.37450116316E+02  0.00000000000E+00 0.  1.
</event>
<event>
 7    1  0.3440346E-013  0.7246161E+02  0.7816164E-02  0.1226708E+00
        -11   -1    0    0    0    0  0.00000000000E+00  0.00000000000E+00  0.45593999997E+02  0.45594000000E+02  0.51100000000E-03 0.  1.
         11   -1    0    0    0    0 -0.00000000000E+00 -0.00000000000E+00 -0.45593999997E+02  0.45594000000E+02  0.51100000000E-03 0. -1.
    9900012    2    1    2    0    0  0.11833899776E+02 -0.97758286703E+01 -0.10727053039E+02  0.72461610145E+02  0.70000051913E+02 0.  0.
        -12    1    1    2    0    0 -0.11833899776E+02  0.97758286703E+01  0.10727053039E+02  0.18726389855E+02  0.00000000000E+00 0.  1.
         11    1    3    3    0    0  0.24918708047E+02  0.44441673219E+01 -0.93095142479E+01  0.26969606777E+02  0.51100000000E-03 0. -1.
        -11    1    3    3    0    0  0.66563370052E+00 -0.16726646951E+02  0.16002219323E+02  0.23158039856E+02  0.51100000000E-03 0.  1.
         12    1    3    3    0    0 -0.13750441972E+02  0.25066509584E+01 -0.17419758114E+02  0.22333963513E+02  0.00000000000E+00 0. -1.
</event>
<event>
 7    1  0.3582638E-013  0.7246152E+02  0.7816164E-02  0.1226708E+00
        -11   -1    0    0    0    0  0.00000000000E+00  0.00000000000E+00  0.45593999997E+02  0.45594000000E+02  0.51100000000E-03 0.  1.
         11   -1    0    0    0    0 -0.00000000000E+00 -0.00000000000E+00 -0.45593999997E+02  0.45594000000E+02  0.51100000000E-03 0. -1.
    9900012    2    1    2    0    0  0.98299136366E+01  0.14804907359E+02 -0.59049565681E+01  0.72461521525E+02  0.69999936468E+02 0.  0.
        -12    1    1    2    0    0 -0.98299136366E+01 -0.14804907359E+02  0.59049565681E+01  0.18726478475E+02  0.00000000000E+00 0.  1.
         11    1    3    3    0    0  0.19413697841E+02  0.27731478749E+02  0.28981919310E+01  0.33975374821E+02  0.51100000000E-03 0. -1.
        -11    1    3    3    0    0  0.12646531757E+02 -0.69575745499E+01 -0.28811792277E+01  0.14718824787E+02  0.51100000000E-03 0.  1.
        -12    1    3    3    0    0 -0.22230315962E+02 -0.59689968400E+01 -0.59219692713E+01  0.23767321917E+02  0.00000000000E+00 0.  1.
</event>
<event>
 7    1  0.3440346E-013  0.7246157E+02  0.7816164E-02  0.1226708E+00
        -11   -1    0    0    0    0  0.00000000000E+00  0.00000000000E+00  0.45593999997E+02  0.45594000000E+02  0.51100000000E-03 0. -1.
         11   -1    0    0    0    0 -0.00000000000E+00 -0.00000000000E+00 -0.45593999997E+02  0.45594000000E+02  0.51100000000E-03 0.  1.
    9900012    2    1    2    0    0 -0.50133175635E+01  0.75331536616E+01  0.16395037614E+02  0.72461574408E+02  0.70000005359E+02 0.  0.
        -12    1    1    2    0    0  0.50133175635E+01 -0.75331536616E+01 -0.16395037614E+02  0.18726425592E+02  0.00000000000E+00 0.  1.
         11    1    3    3    0    0  0.51886919722E+01 -0.19574910114E+02  0.13571349388E+02  0.24377882493E+02  0.51100000000E-03 0. -1.
        -11    1    3    3    0    0  0.75552224156E+01  0.11977672280E+01 -0.11298026332E+02  0.13644098773E+02  0.51100000000E-03 0.  1.
        -12    1    3    3    0    0 -0.17757231951E+02  0.25910296548E+02  0.14121714558E+02  0.34439593142E+02  0.00000000000E+00 0.  1.
</event>
<event>
 7    1  0.3440346E-013  0.7246154E+02  0.7816164E-02  0.1226708E+00
        -11   -1    0    0    0    0  0.00000000000E+00  0.00000000000E+00  0.45593999997E+02  0.45594000000E+02  0.51100000000E-03 0.  1.
         11   -1    0    0    0    0 -0.00000000000E+00 -0.00000000000E+00 -0.45593999997E+02  0.45594000000E+02  0.51100000000E-03 0. -1.
    9900012    2    1    2    0    0 -0.13800627006E+02 -0.43155894512E+01 -0.11899524246E+02  0.72461540234E+02  0.69999960841E+02 0.  0.
        -12    1    1    2    0    0  0.13800627006E+02  0.43155894512E+01  0.11899524246E+02  0.18726459766E+02  0.00000000000E+00 0.  1.
         11    1    3    3    0    0 -0.15029614384E+02 -0.17821348517E+01 -0.28732190221E+02  0.32474668102E+02  0.51100000000E-03 0. -1.
        -11    1    3    3    0    0  0.73094134703E+00  0.84114134570E+01 -0.87484937840E+01  0.12158219251E+02  0.51100000000E-03 0.  1.
        -12    1    3    3    0    0  0.49804603067E+00 -0.10944868056E+02  0.25581159759E+02  0.27828652882E+02  0.00000000000E+00 0.  1.
</event>
<event>
 7    1  0.3440346E-013  0.7246159E+02  0.7816164E-02  0.1226708E+00
        -11   -1    0    0    0    0  0.00000000000E+00  0.00000000000E+00  0.45593999997E+02  0.45594000000E+02  0.51100000000E-03 0. -1.
         11   -1    0    0    0    0 -0.00000000000E+00 -0.00000000000E+00 -0.45593999997E+02  0.45594000000E+02  0.51100000000E-03 0.  1.
    9900012    2    1    2    0    0  0.12297448890E+02  0.12190898179E+02 -0.71297280629E+01  0.72461594316E+02  0.70000031292E+02 0.  0.
        -12    1    1    2    0    0 -0.12297448890E+02 -0.12190898179E+02  0.71297280629E+01  0.18726405684E+02  0.00000000000E+00 0.  1.
         11    1    3    3    0    0 -0.28854251222E+01 -0.70932821850E+01 -0.72835444613E+01  0.10568365554E+02  0.51100000000E-03 0. -1.
        -11    1    3    3    0    0 -0.21429260043E+02  0.44889442614E+01 -0.37461044054E+01  0.22212543867E+02  0.51100000000E-03 0.  1.
         12    1    3    3    0    0  0.36612134055E+02  0.14795236103E+02  0.38999208038E+01  0.39680684895E+02  0.00000000000E+00 0. -1.
</event>
<event>
 7    1  0.3440346E-013  0.7246159E+02  0.7816164E-02  0.1226708E+00
        -11   -1    0    0    0    0  0.00000000000E+00  0.00000000000E+00  0.45593999997E+02  0.45594000000E+02  0.51100000000E-03 0.  1.
         11   -1    0    0    0    0 -0.00000000000E+00 -0.00000000000E+00 -0.45593999997E+02  0.45594000000E+02  0.51100000000E-03 0. -1.
    9900012    2    1    2    0    0  0.47129617417E+01 -0.15938005463E+02 -0.86282327784E+01  0.72461590109E+02  0.70000025813E+02 0.  0.
        -12    1    1    2    0    0 -0.47129617417E+01  0.15938005463E+02  0.86282327784E+01  0.18726409891E+02  0.00000000000E+00 0.  1.
         11    1    3    3    0    0  0.14762824089E+02 -0.14890811223E+02 -0.11780120725E+01  0.21001546292E+02  0.51100000000E-03 0. -1.
        -11    1    3    3    0    0 -0.68562973252E+01  0.38073917852E+01  0.21003048002E+02  0.22419479718E+02  0.51100000000E-03 0.  1.
        -12    1    3    3    0    0 -0.31935650224E+01 -0.48545860254E+01 -0.28453268708E+02  0.29040564099E+02  0.00000000000E+00 0.  1.
</event>
<event>
 7    1  0.3440346E-013  0.7246159E+02  0.7816164E-02  0.1226708E+00
        -11   -1    0    0    0    0  0.00000000000E+00  0.00000000000E+00  0.45593999997E+02  0.45594000000E+02  0.51100000000E-03 0.  1.
         11   -1    0    0    0    0 -0.00000000000E+00 -0.00000000000E+00 -0.45593999997E+02  0.45594000000E+02  0.51100000000E-03 0. -1.
    9900012    2    1    2    0    0  0.19968083240E+01  0.15549616404E+02 -0.10242091351E+02  0.72461594871E+02  0.70000032016E+02 0.  0.
        -12    1    1    2    0    0 -0.19968083240E+01 -0.15549616404E+02  0.10242091351E+02  0.18726405129E+02  0.00000000000E+00 0.  1.
         11    1    3    3    0    0  0.12219845759E+02  0.24071821026E+02  0.10996418798E+02  0.29149587039E+02  0.51100000000E-03 0. -1.
        -11    1    3    3    0    0 -0.25783353543E+01  0.98638808918E+01  0.41833703354E+01  0.11020188160E+02  0.51100000000E-03 0.  1.
         12    1    3    3    0    0 -0.76447020806E+01 -0.18386085514E+02 -0.25421880485E+02  0.32291819673E+02  0.00000000000E+00 0. -1.
</event>
<event>
 7    1  0.3648810E-013  0.7246161E+02  0.7816164E-02  0.1226708E+00
        -11   -1    0    0    0    0  0.00000000000E+00  0.00000000000E+00  0.45593999997E+02  0.45594000000E+02  0.51100000000E-03 0.  1.
         11   -1    0    0    0    0 -0.00000000000E+00 -0.00000000000E+00 -0.45593999997E+02  0.45594000000E+02  0.51100000000E-03 0. -1.
    9900012    2    1    2    0    0  0.43725014584E+01  0.14567720838E+02  0.10924299016E+02  0.72461613044E+02  0.70000055689E+02 0.  0.
        -12    1    1    2    0    0 -0.43725014584E+01 -0.14567720838E+02 -0.10924299016E+02  0.18726386956E+02  0.00000000000E+00 0.  1.
         11    1    3    3    0    0 -0.98915183890E+01 -0.19056859115E+02  0.82438643874E+01  0.22999289460E+02  0.51100000000E-03 0. -1.
        -11    1    3    3    0    0 -0.61012922476E+01  0.40669758700E+01  0.10421718318E+02  0.12742773355E+02  0.51100000000E-03 0.  1.
        -12    1    3    3    0    0  0.20365312095E+02  0.29557604083E+02 -0.77412836889E+01  0.36719550229E+02  0.00000000000E+00 0.  1.
</event>
<event>
 7    1  0.3440346E-013  0.7246159E+02  0.7816164E-02  0.1226708E+00
        -11   -1    0    0    0    0  0.00000000000E+00  0.00000000000E+00  0.45593999997E+02  0.45594000000E+02  0.51100000000E-03 0.  1.
         11   -1    0    0    0    0 -0.00000000000E+00 -0.00000000000E+00 -0.45593999997E+02  0.45594000000E+02  0.51100000000E-03 0. -1.
    9900012    2    1    2    0    0  0.79589907855E+01 -0.14540177684E+02 -0.87129822337E+01  0.72461591887E+02  0.70000028128E+02 0.  0.
        -12    1    1    2    0    0 -0.79589907855E+01  0.14540177684E+02  0.87129822337E+01  0.18726408113E+02  0.00000000000E+00 0.  1.
         11    1    3    3    0    0 -0.57071523914E+01  0.15311491533E+02  0.57898822473E+01  0.17335976987E+02  0.51100000000E-03 0. -1.
        -11    1    3    3    0    0  0.11891674666E+02  0.77327166325E+01  0.14470021390E+01  0.14258353633E+02  0.51100000000E-03 0.  1.
        -12    1    3    3    0    0  0.17744685110E+01 -0.37584385850E+02 -0.15949866620E+02  0.40867261267E+02  0.00000000000E+00 0.  1.
</event>
<event>
 7    1  0.3611455E-013  0.7246156E+02  0.7816164E-02  0.1226708E+00
        -11   -1    0    0    0    0  0.00000000000E+00  0.00000000000E+00  0.45593999997E+02  0.45594000000E+02  0.51100000000E-03 0. -1.
         11   -1    0    0    0    0 -0.00000000000E+00 -0.00000000000E+00 -0.45593999997E+02  0.45594000000E+02  0.51100000000E-03 0.  1.
    9900012    2    1    2    0    0  0.29587490420E+01  0.45652797153E+01  0.17918808483E+02  0.72461556873E+02  0.69999982516E+02 0.  0.
        -12    1    1    2    0    0 -0.29587490420E+01 -0.45652797153E+01 -0.17918808483E+02  0.18726443127E+02  0.00000000000E+00 0.  1.
         11    1    3    3    0    0  0.24913434869E+02  0.20340918860E+02  0.17747700182E+02  0.36734358291E+02  0.51100000000E-03 0. -1.
        -11    1    3    3    0    0 -0.61447895028E+01 -0.11399616520E+02  0.10213388507E+02  0.16493119774E+02  0.51100000000E-03 0.  1.
        -12    1    3    3    0    0 -0.15809896324E+02 -0.43760226252E+01 -0.10042280207E+02  0.19234078807E+02  0.00000000000E+00 0.  1.
</event>
<event>
 7    1  0.3440346E-013  0.7246159E+02  0.7816164E-02  0.1226708E+00
        -11   -1    0    0    0    0  0.00000000000E+00  0.00000000000E+00  0.45593999997E+02  0.45594000000E+02  0.51100000000E-03 0. -1.
         11   -1    0    0    0    0 -0.00000000000E+00 -0.00000000000E+00 -0.45593999997E+02  0.45594000000E+02  0.51100000000E-03 0.  1.
    9900012    2    1    2    0    0 -0.11687802895E+02 -0.11225917076E+02  0.93836226574E+01  0.72461592846E+02  0.70000029378E+02 0.  0.
        -12    1    1    2    0    0  0.11687802895E+02  0.11225917076E+02 -0.93836226574E+01  0.18726407154E+02  0.00000000000E+00 0.  1.
         11    1    3    3    0    0  0.98413163337E+01 -0.41719912163E+01  0.10290509900E+02  0.14837506939E+02  0.51100000000E-03 0. -1.
        -11    1    3    3    0    0 -0.30539548321E+01  0.11417256723E+02  0.20623800788E+02  0.23770181959E+02  0.51100000000E-03 0.  1.
        -12    1    3    3    0    0 -0.18475164397E+02 -0.18471182582E+02 -0.21530688031E+02  0.33853903948E+02  0.00000000000E+00 0.  1.
</event>
<event>
 7    1  0.3440346E-013  0.7246165E+02  0.7816164E-02  0.1226708E+00
        -11   -1    0    0    0    0  0.00000000000E+00  0.00000000000E+00  0.45593999997E+02  0.45594000000E+02  0.51100000000E-03 0.  1.
         11   -1    0    0    0    0 -0.00000000000E+00 -0.00000000000E+00 -0.45593999997E+02  0.45594000000E+02  0.51100000000E-03 0. -1.
    9900012    2    1    2    0    0  0.13797975705E+02  0.16617585471E+01  0.12551120424E+02  0.72461649610E+02  0.70000103324E+02 0.  0.
        -12    1    1    2    0    0 -0.13797975705E+02 -0.16617585471E+01 -0.12551120424E+02  0.18726350390E+02  0.00000000000E+00 0.  1.
         11    1    3    3    0    0 -0.11797129143E+02 -0.49877322078E+01 -0.13051412403E+02  0.18286308938E+02  0.51100000000E-03 0. -1.
        -11    1    3    3    0    0  0.29194684188E+02 -0.37680062021E+01  0.37163264761E+01  0.29670499462E+02  0.51100000000E-03 0.  1.
         12    1    3    3    0    0 -0.35995793406E+01  0.10417496957E+02  0.21886206351E+02  0.24504841210E+02  0.00000000000E+00 0. -1.
</event>
<event>
 7    1  0.3440346E-013  0.7246156E+02  0.7816164E-02  0.1226708E+00
        -11   -1    0    0    0    0  0.00000000000E+00  0.00000000000E+00  0.45593999997E+02  0.45594000000E+02  0.51100000000E-03 0.  1.
         11   -1    0    0    0    0 -0.00000000000E+00 -0.00000000000E+00 -0.45593999997E+02  0.45594000000E+02  0.51100000000E-03 0. -1.
    9900012    2    1    2    0    0  0.14828635939E+02  0.10205973159E+02  0.51603345694E+01  0.72461564547E+02  0.69999992513E+02 0.  0.
        -12    1    1    2    0    0 -0.14828635939E+02 -0.10205973159E+02 -0.51603345694E+01  0.18726435453E+02  0.00000000000E+00 0.  1.
         11    1    3    3    0    0  0.55149872209E+01 -0.70618215314E+01 -0.10960362224E+02  0.14156763321E+02  0.51100000000E-03 0. -1.
        -11    1    3    3    0    0  0.15543494999E+02 -0.13629411297E+02 -0.37989431772E+01  0.21018873867E+02  0.51100000000E-03 0.  1.
        -12    1    3    3    0    0 -0.62298462815E+01  0.30897205987E+02  0.19919639970E+02  0.37285927359E+02  0.00000000000E+00 0.  1.
</event>
<event>
 7    1  0.3440346E-013  0.7246159E+02  0.7816164E-02  0.1226708E+00
        -11   -1    0    0    0    0  0.00000000000E+00  0.00000000000E+00  0.45593999997E+02  0.45594000000E+02  0.51100000000E-03 0.  1.
         11   -1    0    0    0    0 -0.00000000000E+00 -0.00000000000E+00 -0.45593999997E+02  0.45594000000E+02  0.51100000000E-03 0. -1.
    9900012    2    1    2    0    0 -0.16973251523E+02 -0.22712026673E+01  0.75781674533E+01  0.72461594825E+02  0.70000031956E+02 0.  0.
        -12    1    1    2    0    0  0.16973251523E+02  0.22712026673E+01 -0.75781674533E+01  0.18726405175E+02  0.00000000000E+00 0.  1.
         11    1    3    3    0    0 -0.24154593172E+02 -0.50740788665E+01  0.12994128179E+02  0.27893332806E+02  0.51100000000E-03 0. -1.
        -11    1    3    3    0    0 -0.17745412293E+02 -0.39855375289E+01 -0.44080101280E+01  0.18714024698E+02  0.51100000000E-03 0.  1.
         12    1    3    3    0    0  0.24926753942E+02  0.67884137281E+01 -0.10079505976E+01  0.25854237321E+02  0.00000000000E+00 0. -1.
</event>
<event>
 7    1  0.3440346E-013  0.7246157E+02  0.7816164E-02  0.1226708E+00
        -11   -1    0    0    0    0  0.00000000000E+00  0.00000000000E+00  0.45593999997E+02  0.45594000000E+02  0.51100000000E-03 0.  1.
         11   -1    0    0    0    0 -0.00000000000E+00 -0.00000000000E+00 -0.45593999997E+02  0.45594000000E+02  0.51100000000E-03 0. -1.
    9900012    2    1    2    0    0  0.10994741026E+02  0.13848968968E+02 -0.61644900942E+01  0.72461569218E+02  0.69999998598E+02 0.  0.
        -12    1    1    2    0    0 -0.10994741026E+02 -0.13848968968E+02  0.61644900942E+01  0.18726430782E+02  0.00000000000E+00 0.  1.
         11    1    3    3    0    0  0.17265059965E+01  0.77864848892E+00 -0.97236238992E+01  0.99063605032E+01  0.51100000000E-03 0. -1.
        -11    1    3    3    0    0 -0.19090766006E+02  0.67719896155E+01 -0.17424330336E+02  0.26719365224E+02  0.51100000000E-03 0.  1.
         12    1    3    3    0    0  0.28359001035E+02  0.62983308633E+01  0.20983464141E+02  0.35835843491E+02  0.00000000000E+00 0. -1.
</event>
<event>
 7    1  0.3440346E-013  0.7246156E+02  0.7816164E-02  0.1226708E+00
        -11   -1    0    0    0    0  0.00000000000E+00  0.00000000000E+00  0.45593999997E+02  0.45594000000E+02  0.51100000000E-03 0. -1.
         11   -1    0    0    0    0 -0.00000000000E+00 -0.00000000000E+00 -0.45593999997E+02  0.45594000000E+02  0.51100000000E-03 0.  1.
    9900012    2    1    2    0    0 -0.64979520999E+01 -0.97788217048E+01  0.14588718809E+02  0.72461562754E+02  0.69999990178E+02 0.  0.
        -12    1    1    2    0    0  0.64979520999E+01  0.97788217048E+01 -0.14588718809E+02  0.18726437246E+02  0.00000000000E+00 0.  1.
         11    1    3    3    0    0 -0.29570345436E+00  0.69504639805E+01 -0.62768495651E+01  0.93699109281E+01  0.51100000000E-03 0. -1.
        -11    1    3    3    0    0 -0.23266674158E+01  0.21158196756E+02  0.97864959663E+01  0.23427722356E+02  0.51100000000E-03 0.  1.
         12    1    3    3    0    0 -0.38755812297E+01 -0.37887482441E+02  0.11079072408E+02  0.39663929470E+02  0.00000000000E+00 0. -1.
</event>
<event>
 7    1  0.3440346E-013  0.7246153E+02  0.7816164E-02  0.1226708E+00
        -11   -1    0    0    0    0  0.00000000000E+00  0.00000000000E+00  0.45593999997E+02  0.45594000000E+02  0.51100000000E-03 0.  1.
         11   -1    0    0    0    0 -0.00000000000E+00 -0.00000000000E+00 -0.45593999997E+02  0.45594000000E+02  0.51100000000E-03 0. -1.
    9900012    2    1    2    0    0  0.10524705580E+01 -0.15595873565E+02 -0.10312206073E+02  0.72461533152E+02  0.69999951615E+02 0.  0.
        -12    1    1    2    0    0 -0.10524705580E+01  0.15595873565E+02  0.10312206073E+02  0.18726466848E+02  0.00000000000E+00 0.  1.
         11    1    3    3    0    0 -0.73139081134E+01  0.20369217477E+02 -0.31072085216E+01  0.21864423559E+02  0.51100000000E-03 0. -1.
        -11    1    3    3    0    0  0.75225391572E+00 -0.13020890960E+02 -0.19512313947E+02  0.23469978338E+02  0.51100000000E-03 0.  1.
        -12    1    3    3    0    0  0.76141247557E+01 -0.22944200083E+02  0.12307316396E+02  0.27127131255E+02  0.00000000000E+00 0.  1.
</event>
<event>
 7    1  0.3440346E-013  0.7246155E+02  0.7816164E-02  0.1226708E+00
        -11   -1    0    0    0    0  0.00000000000E+00  0.00000000000E+00  0.45593999997E+02  0.45594000000E+02  0.51100000000E-03 0.  1.
         11   -1    0    0    0    0 -0.00000000000E+00 -0.00000000000E+00 -0.45593999997E+02  0.45594000000E+02  0.51100000000E-03 0. -1.
    9900012    2    1    2    0    0 -0.17179981725E+02  0.52273290839E+01  0.53106507171E+01  0.72461554730E+02  0.69999979725E+02 0.  0.
        -12    1    1    2    0    0  0.17179981725E+02 -0.52273290839E+01 -0.53106507171E+01  0.18726445270E+02  0.00000000000E+00 0.  1.
         11    1    3    3    0    0  0.12552601262E+02  0.88342119947E+01  0.83260959994E+01  0.17462387433E+02  0.51100000000E-03 0. -1.
        -11    1    3    3    0    0  0.37601792778E+01 -0.17864743303E+02  0.15059346821E+01  0.18318183343E+02  0.51100000000E-03 0.  1.
        -12    1    3    3    0    0 -0.33492762264E+02  0.14257860392E+02 -0.45213799644E+01  0.36680983954E+02  0.00000000000E+00 0.  1.
</event>
<event>
 7    1  0.3440346E-013  0.7246159E+02  0.7816164E-02  0.1226708E+00
        -11   -1    0    0    0    0  0.00000000000E+00  0.00000000000E+00  0.45593999997E+02  0.45594000000E+02  0.51100000000E-03 0. -1.
         11   -1    0    0    0    0 -0.00000000000E+00 -0.00000000000E+00 -0.45593999997E+02  0.45594000000E+02  0.51100000000E-03 0.  1.
    9900012    2    1    2    0    0  0.88417244516E+01  0.11761133285E+02  0.11583527751E+02  0.72461589169E+02  0.70000024588E+02 0.  0.
        -12    1    1    2    0    0 -0.88417244516E+01 -0.11761133285E+02 -0.11583527751E+02  0.18726410831E+02  0.00000000000E+00 0.  1.
         11    1    3    3    0    0 -0.13513045034E+02  0.13754127554E+02 -0.40712338867E+01  0.19706683041E+02  0.51100000000E-03 0. -1.
        -11    1    3    3    0    0  0.50183678722E+01  0.18873697020E+02 -0.31006372450E+01  0.19774084223E+02  0.51100000000E-03 0.  1.
         12    1    3    3    0    0  0.17336401613E+02 -0.20866691289E+02  0.18755398883E+02  0.32980821905E+02  0.00000000000E+00 0. -1.
</event>
<event>
 7    1  0.3440346E-013  0.7246157E+02  0.7816164E-02  0.1226708E+00
        -11   -1    0    0    0    0  0.00000000000E+00  0.00000000000E+00  0.45593999997E+02  0.45594000000E+02  0.51100000000E-03 0. -1.
         11   -1    0    0    0    0 -0.00000000000E+00 -0.00000000000E+00 -0.45593999997E+02  0.45594000000E+02  0.51100000000E-03 0.  1.
    9900012    2    1    2    0    0 -0.16410563185E+02  0.82949108776E+01 -0.35449897784E+01  0.72461572604E+02  0.70000003008E+02 0.  0.
        -12    1    1    2    0    0  0.16410563185E+02 -0.82949108776E+01  0.35449897784E+01  0.18726427396E+02  0.00000000000E+00 0.  1.
         11    1    3    3    0    0  0.10268272071E+02  0.20430245269E+02  0.59052640051E+01  0.23615767536E+02  0.51100000000E-03 0.  1.
        -11    1    3    3    0    0 -0.10832774778E+02  0.38328826221E+01  0.12802489193E+02  0.17203015096E+02  0.51100000000E-03 0. -1.
         12    1    3    3    0    0 -0.15846060478E+02 -0.15968217013E+02 -0.22252742977E+02  0.31642789972E+02  0.00000000000E+00 0. -1.
</event>
<event>
 7    1  0.3440346E-013  0.7246157E+02  0.7816164E-02  0.1226708E+00
        -11   -1    0    0    0    0  0.00000000000E+00  0.00000000000E+00  0.45593999997E+02  0.45594000000E+02  0.51100000000E-03 0. -1.
         11   -1    0    0    0    0 -0.00000000000E+00 -0.00000000000E+00 -0.45593999997E+02  0.45594000000E+02  0.51100000000E-03 0.  1.
    9900012    2    1    2    0    0 -0.80961233227E+01 -0.13398832422E+02  0.10276348922E+02  0.72461567603E+02  0.69999996495E+02 0.  0.
        -12    1    1    2    0    0  0.80961233227E+01  0.13398832422E+02 -0.10276348922E+02  0.18726432397E+02  0.00000000000E+00 0.  1.
         11    1    3    3    0    0 -0.23751345238E+02 -0.11176389410E+02  0.29922737235E+02  0.39804626424E+02  0.51100000000E-03 0. -1.
        -11    1    3    3    0    0  0.71603635650E+00 -0.34236061846E+01  0.35862975229E+01  0.50095226873E+01  0.51100000000E-03 0.  1.
        -12    1    3    3    0    0  0.14939185559E+02  0.12011631727E+01 -0.23232685836E+02  0.27647418492E+02  0.00000000000E+00 0.  1.
</event>
<event>
 7    1  0.3440346E-013  0.7246161E+02  0.7816164E-02  0.1226708E+00
        -11   -1    0    0    0    0  0.00000000000E+00  0.00000000000E+00  0.45593999997E+02  0.45594000000E+02  0.51100000000E-03 0.  1.
         11   -1    0    0    0    0 -0.00000000000E+00 -0.00000000000E+00 -0.45593999997E+02  0.45594000000E+02  0.51100000000E-03 0. -1.
    9900012    2    1    2    0    0  0.79380441222E+01  0.15440303014E+02 -0.70187145847E+01  0.72461605363E+02  0.70000045684E+02 0.  0.
        -12    1    1    2    0    0 -0.79380441222E+01 -0.15440303014E+02  0.70187145847E+01  0.18726394637E+02  0.00000000000E+00 0.  1.
         11    1    3    3    0    0 -0.89977877165E+01  0.19883335532E+02  0.10164750243E+02  0.24075493005E+02  0.51100000000E-03 0. -1.
        -11    1    3    3    0    0 -0.38009019166E+01  0.28496216615E+01  0.11386888498E+02  0.12338088544E+02  0.51100000000E-03 0.  1.
        -12    1    3    3    0    0  0.20736733755E+02 -0.72926541787E+01 -0.28570353326E+02  0.36048023815E+02  0.00000000000E+00 0.  1.
</event>
<event>
 7    1  0.3440346E-013  0.7246164E+02  0.7816164E-02  0.1226708E+00
        -11   -1    0    0    0    0  0.00000000000E+00  0.00000000000E+00  0.45593999997E+02  0.45594000000E+02  0.51100000000E-03 0.  1.
         11   -1    0    0    0    0 -0.00000000000E+00 -0.00000000000E+00 -0.45593999997E+02  0.45594000000E+02  0.51100000000E-03 0. -1.
    9900012    2    1    2    0    0 -0.15398330826E+02  0.29940202308E+01 -0.10227605540E+02  0.72461637181E+02  0.70000087132E+02 0.  0.
        -12    1    1    2    0    0  0.15398330826E+02 -0.29940202308E+01  0.10227605540E+02  0.18726362819E+02  0.00000000000E+00 0.  1.
         11    1    3    3    0    0  0.42878112774E+01  0.10747600426E+02 -0.19189261879E+01  0.11729386959E+02  0.51100000000E-03 0. -1.
        -11    1    3    3    0    0  0.11010664285E+02 -0.14350677656E+02  0.13442652947E+02  0.22536228516E+02  0.51100000000E-03 0.  1.
         12    1    3    3    0    0 -0.30696806389E+02  0.65970974611E+01 -0.21751332299E+02  0.38196021706E+02  0.00000000000E+00 0. -1.
</event>
<event>
 7    1  0.3440346E-013  0.7246156E+02  0.7816164E-02  0.1226708E+00
        -11   -1    0    0    0    0  0.00000000000E+00  0.00000000000E+00  0.45593999997E+02  0.45594000000E+02  0.51100000000E-03 0.  1.
         11   -1    0    0    0    0 -0.00000000000E+00 -0.00000000000E+00 -0.45593999997E+02  0.45594000000E+02  0.51100000000E-03 0. -1.
    9900012    2    1    2    0    0  0.50122969882E+01 -0.18010881525E+02 -0.10791662375E+01  0.72461559490E+02  0.69999985925E+02 0.  0.
        -12    1    1    2    0    0 -0.50122969882E+01  0.18010881525E+02  0.10791662375E+01  0.18726440510E+02  0.00000000000E+00 0.  1.
         11    1    3    3    0    0  0.21743951349E+01 -0.39259461531E+01 -0.14353395539E+02  0.15038650576E+02  0.51100000000E-03 0. -1.
        -11    1    3    3    0    0 -0.73747796738E+01  0.18303020630E+02 -0.26584640446E+01  0.19911187076E+02  0.51100000000E-03 0.  1.
        -12    1    3    3    0    0  0.10212681527E+02 -0.32387956003E+02  0.15932693346E+02  0.37511721838E+02  0.00000000000E+00 0.  1.
</event>
<event>
 7    1  0.3440346E-013  0.7246169E+02  0.7816164E-02  0.1226708E+00
        -11   -1    0    0    0    0  0.00000000000E+00  0.00000000000E+00  0.45593999997E+02  0.45594000000E+02  0.51100000000E-03 0.  1.
         11   -1    0    0    0    0 -0.00000000000E+00 -0.00000000000E+00 -0.45593999997E+02  0.45594000000E+02  0.51100000000E-03 0. -1.
    9900012    2    1    2    0    0 -0.10245378489E+02 -0.39668462408E+01  0.15164795171E+02  0.72461690645E+02  0.70000156779E+02 0.  0.
        -12    1    1    2    0    0  0.10245378489E+02  0.39668462408E+01 -0.15164795171E+02  0.18726309355E+02  0.00000000000E+00 0.  1.
         11    1    3    3    0    0 -0.15997221264E+02 -0.15854708254E+02 -0.17952669999E+02  0.28802451673E+02  0.51100000000E-03 0. -1.
        -11    1    3    3    0    0 -0.36079344501E+01 -0.41954254084E+01  0.20357484915E+02  0.21096112858E+02  0.51100000000E-03 0.  1.
        -12    1    3    3    0    0  0.93597772253E+01  0.16083287422E+02  0.12759980254E+02  0.22563126115E+02  0.00000000000E+00 0.  1.
</event>
<event>
 7    1  0.3440346E-013  0.7246158E+02  0.7816164E-02  0.1226708E+00
        -11   -1    0    0    0    0  0.00000000000E+00  0.00000000000E+00  0.45593999997E+02  0.45594000000E+02  0.51100000000E-03 0. -1.
         11   -1    0    0    0    0 -0.00000000000E+00 -0.00000000000E+00 -0.45593999997E+02  0.45594000000E+02  0.51100000000E-03 0.  1.
    9900012    2    1    2    0    0  0.39419821933E+01  0.15354207297E+02  0.99693386780E+01  0.72461584993E+02  0.70000019148E+02 0.  0.
        -12    1    1    2    0    0 -0.39419821933E+01 -0.15354207297E+02 -0.99693386780E+01  0.18726415007E+02  0.00000000000E+00 0.  1.
         11    1    3    3    0    0  0.21210135610E+02 -0.19912116857E+02  0.97436767407E+01  0.30680637005E+02  0.51100000000E-03 0. -1.
        -11    1    3    3    0    0 -0.69226151753E+01  0.94751042562E+01 -0.61813959554E+01  0.13263101362E+02  0.51100000000E-03 0.  1.
        -12    1    3    3    0    0 -0.10345538241E+02  0.25791219898E+02  0.64070578927E+01  0.28517846626E+02  0.00000000000E+00 0.  1.
</event>
<event>
 7    1  0.3440346E-013  0.7246162E+02  0.7816164E-02  0.1226708E+00
        -11   -1    0    0    0    0  0.00000000000E+00  0.00000000000E+00  0.45593999997E+02  0.45594000000E+02  0.51100000000E-03 0.  1.
         11   -1    0    0    0    0 -0.00000000000E+00 -0.00000000000E+00 -0.45593999997E+02  0.45594000000E+02  0.51100000000E-03 0. -1.
    9900012    2    1    2    0    0 -0.14220865024E+02 -0.72189295751E+01 -0.98148609563E+01  0.72461616424E+02  0.70000060093E+02 0.  0.
        -12    1    1    2    0    0  0.14220865024E+02  0.72189295751E+01  0.98148609563E+01  0.18726383576E+02  0.00000000000E+00 0.  1.
         11    1    3    3    0    0  0.14963823487E+02  0.56626017559E+01 -0.14182643794E+02  0.21380562603E+02  0.51100000000E-03 0. -1.
        -11    1    3    3    0    0  0.42885018381E+01 -0.12001119809E+02  0.11130051437E+02  0.16920288707E+02  0.51100000000E-03 0.  1.
         12    1    3    3    0    0 -0.33473190349E+02 -0.88041152239E+00 -0.67622685990E+01  0.34160765114E+02  0.00000000000E+00 0. -1.
</event>
<event>
 7    1  0.3440346E-013  0.7246157E+02  0.7816164E-02  0.1226708E+00
        -11   -1    0    0    0    0  0.00000000000E+00  0.00000000000E+00  0.45593999997E+02  0.45594000000E+02  0.51100000000E-03 0.  1.
         11   -1    0    0    0    0 -0.00000000000E+00 -0.00000000000E+00 -0.45593999997E+02  0.45594000000E+02  0.51100000000E-03 0. -1.
    9900012    2    1    2    0    0  0.61117372850E+01  0.17372706114E+02 -0.33933575314E+01  0.72461571464E+02  0.70000001524E+02 0.  0.
        -12    1    1    2    0    0 -0.61117372850E+01 -0.17372706114E+02  0.33933575314E+01  0.18726428536E+02  0.00000000000E+00 0.  1.
         11    1    3    3    0    0 -0.15236562960E+02 -0.73905430842E+01 -0.88331103756E+01  0.19099654894E+02  0.51100000000E-03 0. -1.
        -11    1    3    3    0    0 -0.12508265284E+02  0.35988612746E+01 -0.32934653077E+00  0.13019868367E+02  0.51100000000E-03 0.  1.
        -12    1    3    3    0    0  0.33856565529E+02  0.21164387924E+02  0.57690993750E+01  0.40342048203E+02  0.00000000000E+00 0.  1.
</event>
<event>
 7    1  0.3440346E-013  0.7246155E+02  0.7816164E-02  0.1226708E+00
        -11   -1    0    0    0    0  0.00000000000E+00  0.00000000000E+00  0.45593999997E+02  0.45594000000E+02  0.51100000000E-03 0.  1.
         11   -1    0    0    0    0 -0.00000000000E+00 -0.00000000000E+00 -0.45593999997E+02  0.45594000000E+02  0.51100000000E-03 0. -1.
    9900012    2    1    2    0    0  0.11022128775E+02 -0.98919454553E+01 -0.11460454734E+02  0.72461549980E+02  0.69999973537E+02 0.  0.
        -12    1    1    2    0    0 -0.11022128775E+02  0.98919454553E+01  0.11460454734E+02  0.18726450020E+02  0.00000000000E+00 0.  1.
         11    1    3    3    0    0  0.15041215328E+02  0.99664834811E+01  0.17070434380E+02  0.24838854275E+02  0.51100000000E-03 0. -1.
        -11    1    3    3    0    0  0.11182354172E+02 -0.83613732996E+01 -0.81581728715E+00  0.13986535182E+02  0.51100000000E-03 0.  1.
        -12    1    3    3    0    0 -0.15201440724E+02 -0.11497055637E+02 -0.27715071827E+02  0.33636160524E+02  0.00000000000E+00 0.  1.
</event>
<event>
 7    1  0.3440346E-013  0.7246162E+02  0.7816164E-02  0.1226708E+00
        -11   -1    0    0    0    0  0.00000000000E+00  0.00000000000E+00  0.45593999997E+02  0.45594000000E+02  0.51100000000E-03 0.  1.
         11   -1    0    0    0    0 -0.00000000000E+00 -0.00000000000E+00 -0.45593999997E+02  0.45594000000E+02  0.51100000000E-03 0. -1.
    9900012    2    1    2    0    0 -0.99304199678E+01  0.15718183041E+02 -0.22366865775E+01  0.72461620593E+02  0.70000065523E+02 0.  0.
        -12    1    1    2    0    0  0.99304199678E+01 -0.15718183041E+02  0.22366865775E+01  0.18726379407E+02  0.00000000000E+00 0.  1.
         11    1    3    3    0    0 -0.70755488426E+01  0.25099175407E+01  0.26839963251E+01  0.79728861788E+01  0.51100000000E-03 0. -1.
        -11    1    3    3    0    0  0.88121802491E+01 -0.18558827872E+02  0.14799785877E+02  0.25320313486E+02  0.51100000000E-03 0.  1.
         12    1    3    3    0    0 -0.11667051374E+02  0.31767093373E+02 -0.19720468780E+02  0.39168420928E+02  0.00000000000E+00 0. -1.
</event>
<event>
 7    1  0.3440346E-013  0.7246155E+02  0.7816164E-02  0.1226708E+00
        -11   -1    0    0    0    0  0.00000000000E+00  0.00000000000E+00  0.45593999997E+02  0.45594000000E+02  0.51100000000E-03 0.  1.
         11   -1    0    0    0    0 -0.00000000000E+00 -0.00000000000E+00 -0.45593999997E+02  0.45594000000E+02  0.51100000000E-03 0. -1.
    9900012    2    1    2    0    0 -0.93579148535E+01 -0.15886070858E+02  0.32774989398E+01  0.72461553006E+02  0.69999977479E+02 0.  0.
        -12    1    1    2    0    0  0.93579148535E+01  0.15886070858E+02 -0.32774989398E+01  0.18726446994E+02  0.00000000000E+00 0.  1.
         11    1    3    3    0    0  0.31124038864E+01 -0.15297556132E+02 -0.17646833604E+02  0.23560836532E+02  0.51100000000E-03 0. -1.
        -11    1    3    3    0    0 -0.22516339612E+02  0.11939728288E+02  0.44080818512E+01  0.25864528740E+02  0.51100000000E-03 0.  1.
         12    1    3    3    0    0  0.10046020872E+02 -0.12528243014E+02  0.16516250693E+02  0.23036187734E+02  0.00000000000E+00 0. -1.
</event>
<event>
 7    1  0.3440346E-013  0.7246166E+02  0.7816164E-02  0.1226708E+00
        -11   -1    0    0    0    0  0.00000000000E+00  0.00000000000E+00  0.45593999997E+02  0.45594000000E+02  0.51100000000E-03 0.  1.
         11   -1    0    0    0    0 -0.00000000000E+00 -0.00000000000E+00 -0.45593999997E+02  0.45594000000E+02  0.51100000000E-03 0. -1.
    9900012    2    1    2    0    0 -0.10106370600E+02  0.53883272478E+01  0.14815629359E+02  0.72461663719E+02  0.70000121702E+02 0.  0.
        -12    1    1    2    0    0  0.10106370600E+02 -0.53883272478E+01 -0.14815629359E+02  0.18726336281E+02  0.00000000000E+00 0.  1.
         11    1    3    3    0    0  0.88187333898E+01  0.45223769144E+01  0.46332939212E+01  0.10940263451E+02  0.51100000000E-03 0. -1.
        -11    1    3    3    0    0 -0.73339206249E+01 -0.22238464296E+02  0.22865321973E+02  0.32728559931E+02  0.51100000000E-03 0.  1.
        -12    1    3    3    0    0 -0.11591183364E+02  0.23104414630E+02 -0.12682986536E+02  0.28792840336E+02  0.00000000000E+00 0.  1.
</event>
<event>
 7    1  0.3440346E-013  0.7246161E+02  0.7816164E-02  0.1226708E+00
        -11   -1    0    0    0    0  0.00000000000E+00  0.00000000000E+00  0.45593999997E+02  0.45594000000E+02  0.51100000000E-03 0.  1.
         11   -1    0    0    0    0 -0.00000000000E+00 -0.00000000000E+00 -0.45593999997E+02  0.45594000000E+02  0.51100000000E-03 0. -1.
    9900012    2    1    2    0    0 -0.10909453679E+02  0.11648154651E+02 -0.97970364263E+01  0.72461611958E+02  0.70000054275E+02 0.  0.
        -12    1    1    2    0    0  0.10909453679E+02 -0.11648154651E+02  0.97970364263E+01  0.18726388042E+02  0.00000000000E+00 0.  1.
         11    1    3    3    0    0 -0.52560184237E+01  0.13898201319E+02  0.96043206456E+01  0.17692617243E+02  0.51100000000E-03 0. -1.
        -11    1    3    3    0    0 -0.25043465402E+02 -0.38945669604E+01  0.25046663999E+01  0.25467943874E+02  0.51100000000E-03 0.  1.
         12    1    3    3    0    0  0.19390030147E+02  0.16445202929E+01 -0.21906023472E+02  0.29301050842E+02  0.00000000000E+00 0. -1.
</event>
<event>
 7    1  0.3440346E-013  0.7246198E+02  0.7816164E-02  0.1226707E+00
        -11   -1    0    0    0    0  0.00000000000E+00  0.00000000000E+00  0.45593999997E+02  0.45594000000E+02  0.51100000000E-03 0.  1.
         11   -1    0    0    0    0 -0.00000000000E+00 -0.00000000000E+00 -0.45593999997E+02  0.45594000000E+02  0.51100000000E-03 0. -1.
    9900012    2    1    2    0    0  0.15603317532E+02 -0.10080550891E+02  0.23628121911E+01  0.72461977846E+02  0.70000530910E+02 0.  0.
        -12    1    1    2    0    0 -0.15603317532E+02  0.10080550891E+02 -0.23628121911E+01  0.18726022154E+02  0.00000000000E+00 0.  1.
         11    1    3    3    0    0  0.14147543890E+02 -0.45960750005E+00  0.53741262565E+01  0.15140854350E+02  0.51100000000E-03 0. -1.
        -11    1    3    3    0    0 -0.73779475163E+01  0.15424659560E+02  0.16966866682E+02  0.24087938836E+02  0.51100000000E-03 0.  1.
         12    1    3    3    0    0  0.88337211581E+01 -0.25045602951E+02 -0.19978180747E+02  0.33233184660E+02  0.00000000000E+00 0. -1.
</event>
<event>
 7    1  0.3440346E-013  0.7246155E+02  0.7816164E-02  0.1226708E+00
        -11   -1    0    0    0    0  0.00000000000E+00  0.00000000000E+00  0.45593999997E+02  0.45594000000E+02  0.51100000000E-03 0. -1.
         11   -1    0    0    0    0 -0.00000000000E+00 -0.00000000000E+00 -0.45593999997E+02  0.45594000000E+02  0.51100000000E-03 0.  1.
    9900012    2    1    2    0    0 -0.76723697587E+00 -0.11023224796E+02  0.15118854924E+02  0.72461550479E+02  0.69999974186E+02 0.  0.
        -12    1    1    2    0    0  0.76723697587E+00  0.11023224796E+02 -0.15118854924E+02  0.18726449521E+02  0.00000000000E+00 0.  1.
         11    1    3    3    0    0 -0.27998613004E+02 -0.12164249584E+02  0.41811620688E+01  0.30811903780E+02  0.51100000000E-03 0. -1.
        -11    1    3    3    0    0 -0.43666284208E+01  0.62782412963E+01  0.48709802938E+01  0.90669844394E+01  0.51100000000E-03 0.  1.
        -12    1    3    3    0    0  0.31598004448E+02 -0.51372165082E+01  0.60667125611E+01  0.32582662259E+02  0.00000000000E+00 0.  1.
</event>
<event>
 7    1  0.3440346E-013  0.7246147E+02  0.7816164E-02  0.1226708E+00
        -11   -1    0    0    0    0  0.00000000000E+00  0.00000000000E+00  0.45593999997E+02  0.45594000000E+02  0.51100000000E-03 0.  1.
         11   -1    0    0    0    0 -0.00000000000E+00 -0.00000000000E+00 -0.45593999997E+02  0.45594000000E+02  0.51100000000E-03 0. -1.
    9900012    2    1    2    0    0  0.29631868981E+01  0.52523109640E+01 -0.17728945842E+02  0.72461474221E+02  0.69999874847E+02 0.  0.
        -12    1    1    2    0    0 -0.29631868981E+01 -0.52523109640E+01  0.17728945842E+02  0.18726525779E+02  0.00000000000E+00 0.  1.
         11    1    3    3    0    0 -0.20157223156E+01  0.37055966872E+01 -0.82442248587E+01  0.92607681670E+01  0.51100000000E-03 0. -1.
        -11    1    3    3    0    0  0.33054334037E+01 -0.29264461311E+02 -0.12907407637E+02  0.32154871450E+02  0.51100000000E-03 0.  1.
         12    1    3    3    0    0  0.16734758100E+01  0.30811175587E+02  0.34226866531E+01  0.31045834604E+02  0.00000000000E+00 0. -1.
</event>
<event>
 7    1  0.3440346E-013  0.7246157E+02  0.7816164E-02  0.1226708E+00
        -11   -1    0    0    0    0  0.00000000000E+00  0.00000000000E+00  0.45593999997E+02  0.45594000000E+02  0.51100000000E-03 0. -1.
         11   -1    0    0    0    0 -0.00000000000E+00 -0.00000000000E+00 -0.45593999997E+02  0.45594000000E+02  0.51100000000E-03 0.  1.
    9900012    2    1    2    0    0  0.10550248364E+02  0.13817783304E+02  0.69598951866E+01  0.72461574367E+02  0.70000005305E+02 0.  0.
        -12    1    1    2    0    0 -0.10550248364E+02 -0.13817783304E+02 -0.69598951866E+01  0.18726425633E+02  0.00000000000E+00 0.  1.
         11    1    3    3    0    0  0.56297130425E+01 -0.14945605317E+02 -0.28920591157E+01  0.16230489623E+02  0.51100000000E-03 0. -1.
        -11    1    3    3    0    0 -0.17555636915E+02 -0.10838046676E+01  0.63645911436E+01  0.18705160805E+02  0.51100000000E-03 0.  1.
        -12    1    3    3    0    0  0.22476172237E+02  0.29847193289E+02  0.34873631587E+01  0.37525923938E+02  0.00000000000E+00 0.  1.
</event>
<event>
 7    1  0.3440346E-013  0.7246156E+02  0.7816164E-02  0.1226708E+00
        -11   -1    0    0    0    0  0.00000000000E+00  0.00000000000E+00  0.45593999997E+02  0.45594000000E+02  0.51100000000E-03 0.  1.
         11   -1    0    0    0    0 -0.00000000000E+00 -0.00000000000E+00 -0.45593999997E+02  0.45594000000E+02  0.51100000000E-03 0. -1.
    9900012    2    1    2    0    0  0.17133388254E+02 -0.69755681447E+01 -0.29100064364E+01  0.72461556625E+02  0.69999982193E+02 0.  0.
        -12    1    1    2    0    0 -0.17133388254E+02  0.69755681447E+01  0.29100064364E+01  0.18726443375E+02  0.00000000000E+00 0.  1.
         11    1    3    3    0    0  0.17077095858E+02  0.16243437063E+02  0.22703141017E+02  0.32724746949E+02  0.51100000000E-03 0. -1.
        -11    1    3    3    0    0 -0.91105280721E+00  0.23164982343E+01 -0.88064141499E+01  0.91514540772E+01  0.51100000000E-03 0.  1.
        -12    1    3    3    0    0  0.96734520352E+00 -0.25535503442E+02 -0.16806733303E+02  0.30585355599E+02  0.00000000000E+00 0.  1.
</event>
<event>
 7    1  0.3440346E-013  0.7246151E+02  0.7816164E-02  0.1226708E+00
        -11   -1    0    0    0    0  0.00000000000E+00  0.00000000000E+00  0.45593999997E+02  0.45594000000E+02  0.51100000000E-03 0.  1.
         11   -1    0    0    0    0 -0.00000000000E+00 -0.00000000000E+00 -0.45593999997E+02  0.45594000000E+02  0.51100000000E-03 0. -1.
    9900012    2    1    2    0    0 -0.17131805780E+01 -0.28118922647E+01 -0.18434742761E+02  0.72461508965E+02  0.69999920108E+02 0.  0.
        -12    1    1    2    0    0  0.17131805780E+01  0.28118922647E+01  0.18434742761E+02  0.18726491035E+02  0.00000000000E+00 0.  1.
         11    1    3    3    0    0 -0.20006557314E+01 -0.33429358014E+01 -0.94409487370E+01  0.10213195212E+02  0.51100000000E-03 0. -1.
        -11    1    3    3    0    0 -0.22169453525E+02 -0.60004040679E+01  0.16021398343E+02  0.28003119892E+02  0.51100000000E-03 0.  1.
         12    1    3    3    0    0  0.22456928678E+02  0.65314476046E+01 -0.25015192367E+02  0.34245193861E+02  0.00000000000E+00 0. -1.
</event>
<event>
 7    1  0.3440346E-013  0.7246150E+02  0.7816164E-02  0.1226708E+00
        -11   -1    0    0    0    0  0.00000000000E+00  0.00000000000E+00  0.45593999997E+02  0.45594000000E+02  0.51100000000E-03 0. -1.
         11   -1    0    0    0    0 -0.00000000000E+00 -0.00000000000E+00 -0.45593999997E+02  0.45594000000E+02  0.51100000000E-03 0.  1.
    9900012    2    1    2    0    0 -0.54670260849E+01  0.13855683988E+02  0.11349601016E+02  0.72461500161E+02  0.69999908639E+02 0.  0.
        -12    1    1    2    0    0  0.54670260849E+01 -0.13855683988E+02 -0.11349601016E+02  0.18726499839E+02  0.00000000000E+00 0.  1.
         11    1    3    3    0    0 -0.18963960826E+02 -0.11399648116E+02 -0.68739186696E+01  0.23169690233E+02  0.51100000000E-03 0. -1.
        -11    1    3    3    0    0 -0.51018693961E+01 -0.58122706380E+01  0.91161842875E+01  0.11954763801E+02  0.51100000000E-03 0.  1.
        -12    1    3    3    0    0  0.18598804137E+02  0.31067602742E+02  0.91073353984E+01  0.37337046127E+02  0.00000000000E+00 0.  1.
</event>
<event>
 7    1  0.3440346E-013  0.7246128E+02  0.7816164E-02  0.1226709E+00
        -11   -1    0    0    0    0  0.00000000000E+00  0.00000000000E+00  0.45593999997E+02  0.45594000000E+02  0.51100000000E-03 0.  1.
         11   -1    0    0    0    0 -0.00000000000E+00 -0.00000000000E+00 -0.45593999997E+02  0.45594000000E+02  0.51100000000E-03 0. -1.
    9900012    2    1    2    0    0  0.27560680008E+01  0.10976537620E+02 -0.14920116338E+02  0.72461276836E+02  0.69999617714E+02 0.  0.
        -12    1    1    2    0    0 -0.27560680008E+01 -0.10976537620E+02  0.14920116338E+02  0.18726723164E+02  0.00000000000E+00 0.  1.
         11    1    3    3    0    0  0.88672313737E+01  0.11788384251E+02 -0.20272281245E+02  0.25071082598E+02  0.51100000000E-03 0. -1.
        -11    1    3    3    0    0  0.12259466541E+02 -0.11417957562E+01 -0.15371277671E+02  0.19694527029E+02  0.51100000000E-03 0.  1.
        -12    1    3    3    0    0 -0.18370629914E+02  0.32994912556E+00  0.20723442578E+02  0.27695667209E+02  0.00000000000E+00 0.  1.
</event>
<event>
 7    1  0.3440346E-013  0.7246156E+02  0.7816164E-02  0.1226708E+00
        -11   -1    0    0    0    0  0.00000000000E+00  0.00000000000E+00  0.45593999997E+02  0.45594000000E+02  0.51100000000E-03 0.  1.
         11   -1    0    0    0    0 -0.00000000000E+00 -0.00000000000E+00 -0.45593999997E+02  0.45594000000E+02  0.51100000000E-03 0. -1.
    9900012    2    1    2    0    0  0.17110114118E+02  0.52293750062E+01 -0.55296628769E+01  0.72461560413E+02  0.69999987127E+02 0.  0.
        -12    1    1    2    0    0 -0.17110114118E+02 -0.52293750062E+01  0.55296628769E+01  0.18726439587E+02  0.00000000000E+00 0.  1.
         11    1    3    3    0    0  0.19847270048E+01 -0.90835859424E+00 -0.19888876634E+01  0.29529529319E+01  0.51100000000E-03 0. -1.
        -11    1    3    3    0    0  0.20760365574E+02 -0.20235551073E+02  0.18745313943E+02  0.34523283463E+02  0.51100000000E-03 0.  1.
        -12    1    3    3    0    0 -0.56349784603E+01  0.26373284674E+02 -0.22286089156E+02  0.34985324018E+02  0.00000000000E+00 0.  1.
</event>
<event>
 7    1  0.3440346E-013  0.7246130E+02  0.7816164E-02  0.1226709E+00
        -11   -1    0    0    0    0  0.00000000000E+00  0.00000000000E+00  0.45593999997E+02  0.45594000000E+02  0.51100000000E-03 0.  1.
         11   -1    0    0    0    0 -0.00000000000E+00 -0.00000000000E+00 -0.45593999997E+02  0.45594000000E+02  0.51100000000E-03 0. -1.
    9900012    2    1    2    0    0  0.11103623769E+02 -0.13026355970E+02 -0.75968992649E+01  0.72461300101E+02  0.69999648022E+02 0.  0.
        -12    1    1    2    0    0 -0.11103623769E+02  0.13026355970E+02  0.75968992649E+01  0.18726699899E+02  0.00000000000E+00 0.  1.
         11    1    3    3    0    0  0.27420121899E+02  0.17126906323E+02  0.50524229269E+01  0.32721873156E+02  0.51100000000E-03 0. -1.
        -11    1    3    3    0    0  0.28757098518E+01 -0.20421812643E+01 -0.33672926852E+00  0.35431057462E+01  0.51100000000E-03 0.  1.
        -12    1    3    3    0    0 -0.19192207981E+02 -0.28111081029E+02 -0.12312592923E+02  0.36196321198E+02  0.00000000000E+00 0.  1.
</event>
<event>
 7    1  0.3440346E-013  0.7246159E+02  0.7816164E-02  0.1226708E+00
        -11   -1    0    0    0    0  0.00000000000E+00  0.00000000000E+00  0.45593999997E+02  0.45594000000E+02  0.51100000000E-03 0.  1.
         11   -1    0    0    0    0 -0.00000000000E+00 -0.00000000000E+00 -0.45593999997E+02  0.45594000000E+02  0.51100000000E-03 0. -1.
    9900012    2    1    2    0    0  0.16309364391E+02  0.10792935169E+00 -0.92017130391E+01  0.72461587145E+02  0.70000021951E+02 0.  0.
        -12    1    1    2    0    0 -0.16309364391E+02 -0.10792935169E+00  0.92017130391E+01  0.18726412855E+02  0.00000000000E+00 0.  1.
         11    1    3    3    0    0  0.16462227657E+02  0.79200392922E+01 -0.88105740910E+01  0.20281966815E+02  0.51100000000E-03 0. -1.
        -11    1    3    3    0    0 -0.12360052165E+02  0.18527353676E+02 -0.48901474765E+01  0.22802352211E+02  0.51100000000E-03 0.  1.
         12    1    3    3    0    0  0.12207188899E+02 -0.26339463616E+02  0.44990085283E+01  0.29377268119E+02  0.00000000000E+00 0. -1.
</event>
<event>
 7    1  0.3440346E-013  0.7246160E+02  0.7816164E-02  0.1226708E+00
        -11   -1    0    0    0    0  0.00000000000E+00  0.00000000000E+00  0.45593999997E+02  0.45594000000E+02  0.51100000000E-03 0. -1.
         11   -1    0    0    0    0 -0.00000000000E+00 -0.00000000000E+00 -0.45593999997E+02  0.45594000000E+02  0.51100000000E-03 0.  1.
    9900012    2    1    2    0    0  0.10971602535E+02 -0.89158945913E+01 -0.12280416582E+02  0.72461604993E+02  0.70000045201E+02 0.  0.
        -12    1    1    2    0    0 -0.10971602535E+02  0.89158945913E+01  0.12280416582E+02  0.18726395007E+02  0.00000000000E+00 0.  1.
         11    1    3    3    0    0  0.19438015978E+02 -0.40970494897E+00 -0.25378719054E+02  0.31970043859E+02  0.51100000000E-03 0. -1.
        -11    1    3    3    0    0 -0.78777792817E+01 -0.10832064266E+02 -0.10346306069E+02  0.16924510988E+02  0.51100000000E-03 0.  1.
        -12    1    3    3    0    0 -0.58863416149E+00  0.23258746234E+01  0.23444608540E+02  0.23567050145E+02  0.00000000000E+00 0.  1.
</event>
<event>
 7    1  0.3440346E-013  0.7246158E+02  0.7816164E-02  0.1226708E+00
        -11   -1    0    0    0    0  0.00000000000E+00  0.00000000000E+00  0.45593999997E+02  0.45594000000E+02  0.51100000000E-03 0.  1.
         11   -1    0    0    0    0 -0.00000000000E+00 -0.00000000000E+00 -0.45593999997E+02  0.45594000000E+02  0.51100000000E-03 0. -1.
    9900012    2    1    2    0    0 -0.79823247473E+00  0.90160066199E+01 -0.16393695107E+02  0.72461580435E+02  0.70000013210E+02 0.  0.
        -12    1    1    2    0    0  0.79823247473E+00 -0.90160066199E+01  0.16393695107E+02  0.18726419565E+02  0.00000000000E+00 0.  1.
         11    1    3    3    0    0  0.34751359345E+01  0.15055473316E+02 -0.23383760150E+02  0.28027559394E+02  0.51100000000E-03 0. -1.
        -11    1    3    3    0    0 -0.12903084877E+02 -0.55304493710E+01 -0.15157123822E+02  0.20659474156E+02  0.51100000000E-03 0.  1.
        -12    1    3    3    0    0  0.86297164676E+01 -0.50901732490E+00  0.22147188866E+02  0.23774546885E+02  0.00000000000E+00 0.  1.
</event>
<event>
 7    1  0.3440346E-013  0.7246162E+02  0.7816164E-02  0.1226708E+00
        -11   -1    0    0    0    0  0.00000000000E+00  0.00000000000E+00  0.45593999997E+02  0.45594000000E+02  0.51100000000E-03 0. -1.
         11   -1    0    0    0    0 -0.00000000000E+00 -0.00000000000E+00 -0.45593999997E+02  0.45594000000E+02  0.51100000000E-03 0.  1.
    9900012    2    1    2    0    0  0.84350900247E+01 -0.10456619979E+02 -0.13045526091E+02  0.72461617646E+02  0.70000061684E+02 0.  0.
        -12    1    1    2    0    0 -0.84350900247E+01  0.10456619979E+02  0.13045526091E+02  0.18726382354E+02  0.00000000000E+00 0.  1.
         11    1    3    3    0    0  0.73495348674E+01 -0.18053484281E+01 -0.96149139787E+01  0.12236074403E+02  0.51100000000E-03 0. -1.
        -11    1    3    3    0    0  0.29035264480E+02 -0.11635929213E+02 -0.65050453276E+01  0.31949288678E+02  0.51100000000E-03 0.  1.
        -12    1    3    3    0    0 -0.27949709323E+02  0.29846576628E+01  0.30744332157E+01  0.28276254564E+02  0.00000000000E+00 0.  1.
</event>
<event>
 7    1  0.3440346E-013  0.7246155E+02  0.7816164E-02  0.1226708E+00
        -11   -1    0    0    0    0  0.00000000000E+00  0.00000000000E+00  0.45593999997E+02  0.45594000000E+02  0.51100000000E-03 0. -1.
         11   -1    0    0    0    0 -0.00000000000E+00 -0.00000000000E+00 -0.45593999997E+02  0.45594000000E+02  0.51100000000E-03 0.  1.
    9900012    2    1    2    0    0  0.74742012758E+01  0.26603521218E+00  0.17168155524E+02  0.72461547491E+02  0.69999970295E+02 0.  0.
        -12    1    1    2    0    0 -0.74742012758E+01 -0.26603521218E+00 -0.17168155524E+02  0.18726452509E+02  0.00000000000E+00 0.  1.
         11    1    3    3    0    0 -0.15164662463E+02 -0.81820569840E+00  0.13894366853E+02  0.20583728493E+02  0.51100000000E-03 0. -1.
        -11    1    3    3    0    0 -0.19033162152E+01  0.12515980678E+02 -0.14685253976E+02  0.19388890364E+02  0.51100000000E-03 0.  1.
         12    1    3    3    0    0  0.24542179954E+02 -0.11431739767E+02  0.17959042648E+02  0.32488928635E+02  0.00000000000E+00 0. -1.
</event>
<event>
 7    1  0.3440346E-013  0.7246172E+02  0.7816164E-02  0.1226708E+00
        -11   -1    0    0    0    0  0.00000000000E+00  0.00000000000E+00  0.45593999997E+02  0.45594000000E+02  0.51100000000E-03 0. -1.
         11   -1    0    0    0    0 -0.00000000000E+00 -0.00000000000E+00 -0.45593999997E+02  0.45594000000E+02  0.51100000000E-03 0.  1.
    9900012    2    1    2    0    0  0.58199673750E+01 -0.95091383941E+01  0.15045863637E+02  0.72461715109E+02  0.70000188648E+02 0.  0.
        -12    1    1    2    0    0 -0.58199673750E+01  0.95091383941E+01 -0.15045863637E+02  0.18726284891E+02  0.00000000000E+00 0.  1.
         11    1    3    3    0    0  0.12351510586E+02  0.28771481056E+01  0.14316589351E+02  0.19125964704E+02  0.51100000000E-03 0. -1.
        -11    1    3    3    0    0 -0.13479411368E+02 -0.46976223340E+01  0.23964865044E+02  0.27894030603E+02  0.51100000000E-03 0.  1.
        -12    1    3    3    0    0  0.69478681572E+01 -0.76886641657E+01 -0.23235590758E+02  0.25441719802E+02  0.00000000000E+00 0.  1.
</event>
<event>
 7    1  0.4242875E-013  0.7246164E+02  0.7816164E-02  0.1226708E+00
        -11   -1    0    0    0    0  0.00000000000E+00  0.00000000000E+00  0.45593999997E+02  0.45594000000E+02  0.51100000000E-03 0. -1.
         11   -1    0    0    0    0 -0.00000000000E+00 -0.00000000000E+00 -0.45593999997E+02  0.45594000000E+02  0.51100000000E-03 0.  1.
    9900012    2    1    2    0    0  0.47671615805E+01 -0.15055536353E+02  0.10063875763E+02  0.72461638907E+02  0.70000089381E+02 0.  0.
        -12    1    1    2    0    0 -0.47671615805E+01  0.15055536353E+02 -0.10063875763E+02  0.18726361093E+02  0.00000000000E+00 0.  1.
         11    1    3    3    0    0 -0.76772086003E+01 -0.20763977682E+02  0.18188848478E+02  0.28651640622E+02  0.51100000000E-03 0. -1.
        -11    1    3    3    0    0  0.17682517640E+02 -0.14050818798E+02 -0.49776842821E+01  0.23127349179E+02  0.51100000000E-03 0.  1.
        -12    1    3    3    0    0 -0.52381474588E+01  0.19759260128E+02 -0.31472884337E+01  0.20682649107E+02  0.00000000000E+00 0.  1.
</event>
<event>
 7    1  0.3440346E-013  0.7246158E+02  0.7816164E-02  0.1226708E+00
        -11   -1    0    0    0    0  0.00000000000E+00  0.00000000000E+00  0.45593999997E+02  0.45594000000E+02  0.51100000000E-03 0.  1.
         11   -1    0    0    0    0 -0.00000000000E+00 -0.00000000000E+00 -0.45593999997E+02  0.45594000000E+02  0.51100000000E-03 0. -1.
    9900012    2    1    2    0    0 -0.10264797082E+02 -0.15099772720E+02 -0.41604852565E+01  0.72461579282E+02  0.70000011708E+02 0.  0.
        -12    1    1    2    0    0  0.10264797082E+02  0.15099772720E+02  0.41604852565E+01  0.18726420718E+02  0.00000000000E+00 0.  1.
         11    1    3    3    0    0 -0.14000006410E+02 -0.15954354681E+02  0.25235978606E+02  0.32975691489E+02  0.51100000000E-03 0. -1.
        -11    1    3    3    0    0 -0.44439472020E+01 -0.56457251622E+01  0.10825233574E+01  0.72659986527E+01  0.51100000000E-03 0.  1.
        -12    1    3    3    0    0  0.81791565294E+01  0.65003071226E+01 -0.30478987220E+02  0.32219889140E+02  0.00000000000E+00 0.  1.
</event>
<event>
 7    1  0.3440346E-013  0.7246158E+02  0.7816164E-02  0.1226708E+00
        -11   -1    0    0    0    0  0.00000000000E+00  0.00000000000E+00  0.45593999997E+02  0.45594000000E+02  0.51100000000E-03 0. -1.
         11   -1    0    0    0    0 -0.00000000000E+00 -0.00000000000E+00 -0.45593999997E+02  0.45594000000E+02  0.51100000000E-03 0.  1.
    9900012    2    1    2    0    0  0.87778779833E+01  0.12226781166E+02  0.11141519987E+02  0.72461580503E+02  0.70000013299E+02 0.  0.
        -12    1    1    2    0    0 -0.87778779833E+01 -0.12226781166E+02 -0.11141519987E+02  0.18726419497E+02  0.00000000000E+00 0.  1.
         11    1    3    3    0    0  0.29706659241E+01 -0.56798738285E+01  0.13604599997E+02  0.15038981484E+02  0.51100000000E-03 0. -1.
        -11    1    3    3    0    0 -0.14237041619E+02  0.27111951236E+02 -0.12642746945E+02  0.33129900459E+02  0.51100000000E-03 0.  1.
         12    1    3    3    0    0  0.20044253678E+02 -0.92052962417E+01  0.10179666935E+02  0.24292698560E+02  0.00000000000E+00 0. -1.
</event>
<event>
 7    1  0.3440346E-013  0.7246156E+02  0.7816164E-02  0.1226708E+00
        -11   -1    0    0    0    0  0.00000000000E+00  0.00000000000E+00  0.45593999997E+02  0.45594000000E+02  0.51100000000E-03 0.  1.
         11   -1    0    0    0    0 -0.00000000000E+00 -0.00000000000E+00 -0.45593999997E+02  0.45594000000E+02  0.51100000000E-03 0. -1.
    9900012    2    1    2    0    0  0.18011851291E+02  0.17737403936E+01  0.48069267379E+01  0.72461561829E+02  0.69999988972E+02 0.  0.
        -12    1    1    2    0    0 -0.18011851291E+02 -0.17737403936E+01 -0.48069267379E+01  0.18726438171E+02  0.00000000000E+00 0.  1.
         11    1    3    3    0    0  0.26359488816E+02  0.18444281753E+02 -0.48784008706E+01  0.32539406500E+02  0.51100000000E-03 0. -1.
        -11    1    3    3    0    0 -0.98744267352E+01  0.83136148271E+01 -0.45309275010E+00  0.12916105765E+02  0.51100000000E-03 0.  1.
         12    1    3    3    0    0  0.15267892104E+01 -0.24984156187E+02  0.10138420359E+02  0.27006049564E+02  0.00000000000E+00 0. -1.
</event>
<event>
 7    1  0.3440346E-013  0.7246165E+02  0.7816164E-02  0.1226708E+00
        -11   -1    0    0    0    0  0.00000000000E+00  0.00000000000E+00  0.45593999997E+02  0.45594000000E+02  0.51100000000E-03 0.  1.
         11   -1    0    0    0    0 -0.00000000000E+00 -0.00000000000E+00 -0.45593999997E+02  0.45594000000E+02  0.51100000000E-03 0. -1.
    9900012    2    1    2    0    0 -0.10392335376E+02  0.83736133132E+00 -0.15555528414E+02  0.72461647637E+02  0.70000100753E+02 0.  0.
        -12    1    1    2    0    0  0.10392335376E+02 -0.83736133132E+00  0.15555528414E+02  0.18726352363E+02  0.00000000000E+00 0.  1.
         11    1    3    3    0    0 -0.23878341192E+01  0.80975309935E+01  0.33105925939E+00  0.84487490474E+01  0.51100000000E-03 0. -1.
        -11    1    3    3    0    0 -0.10325295600E+02 -0.77386955864E+01 -0.38845240176E+02  0.40932283386E+02  0.51100000000E-03 0.  1.
        -12    1    3    3    0    0  0.23207943424E+01  0.47852592422E+00  0.22958652503E+02  0.23080615204E+02  0.00000000000E+00 0.  1.
</event>
<event>
 7    1  0.3440346E-013  0.7246161E+02  0.7816164E-02  0.1226708E+00
        -11   -1    0    0    0    0  0.00000000000E+00  0.00000000000E+00  0.45593999997E+02  0.45594000000E+02  0.51100000000E-03 0. -1.
         11   -1    0    0    0    0 -0.00000000000E+00 -0.00000000000E+00 -0.45593999997E+02  0.45594000000E+02  0.51100000000E-03 0.  1.
    9900012    2    1    2    0    0  0.11068519607E+02 -0.89263907727E+01  0.12185445853E+02  0.72461610354E+02  0.70000052186E+02 0.  0.
        -12    1    1    2    0    0 -0.11068519607E+02  0.89263907727E+01 -0.12185445853E+02  0.18726389646E+02  0.00000000000E+00 0.  1.
         11    1    3    3    0    0 -0.67412549921E+01  0.52803229031E+01  0.13127094376E+02  0.15673127826E+02  0.51100000000E-03 0.  1.
        -11    1    3    3    0    0 -0.38892510544E+01 -0.27484269766E+02  0.94304455996E+01  0.29316286648E+02  0.51100000000E-03 0. -1.
        -12    1    3    3    0    0  0.21699025653E+02  0.13277556091E+02 -0.10372094122E+02  0.27472195881E+02  0.00000000000E+00 0.  1.
</event>
<event>
 7    1  0.3440346E-013  0.7246154E+02  0.7816164E-02  0.1226708E+00
        -11   -1    0    0    0    0  0.00000000000E+00  0.00000000000E+00  0.45593999997E+02  0.45594000000E+02  0.51100000000E-03 0.  1.
         11   -1    0    0    0    0 -0.00000000000E+00 -0.00000000000E+00 -0.45593999997E+02  0.45594000000E+02  0.51100000000E-03 0. -1.
    9900012    2    1    2    0    0  0.32393920433E+01 -0.13657459885E+02 -0.12395983245E+02  0.72461540860E+02  0.69999961656E+02 0.  0.
        -12    1    1    2    0    0 -0.32393920433E+01  0.13657459885E+02  0.12395983245E+02  0.18726459140E+02  0.00000000000E+00 0.  1.
         11    1    3    3    0    0  0.18085404508E+02 -0.30041202070E+02  0.11376152217E+02  0.36864244432E+02  0.51100000000E-03 0.  1.
        -11    1    3    3    0    0  0.19333226442E+01  0.47372785409E+01 -0.91303732228E+01  0.10466291601E+02  0.51100000000E-03 0. -1.
        -12    1    3    3    0    0 -0.16779335109E+02  0.11646463645E+02 -0.14641762239E+02  0.25131004827E+02  0.00000000000E+00 0.  1.
</event>
<event>
 7    1  0.3440346E-013  0.7246160E+02  0.7816164E-02  0.1226708E+00
        -11   -1    0    0    0    0  0.00000000000E+00  0.00000000000E+00  0.45593999997E+02  0.45594000000E+02  0.51100000000E-03 0. -1.
         11   -1    0    0    0    0 -0.00000000000E+00 -0.00000000000E+00 -0.45593999997E+02  0.45594000000E+02  0.51100000000E-03 0.  1.
    9900012    2    1    2    0    0 -0.73150975335E+01  0.78384911473E+01  0.15353354436E+02  0.72461599176E+02  0.70000037624E+02 0.  0.
        -12    1    1    2    0    0  0.73150975335E+01 -0.78384911473E+01 -0.15353354436E+02  0.18726400824E+02  0.00000000000E+00 0.  1.
         11    1    3    3    0    0  0.15416957935E+01  0.36682388033E+01  0.21063361250E+02  0.21435904209E+02  0.51100000000E-03 0. -1.
        -11    1    3    3    0    0  0.19508443601E+02 -0.26574493380E+01 -0.90326117249E+01  0.21661705462E+02  0.51100000000E-03 0.  1.
         12    1    3    3    0    0 -0.28365236928E+02  0.68277016821E+01  0.33226049100E+01  0.29363989504E+02  0.00000000000E+00 0. -1.
</event>
<event>
 7    1  0.3440346E-013  0.7246155E+02  0.7816164E-02  0.1226708E+00
        -11   -1    0    0    0    0  0.00000000000E+00  0.00000000000E+00  0.45593999997E+02  0.45594000000E+02  0.51100000000E-03 0.  1.
         11   -1    0    0    0    0 -0.00000000000E+00 -0.00000000000E+00 -0.45593999997E+02  0.45594000000E+02  0.51100000000E-03 0. -1.
    9900012    2    1    2    0    0 -0.18662374099E+02  0.15329751404E+01 -0.21352759809E+00  0.72461553092E+02  0.69999977590E+02 0.  0.
        -12    1    1    2    0    0  0.18662374099E+02 -0.15329751404E+01  0.21352759809E+00  0.18726446908E+02  0.00000000000E+00 0.  1.
         11    1    3    3    0    0  0.81430140332E+01 -0.85182877117E+01 -0.50420402513E+01  0.12817646946E+02  0.51100000000E-03 0. -1.
        -11    1    3    3    0    0 -0.26159683422E+02  0.28930831598E+02 -0.31636243641E+01  0.39132219118E+02  0.51100000000E-03 0.  1.
         12    1    3    3    0    0 -0.64570470959E+00 -0.18879568746E+02  0.79921370173E+01  0.20511687027E+02  0.00000000000E+00 0. -1.
</event>
<event>
 7    1  0.3440346E-013  0.7246157E+02  0.7816164E-02  0.1226708E+00
        -11   -1    0    0    0    0  0.00000000000E+00  0.00000000000E+00  0.45593999997E+02  0.45594000000E+02  0.51100000000E-03 0.  1.
         11   -1    0    0    0    0 -0.00000000000E+00 -0.00000000000E+00 -0.45593999997E+02  0.45594000000E+02  0.51100000000E-03 0. -1.
    9900012    2    1    2    0    0 -0.14667874299E+02  0.29970287390E+01 -0.11249470881E+02  0.72461566469E+02  0.69999995017E+02 0.  0.
        -12    1    1    2    0    0  0.14667874299E+02 -0.29970287390E+01  0.11249470881E+02  0.18726433531E+02  0.00000000000E+00 0.  1.
         11    1    3    3    0    0  0.16063509913E+02  0.12627578464E+02 -0.27717196404E+02  0.34434503995E+02  0.51100000000E-03 0. -1.
        -11    1    3    3    0    0 -0.13666839875E+02  0.14113016158E+01  0.45919192896E+01  0.14486545739E+02  0.51100000000E-03 0.  1.
        -12    1    3    3    0    0 -0.17064544337E+02 -0.11041851341E+02  0.11875806234E+02  0.23540516735E+02  0.00000000000E+00 0.  1.
</event>
<event>
 7    1  0.3440346E-013  0.7246160E+02  0.7816164E-02  0.1226708E+00
        -11   -1    0    0    0    0  0.00000000000E+00  0.00000000000E+00  0.45593999997E+02  0.45594000000E+02  0.51100000000E-03 0.  1.
         11   -1    0    0    0    0 -0.00000000000E+00 -0.00000000000E+00 -0.45593999997E+02  0.45594000000E+02  0.51100000000E-03 0. -1.
    9900012    2    1    2    0    0  0.13937210457E+02  0.12461724174E+02 -0.10665795669E+01  0.72461601609E+02  0.70000040793E+02 0.  0.
        -12    1    1    2    0    0 -0.13937210457E+02 -0.12461724174E+02  0.10665795669E+01  0.18726398391E+02  0.00000000000E+00 0.  1.
         11    1    3    3    0    0 -0.42514712429E+01 -0.37937904785E+01 -0.18206449780E+02  0.19077281457E+02  0.51100000000E-03 0. -1.
        -11    1    3    3    0    0  0.23426851539E+02  0.41470811966E+00 -0.66234811407E+01  0.24348713693E+02  0.51100000000E-03 0.  1.
        -12    1    3    3    0    0 -0.52381698385E+01  0.15840806533E+02  0.23763351354E+02  0.29035606459E+02  0.00000000000E+00 0.  1.
</event>
<event>
 7    1  0.3440346E-013  0.7246149E+02  0.7816164E-02  0.1226708E+00
        -11   -1    0    0    0    0  0.00000000000E+00  0.00000000000E+00  0.45593999997E+02  0.45594000000E+02  0.51100000000E-03 0.  1.
         11   -1    0    0    0    0 -0.00000000000E+00 -0.00000000000E+00 -0.45593999997E+02  0.45594000000E+02  0.51100000000E-03 0. -1.
    9900012    2    1    2    0    0 -0.13400406168E+02  0.71917662183E+01 -0.10926561951E+02  0.72461490905E+02  0.69999896581E+02 0.  0.
        -12    1    1    2    0    0  0.13400406168E+02 -0.71917662183E+01  0.10926561951E+02  0.18726509095E+02  0.00000000000E+00 0.  1.
         11    1    3    3    0    0 -0.39142486300E+01 -0.42667993481E+01 -0.28505435396E+02  0.29087570651E+02  0.51100000000E-03 0. -1.
        -11    1    3    3    0    0  0.70289264731E+01  0.95688568725E+00 -0.83060475907E+01  0.10922997044E+02  0.51100000000E-03 0.  1.
        -12    1    3    3    0    0 -0.16515084011E+02  0.10501679879E+02  0.25884921035E+02  0.32450923210E+02  0.00000000000E+00 0.  1.
</event>
<event>
 7    1  0.3440346E-013  0.7246149E+02  0.7816164E-02  0.1226708E+00
        -11   -1    0    0    0    0  0.00000000000E+00  0.00000000000E+00  0.45593999997E+02  0.45594000000E+02  0.51100000000E-03 0. -1.
         11   -1    0    0    0    0 -0.00000000000E+00 -0.00000000000E+00 -0.45593999997E+02  0.45594000000E+02  0.51100000000E-03 0.  1.
    9900012    2    1    2    0    0 -0.12672929645E+01  0.18332640812E+02  0.36042417019E+01  0.72461486474E+02  0.69999890809E+02 0.  0.
        -12    1    1    2    0    0  0.12672929645E+01 -0.18332640812E+02 -0.36042417019E+01  0.18726513526E+02  0.00000000000E+00 0.  1.
         11    1    3    3    0    0 -0.10732153425E+02 -0.78726513800E+01  0.25565970833E+02  0.28823195898E+02  0.51100000000E-03 0. -1.
        -11    1    3    3    0    0 -0.60521949858E+01  0.25660964950E+01  0.16745434833E+01  0.67836576790E+01  0.51100000000E-03 0.  1.
        -12    1    3    3    0    0  0.15517055446E+02  0.23639195697E+02 -0.23636272614E+02  0.36854632897E+02  0.00000000000E+00 0.  1.
</event>
<event>
 7    1  0.3440346E-013  0.7246157E+02  0.7816164E-02  0.1226708E+00
        -11   -1    0    0    0    0  0.00000000000E+00  0.00000000000E+00  0.45593999997E+02  0.45594000000E+02  0.51100000000E-03 0.  1.
         11   -1    0    0    0    0 -0.00000000000E+00 -0.00000000000E+00 -0.45593999997E+02  0.45594000000E+02  0.51100000000E-03 0. -1.
    9900012    2    1    2    0    0  0.17408326836E+01 -0.40244246924E+01 -0.18205841862E+02  0.72461570270E+02  0.69999999968E+02 0.  0.
        -12    1    1    2    0    0 -0.17408326836E+01  0.40244246924E+01  0.18205841862E+02  0.18726429730E+02  0.00000000000E+00 0.  1.
         11    1    3    3    0    0  0.15958069485E+02  0.11917510841E+02 -0.81271884221E+01  0.21511351381E+02  0.51100000000E-03 0. -1.
        -11    1    3    3    0    0 -0.30751390619E+01  0.15810936755E+02 -0.12235863677E+01  0.16153617712E+02  0.51100000000E-03 0.  1.
         12    1    3    3    0    0 -0.11142097740E+02 -0.31752872288E+02 -0.88550670723E+01  0.34796601177E+02  0.00000000000E+00 0. -1.
</event>
<event>
 7    1  0.3440346E-013  0.7246158E+02  0.7816164E-02  0.1226708E+00
        -11   -1    0    0    0    0  0.00000000000E+00  0.00000000000E+00  0.45593999997E+02  0.45594000000E+02  0.51100000000E-03 0. -1.
         11   -1    0    0    0    0 -0.00000000000E+00 -0.00000000000E+00 -0.45593999997E+02  0.45594000000E+02  0.51100000000E-03 0.  1.
    9900012    2    1    2    0    0 -0.14051745984E+02 -0.29200994385E+01  0.12029145813E+02  0.72461577626E+02  0.70000009551E+02 0.  0.
        -12    1    1    2    0    0  0.14051745984E+02  0.29200994385E+01 -0.12029145813E+02  0.18726422374E+02  0.00000000000E+00 0.  1.
         11    1    3    3    0    0 -0.18732690066E+02 -0.86673782188E+01 -0.79903513214E+00  0.20656126929E+02  0.51100000000E-03 0. -1.
        -11    1    3    3    0    0 -0.82022556589E+00  0.65278143939E+00 -0.19039134354E+02  0.19067971334E+02  0.51100000000E-03 0.  1.
         12    1    3    3    0    0  0.55011696476E+01  0.50944973410E+01  0.31867315300E+02  0.32737479363E+02  0.00000000000E+00 0. -1.
</event>
<event>
 7    1  0.3440346E-013  0.7246158E+02  0.7816164E-02  0.1226708E+00
        -11   -1    0    0    0    0  0.00000000000E+00  0.00000000000E+00  0.45593999997E+02  0.45594000000E+02  0.51100000000E-03 0. -1.
         11   -1    0    0    0    0 -0.00000000000E+00 -0.00000000000E+00 -0.45593999997E+02  0.45594000000E+02  0.51100000000E-03 0.  1.
    9900012    2    1    2    0    0 -0.18424524024E+02 -0.28200896523E+01  0.18063567658E+01  0.72461577066E+02  0.70000008821E+02 0.  0.
        -12    1    1    2    0    0  0.18424524024E+02  0.28200896523E+01 -0.18063567658E+01  0.18726422934E+02  0.00000000000E+00 0.  1.
         11    1    3    3    0    0  0.17492166104E+01 -0.16543740419E+02 -0.99211498239E+01  0.19369675265E+02  0.51100000000E-03 0. -1.
        -11    1    3    3    0    0  0.93211975873E+01 -0.85439798319E+01 -0.35014961066E+01  0.13120395995E+02  0.51100000000E-03 0.  1.
        -12    1    3    3    0    0 -0.29494938222E+02  0.22267630599E+02  0.15229002696E+02  0.39971505805E+02  0.00000000000E+00 0.  1.
</event>
<event>
 7    1  0.3440346E-013  0.7246168E+02  0.7816164E-02  0.1226708E+00
        -11   -1    0    0    0    0  0.00000000000E+00  0.00000000000E+00  0.45593999997E+02  0.45594000000E+02  0.51100000000E-03 0. -1.
         11   -1    0    0    0    0 -0.00000000000E+00 -0.00000000000E+00 -0.45593999997E+02  0.45594000000E+02  0.51100000000E-03 0.  1.
    9900012    2    1    2    0    0 -0.53944246251E+01  0.81273351327E+01  0.15985041551E+02  0.72461683043E+02  0.70000146876E+02 0.  0.
        -12    1    1    2    0    0  0.53944246251E+01 -0.81273351327E+01 -0.15985041551E+02  0.18726316957E+02  0.00000000000E+00 0.  1.
         11    1    3    3    0    0 -0.46283637980E+01 -0.31305969722E+01 -0.14948285730E+02  0.15958497278E+02  0.51100000000E-03 0. -1.
        -11    1    3    3    0    0 -0.12370916123E+02  0.25508385584E+02  0.14468460102E+02  0.31828503559E+02  0.51100000000E-03 0.  1.
         12    1    3    3    0    0  0.11604855296E+02 -0.14250453479E+02  0.16464867178E+02  0.24674682206E+02  0.00000000000E+00 0. -1.
</event>
<event>
 7    1  0.3440346E-013  0.7246158E+02  0.7816164E-02  0.1226708E+00
        -11   -1    0    0    0    0  0.00000000000E+00  0.00000000000E+00  0.45593999997E+02  0.45594000000E+02  0.51100000000E-03 0.  1.
         11   -1    0    0    0    0 -0.00000000000E+00 -0.00000000000E+00 -0.45593999997E+02  0.45594000000E+02  0.51100000000E-03 0. -1.
    9900012    2    1    2    0    0 -0.16316524114E+02 -0.30416863762E+01  0.86716818942E+01  0.72461577970E+02  0.70000009999E+02 0.  0.
        -12    1    1    2    0    0  0.16316524114E+02  0.30416863762E+01 -0.86716818942E+01  0.18726422030E+02  0.00000000000E+00 0.  1.
         11    1    3    3    0    0 -0.15990103120E+02  0.11843710148E+02  0.24150603157E+01  0.20044684694E+02  0.51100000000E-03 0. -1.
        -11    1    3    3    0    0 -0.11257480164E+02 -0.30594652614E+02  0.66649297000E+01  0.33274388294E+02  0.51100000000E-03 0.  1.
         12    1    3    3    0    0  0.10931059170E+02  0.15709256089E+02 -0.40830812137E+00  0.19142504982E+02  0.00000000000E+00 0. -1.
</event>
<event>
 7    1  0.3440346E-013  0.7246146E+02  0.7816164E-02  0.1226708E+00
        -11   -1    0    0    0    0  0.00000000000E+00  0.00000000000E+00  0.45593999997E+02  0.45594000000E+02  0.51100000000E-03 0.  1.
         11   -1    0    0    0    0 -0.00000000000E+00 -0.00000000000E+00 -0.45593999997E+02  0.45594000000E+02  0.51100000000E-03 0. -1.
    9900012    2    1    2    0    0 -0.10768344059E+02 -0.15319419473E+02 -0.20372130325E+00  0.72461458698E+02  0.69999854624E+02 0.  0.
        -12    1    1    2    0    0  0.10768344059E+02  0.15319419473E+02  0.20372130325E+00  0.18726541302E+02  0.00000000000E+00 0.  1.
         11    1    3    3    0    0 -0.22309857886E+01 -0.14473587302E+01  0.46408728213E+01  0.53488172232E+01  0.51100000000E-03 0. -1.
        -11    1    3    3    0    0 -0.31545801968E+02 -0.25740520207E+02 -0.62179719137E+01  0.41187075367E+02  0.51100000000E-03 0.  1.
         12    1    3    3    0    0  0.23008443697E+02  0.11868459464E+02  0.13733777892E+01  0.25925566107E+02  0.00000000000E+00 0. -1.
</event>
<event>
 7    1  0.3440346E-013  0.7246156E+02  0.7816164E-02  0.1226708E+00
        -11   -1    0    0    0    0  0.00000000000E+00  0.00000000000E+00  0.45593999997E+02  0.45594000000E+02  0.51100000000E-03 0.  1.
         11   -1    0    0    0    0 -0.00000000000E+00 -0.00000000000E+00 -0.45593999997E+02  0.45594000000E+02  0.51100000000E-03 0. -1.
    9900012    2    1    2    0    0 -0.14125022201E+02  0.11425824539E+02  0.45402360301E+01  0.72461562491E+02  0.69999989835E+02 0.  0.
        -12    1    1    2    0    0  0.14125022201E+02 -0.11425824539E+02 -0.45402360301E+01  0.18726437509E+02  0.00000000000E+00 0.  1.
         11    1    3    3    0    0  0.96320269712E+00  0.69048756852E+01 -0.17571055279E+01  0.71897487968E+01  0.51100000000E-03 0. -1.
        -11    1    3    3    0    0  0.62546553289E+01 -0.36433217679E+01 -0.25278708468E+02  0.26294630799E+02  0.51100000000E-03 0.  1.
         12    1    3    3    0    0 -0.21342880227E+02  0.81642706215E+01  0.31576050026E+02  0.38977182895E+02  0.00000000000E+00 0. -1.
</event>
<event>
 7    1  0.3440346E-013  0.7246149E+02  0.7816164E-02  0.1226708E+00
        -11   -1    0    0    0    0  0.00000000000E+00  0.00000000000E+00  0.45593999997E+02  0.45594000000E+02  0.51100000000E-03 0.  1.
         11   -1    0    0    0    0 -0.00000000000E+00 -0.00000000000E+00 -0.45593999997E+02  0.45594000000E+02  0.51100000000E-03 0. -1.
    9900012    2    1    2    0    0  0.15800054495E+02 -0.98070479861E+01  0.22050125128E+01  0.72461494922E+02  0.69999901814E+02 0.  0.
        -12    1    1    2    0    0 -0.15800054495E+02  0.98070479861E+01 -0.22050125128E+01  0.18726505078E+02  0.00000000000E+00 0.  1.
         11    1    3    3    0    0  0.24503353454E+02 -0.29180398622E+01 -0.26227139219E+02  0.36010999973E+02  0.51100000000E-03 0. -1.
        -11    1    3    3    0    0 -0.12531307648E+02 -0.97200551373E+01  0.13663413387E+02  0.20933275159E+02  0.51100000000E-03 0.  1.
        -12    1    3    3    0    0  0.38280086891E+01  0.28310470134E+01  0.14768738345E+02  0.15517219790E+02  0.00000000000E+00 0.  1.
</event>
<event>
 7    1  0.3440346E-013  0.7246172E+02  0.7816164E-02  0.1226708E+00
        -11   -1    0    0    0    0  0.00000000000E+00  0.00000000000E+00  0.45593999997E+02  0.45594000000E+02  0.51100000000E-03 0.  1.
         11   -1    0    0    0    0 -0.00000000000E+00 -0.00000000000E+00 -0.45593999997E+02  0.45594000000E+02  0.51100000000E-03 0. -1.
    9900012    2    1    2    0    0  0.65143575373E+01 -0.13020120357E+02 -0.11777658454E+02  0.72461718284E+02  0.70000192784E+02 0.  0.
        -12    1    1    2    0    0 -0.65143575373E+01  0.13020120357E+02  0.11777658454E+02  0.18726281716E+02  0.00000000000E+00 0.  1.
         11    1    3    3    0    0  0.11522968164E+02  0.85584880609E+00 -0.98988516405E+01  0.15215075962E+02  0.51100000000E-03 0. -1.
        -11    1    3    3    0    0  0.21566745899E+02 -0.18541243444E+02 -0.80694989777E+01  0.29563813203E+02  0.51100000000E-03 0.  1.
        -12    1    3    3    0    0 -0.26575356525E+02  0.46652742809E+01  0.61906921643E+01  0.27682829119E+02  0.00000000000E+00 0.  1.
</event>
<event>
 7    1  0.3440346E-013  0.7246156E+02  0.7816164E-02  0.1226708E+00
        -11   -1    0    0    0    0  0.00000000000E+00  0.00000000000E+00  0.45593999997E+02  0.45594000000E+02  0.51100000000E-03 0.  1.
         11   -1    0    0    0    0 -0.00000000000E+00 -0.00000000000E+00 -0.45593999997E+02  0.45594000000E+02  0.51100000000E-03 0. -1.
    9900012    2    1    2    0    0 -0.10195811102E+02  0.11739547377E+02 -0.10435892925E+02  0.72461564199E+02  0.69999992060E+02 0.  0.
        -12    1    1    2    0    0  0.10195811102E+02 -0.11739547377E+02  0.10435892925E+02  0.18726435801E+02  0.00000000000E+00 0.  1.
         11    1    3    3    0    0 -0.17277322020E+02  0.17300242948E+01 -0.24406135476E+02  0.29952600711E+02  0.51100000000E-03 0. -1.
        -11    1    3    3    0    0 -0.91807329447E+01 -0.82876383271E+01  0.13096902141E+02  0.18013873887E+02  0.51100000000E-03 0.  1.
        -12    1    3    3    0    0  0.16262243862E+02  0.18297161410E+02  0.87334040929E+00  0.24495089601E+02  0.00000000000E+00 0.  1.
</event>
<event>
 7    1  0.3440346E-013  0.7246157E+02  0.7816164E-02  0.1226708E+00
        -11   -1    0    0    0    0  0.00000000000E+00  0.00000000000E+00  0.45593999997E+02  0.45594000000E+02  0.51100000000E-03 0. -1.
         11   -1    0    0    0    0 -0.00000000000E+00 -0.00000000000E+00 -0.45593999997E+02  0.45594000000E+02  0.51100000000E-03 0.  1.
    9900012    2    1    2    0    0  0.85967503597E+01 -0.26065081519E+01 -0.16431104251E+02  0.72461569791E+02  0.69999999344E+02 0.  0.
        -12    1    1    2    0    0 -0.85967503597E+01  0.26065081519E+01  0.16431104251E+02  0.18726430209E+02  0.00000000000E+00 0.  1.
         11    1    3    3    0    0  0.57715494982E+01  0.71662107007E+00 -0.13326340917E+02  0.14540140710E+02  0.51100000000E-03 0. -1.
        -11    1    3    3    0    0 -0.17739368115E+01 -0.10607956115E+02 -0.28841199264E+02  0.30781331355E+02  0.51100000000E-03 0.  1.
         12    1    3    3    0    0  0.45991376730E+01  0.72848268932E+01  0.25736435930E+02  0.27140097726E+02  0.00000000000E+00 0. -1.
</event>
<event>
 7    1  0.3440346E-013  0.7246153E+02  0.7816164E-02  0.1226708E+00
        -11   -1    0    0    0    0  0.00000000000E+00  0.00000000000E+00  0.45593999997E+02  0.45594000000E+02  0.51100000000E-03 0.  1.
         11   -1    0    0    0    0 -0.00000000000E+00 -0.00000000000E+00 -0.45593999997E+02  0.45594000000E+02  0.51100000000E-03 0. -1.
    9900012    2    1    2    0    0  0.51648107710E+01 -0.17456754834E+02 -0.43894292425E+01  0.72461530799E+02  0.69999948550E+02 0.  0.
        -12    1    1    2    0    0 -0.51648107710E+01  0.17456754834E+02  0.43894292425E+01  0.18726469201E+02  0.00000000000E+00 0.  1.
         11    1    3    3    0    0 -0.25140725064E+02 -0.50422505178E+01  0.28737480300E+01  0.25801914173E+02  0.51100000000E-03 0. -1.
        -11    1    3    3    0    0 -0.48207029406E+01 -0.82227041848E+01  0.27022667732E+01  0.99072845384E+01  0.51100000000E-03 0.  1.
        -12    1    3    3    0    0  0.35126238775E+02 -0.41918001319E+01 -0.99654440457E+01  0.36752332087E+02  0.00000000000E+00 0.  1.
</event>
<event>
 7    1  0.3440346E-013  0.7246141E+02  0.7816164E-02  0.1226708E+00
        -11   -1    0    0    0    0  0.00000000000E+00  0.00000000000E+00  0.45593999997E+02  0.45594000000E+02  0.51100000000E-03 0.  1.
         11   -1    0    0    0    0 -0.00000000000E+00 -0.00000000000E+00 -0.45593999997E+02  0.45594000000E+02  0.51100000000E-03 0. -1.
    9900012    2    1    2    0    0 -0.33648260122E+01 -0.18348163518E+02  0.16455896034E+01  0.72461411316E+02  0.69999792901E+02 0.  0.
        -12    1    1    2    0    0  0.33648260122E+01  0.18348163518E+02 -0.16455896034E+01  0.18726588684E+02  0.00000000000E+00 0.  1.
         11    1    3    3    0    0 -0.16494907904E+02  0.10140312762E+02 -0.10710100134E+02  0.22127227002E+02  0.51100000000E-03 0. -1.
        -11    1    3    3    0    0  0.85544550928E+00  0.16965154746E+01 -0.10411306142E+02  0.10583253168E+02  0.51100000000E-03 0.  1.
        -12    1    3    3    0    0  0.12274636383E+02 -0.30184991755E+02  0.22766995879E+02  0.39750931146E+02  0.00000000000E+00 0.  1.
</event>
<event>
 7    1  0.3440346E-013  0.7246161E+02  0.7816164E-02  0.1226708E+00
        -11   -1    0    0    0    0  0.00000000000E+00  0.00000000000E+00  0.45593999997E+02  0.45594000000E+02  0.51100000000E-03 0.  1.
         11   -1    0    0    0    0 -0.00000000000E+00 -0.00000000000E+00 -0.45593999997E+02  0.45594000000E+02  0.51100000000E-03 0. -1.
    9900012    2    1    2    0    0  0.29191432839E+00 -0.11321958564E+02 -0.14913279576E+02  0.72461605061E+02  0.70000045290E+02 0.  0.
        -12    1    1    2    0    0 -0.29191432839E+00  0.11321958564E+02  0.14913279576E+02  0.18726394939E+02  0.00000000000E+00 0.  1.
         11    1    3    3    0    0  0.23410521109E+01 -0.30649161106E+01 -0.76234383941E+01  0.85434799093E+01  0.51100000000E-03 0. -1.
        -11    1    3    3    0    0  0.28770503992E+02  0.62428334417E+01 -0.32149706378E+01  0.29615045260E+02  0.51100000000E-03 0.  1.
        -12    1    3    3    0    0 -0.30819641774E+02 -0.14499875896E+02 -0.40748705441E+01  0.34303079891E+02  0.00000000000E+00 0.  1.
</event>
<event>
 7    1  0.3440346E-013  0.7246182E+02  0.7816164E-02  0.1226707E+00
        -11   -1    0    0    0    0  0.00000000000E+00  0.00000000000E+00  0.45593999997E+02  0.45594000000E+02  0.51100000000E-03 0. -1.
         11   -1    0    0    0    0 -0.00000000000E+00 -0.00000000000E+00 -0.45593999997E+02  0.45594000000E+02  0.51100000000E-03 0.  1.
    9900012    2    1    2    0    0 -0.97602216992E+01 -0.73496795442E+01 -0.14191199689E+02  0.72461818712E+02  0.70000323609E+02 0.  0.
        -12    1    1    2    0    0  0.97602216992E+01  0.73496795442E+01  0.14191199689E+02  0.18726181288E+02  0.00000000000E+00 0.  1.
         11    1    3    3    0    0  0.81159667011E+01  0.15346922037E+02  0.20834227285E+01  0.17485353357E+02  0.51100000000E-03 0.  1.
        -11    1    3    3    0    0 -0.30243963348E+02 -0.21754464423E+02 -0.39053691826E+01  0.37459390680E+02  0.51100000000E-03 0. -1.
         12    1    3    3    0    0  0.12367774948E+02 -0.94213715752E+00 -0.12369253235E+02  0.17517074675E+02  0.00000000000E+00 0. -1.
</event>
<event>
 7    1  0.3440346E-013  0.7246157E+02  0.7816164E-02  0.1226708E+00
        -11   -1    0    0    0    0  0.00000000000E+00  0.00000000000E+00  0.45593999997E+02  0.45594000000E+02  0.51100000000E-03 0. -1.
         11   -1    0    0    0    0 -0.00000000000E+00 -0.00000000000E+00 -0.45593999997E+02  0.45594000000E+02  0.51100000000E-03 0.  1.
    9900012    2    1    2    0    0  0.13251186222E+02  0.10550467900E+02  0.79857839252E+01  0.72461573376E+02  0.70000004014E+02 0.  0.
        -12    1    1    2    0    0 -0.13251186222E+02 -0.10550467900E+02 -0.79857839252E+01  0.18726426624E+02  0.00000000000E+00 0.  1.
         11    1    3    3    0    0  0.54271618076E+01  0.13901879496E+02 -0.45592301293E+01  0.15604580047E+02  0.51100000000E-03 0. -1.
        -11    1    3    3    0    0  0.60047916572E+01  0.12891652838E+02 -0.17562791104E+02  0.22598758093E+02  0.51100000000E-03 0.  1.
         12    1    3    3    0    0  0.18192327576E+01 -0.16243064433E+02  0.30107805158E+02  0.34258235236E+02  0.00000000000E+00 0. -1.
</event>
<event>
 7    1  0.3440346E-013  0.7246169E+02  0.7816164E-02  0.1226708E+00
        -11   -1    0    0    0    0  0.00000000000E+00  0.00000000000E+00  0.45593999997E+02  0.45594000000E+02  0.51100000000E-03 0. -1.
         11   -1    0    0    0    0 -0.00000000000E+00 -0.00000000000E+00 -0.45593999997E+02  0.45594000000E+02  0.51100000000E-03 0.  1.
    9900012    2    1    2    0    0  0.17884197919E+02 -0.48575699337E+01 -0.26896256527E+01  0.72461692114E+02  0.70000158693E+02 0.  0.
        -12    1    1    2    0    0 -0.17884197919E+02  0.48575699337E+01  0.26896256527E+01  0.18726307886E+02  0.00000000000E+00 0.  1.
         11    1    3    3    0    0 -0.94987799130E+01 -0.37295907259E+01 -0.19414853672E+02  0.21933381185E+02  0.51100000000E-03 0. -1.
        -11    1    3    3    0    0  0.11779163654E+02 -0.17129156827E+02 -0.26406885773E+01  0.20955427612E+02  0.51100000000E-03 0.  1.
        -12    1    3    3    0    0  0.15603814178E+02  0.16001177619E+02  0.19365916597E+02  0.29572883318E+02  0.00000000000E+00 0.  1.
</event>
<event>
 7    1  0.3440346E-013  0.7246122E+02  0.7816164E-02  0.1226709E+00
        -11   -1    0    0    0    0  0.00000000000E+00  0.00000000000E+00  0.45593999997E+02  0.45594000000E+02  0.51100000000E-03 0. -1.
         11   -1    0    0    0    0 -0.00000000000E+00 -0.00000000000E+00 -0.45593999997E+02  0.45594000000E+02  0.51100000000E-03 0.  1.
    9900012    2    1    2    0    0 -0.12636447848E+02 -0.13696525071E+02  0.18486529755E+01  0.72461224222E+02  0.69999549175E+02 0.  0.
        -12    1    1    2    0    0  0.12636447848E+02  0.13696525071E+02 -0.18486529755E+01  0.18726775778E+02  0.00000000000E+00 0.  1.
         11    1    3    3    0    0  0.38637465582E+01 -0.21417682529E+02  0.13984734188E+02  0.25869256907E+02  0.51100000000E-03 0. -1.
        -11    1    3    3    0    0  0.97734958086E+00 -0.15596832998E+02 -0.20825825322E+01  0.15765581564E+02  0.51100000000E-03 0.  1.
        -12    1    3    3    0    0 -0.17477543987E+02  0.23317990457E+02 -0.10053498680E+02  0.30826385751E+02  0.00000000000E+00 0.  1.
</event>
<event>
 7    1  0.3440346E-013  0.7246153E+02  0.7816164E-02  0.1226708E+00
        -11   -1    0    0    0    0  0.00000000000E+00  0.00000000000E+00  0.45593999997E+02  0.45594000000E+02  0.51100000000E-03 0. -1.
         11   -1    0    0    0    0 -0.00000000000E+00 -0.00000000000E+00 -0.45593999997E+02  0.45594000000E+02  0.51100000000E-03 0.  1.
    9900012    2    1    2    0    0 -0.15428111246E+02  0.64704499836E+01  0.84135254364E+01  0.72461528098E+02  0.69999945032E+02 0.  0.
        -12    1    1    2    0    0  0.15428111246E+02 -0.64704499836E+01 -0.84135254364E+01  0.18726471902E+02  0.00000000000E+00 0.  1.
         11    1    3    3    0    0 -0.30709194195E+02 -0.13849457443E+02  0.50602201560E+01  0.34065641163E+02  0.51100000000E-03 0. -1.
        -11    1    3    3    0    0  0.44702754764E+01  0.13176043744E+02  0.15363884603E+02  0.20727769825E+02  0.51100000000E-03 0.  1.
        -12    1    3    3    0    0  0.10810807473E+02  0.71438636830E+01 -0.12010579323E+02  0.17668117110E+02  0.00000000000E+00 0.  1.
</event>
<event>
 7    1  0.3440346E-013  0.7246160E+02  0.7816164E-02  0.1226708E+00
        -11   -1    0    0    0    0  0.00000000000E+00  0.00000000000E+00  0.45593999997E+02  0.45594000000E+02  0.51100000000E-03 0.  1.
         11   -1    0    0    0    0 -0.00000000000E+00 -0.00000000000E+00 -0.45593999997E+02  0.45594000000E+02  0.51100000000E-03 0. -1.
    9900012    2    1    2    0    0  0.53906995957E+01 -0.35504948947E+01 -0.17578751495E+02  0.72461597242E+02  0.70000035105E+02 0.  0.
        -12    1    1    2    0    0 -0.53906995957E+01  0.35504948947E+01  0.17578751495E+02  0.18726402758E+02  0.00000000000E+00 0.  1.
         11    1    3    3    0    0  0.28143688286E+01  0.14246441205E+01 -0.91627511089E+01  0.96905258329E+01  0.51100000000E-03 0.  1.
        -11    1    3    3    0    0  0.10740957885E+02  0.27021802936E+02 -0.21324031189E+01  0.29156357000E+02  0.51100000000E-03 0. -1.
        -12    1    3    3    0    0 -0.81646271184E+01 -0.31996941951E+02 -0.62835972670E+01  0.33614714409E+02  0.00000000000E+00 0.  1.
</event>
<event>
 7    1  0.3440346E-013  0.7246157E+02  0.7816164E-02  0.1226708E+00
        -11   -1    0    0    0    0  0.00000000000E+00  0.00000000000E+00  0.45593999997E+02  0.45594000000E+02  0.51100000000E-03 0. -1.
         11   -1    0    0    0    0 -0.00000000000E+00 -0.00000000000E+00 -0.45593999997E+02  0.45594000000E+02  0.51100000000E-03 0.  1.
    9900012    2    1    2    0    0 -0.81452869355E+01  0.70284849722E+01  0.15327550654E+02  0.72461571902E+02  0.70000002094E+02 0.  0.
        -12    1    1    2    0    0  0.81452869355E+01 -0.70284849722E+01 -0.15327550654E+02  0.18726428098E+02  0.00000000000E+00 0.  1.
         11    1    3    3    0    0 -0.11823547274E+02  0.11804562528E+02  0.14744385010E+02  0.22283196723E+02  0.51100000000E-03 0. -1.
        -11    1    3    3    0    0  0.14358303493E+01 -0.24410397060E+02  0.12124091271E+02  0.27293271750E+02  0.51100000000E-03 0.  1.
        -12    1    3    3    0    0  0.22424299892E+01  0.19634319504E+02 -0.11540925627E+02  0.22885103430E+02  0.00000000000E+00 0.  1.
</event>
<event>
 7    1  0.3440346E-013  0.7246154E+02  0.7816164E-02  0.1226708E+00
        -11   -1    0    0    0    0  0.00000000000E+00  0.00000000000E+00  0.45593999997E+02  0.45594000000E+02  0.51100000000E-03 0.  1.
         11   -1    0    0    0    0 -0.00000000000E+00 -0.00000000000E+00 -0.45593999997E+02  0.45594000000E+02  0.51100000000E-03 0. -1.
    9900012    2    1    2    0    0 -0.17882674912E+01 -0.16588991929E+02 -0.85022276164E+01  0.72461536685E+02  0.69999956218E+02 0.  0.
        -12    1    1    2    0    0  0.17882674912E+01  0.16588991929E+02  0.85022276164E+01  0.18726463315E+02  0.00000000000E+00 0.  1.
         11    1    3    3    0    0 -0.86500630656E+00 -0.80910751313E+00 -0.15137984881E+02  0.15184250966E+02  0.51100000000E-03 0. -1.
        -11    1    3    3    0    0 -0.24502777038E+02 -0.18620658924E+01 -0.84872543047E+01  0.25997824099E+02  0.51100000000E-03 0.  1.
        -12    1    3    3    0    0  0.23579515854E+02 -0.13917818524E+02  0.15123011569E+02  0.31279461621E+02  0.00000000000E+00 0.  1.
</event>
<event>
 7    1  0.3440346E-013  0.7246140E+02  0.7816164E-02  0.1226708E+00
        -11   -1    0    0    0    0  0.00000000000E+00  0.00000000000E+00  0.45593999997E+02  0.45594000000E+02  0.51100000000E-03 0. -1.
         11   -1    0    0    0    0 -0.00000000000E+00 -0.00000000000E+00 -0.45593999997E+02  0.45594000000E+02  0.51100000000E-03 0.  1.
    9900012    2    1    2    0    0 -0.17086916130E+02  0.61899699639E+01  0.45174036159E+01  0.72461404836E+02  0.69999784460E+02 0.  0.
        -12    1    1    2    0    0  0.17086916130E+02 -0.61899699639E+01 -0.45174036159E+01  0.18726595164E+02  0.00000000000E+00 0.  1.
         11    1    3    3    0    0 -0.18192855783E+02  0.18928480851E+02  0.38481888968E+01  0.26534429463E+02  0.51100000000E-03 0. -1.
        -11    1    3    3    0    0  0.17561071353E+02 -0.64460272898E+01 -0.13704851547E+02  0.23189770397E+02  0.51100000000E-03 0.  1.
         12    1    3    3    0    0 -0.16455131701E+02 -0.62924835973E+01  0.14374066266E+02  0.22737204976E+02  0.00000000000E+00 0. -1.
</event>
<event>
 7    1  0.3440346E-013  0.7246157E+02  0.7816164E-02  0.1226708E+00
        -11   -1    0    0    0    0  0.00000000000E+00  0.00000000000E+00  0.45593999997E+02  0.45594000000E+02  0.51100000000E-03 0. -1.
         11   -1    0    0    0    0 -0.00000000000E+00 -0.00000000000E+00 -0.45593999997E+02  0.45594000000E+02  0.51100000000E-03 0.  1.
    9900012    2    1    2    0    0 -0.11918891556E+02 -0.78013232030E+01  0.12155604172E+02  0.72461565944E+02  0.69999994333E+02 0.  0.
        -12    1    1    2    0    0  0.11918891556E+02  0.78013232030E+01 -0.12155604172E+02  0.18726434056E+02  0.00000000000E+00 0.  1.
         11    1    3    3    0    0 -0.23433319700E+01 -0.22567782726E+02  0.19452893282E+02  0.29886637134E+02  0.51100000000E-03 0. -1.
        -11    1    3    3    0    0  0.11100917044E+02  0.10780422480E+02  0.71418578256E+01  0.17042711097E+02  0.51100000000E-03 0.  1.
         12    1    3    3    0    0 -0.20676476630E+02  0.39860370431E+01 -0.14439146936E+02  0.25532217714E+02  0.00000000000E+00 0. -1.
</event>
<event>
 7    1  0.3440346E-013  0.7246151E+02  0.7816164E-02  0.1226708E+00
        -11   -1    0    0    0    0  0.00000000000E+00  0.00000000000E+00  0.45593999997E+02  0.45594000000E+02  0.51100000000E-03 0.  1.
         11   -1    0    0    0    0 -0.00000000000E+00 -0.00000000000E+00 -0.45593999997E+02  0.45594000000E+02  0.51100000000E-03 0. -1.
    9900012    2    1    2    0    0 -0.15951463147E+02  0.74305051941E+01 -0.64046760299E+01  0.72461509165E+02  0.69999920367E+02 0.  0.
        -12    1    1    2    0    0  0.15951463147E+02 -0.74305051941E+01  0.64046760299E+01  0.18726490835E+02  0.00000000000E+00 0.  1.
         11    1    3    3    0    0  0.12380146860E+02  0.28802860221E+01  0.11911159432E+02  0.17419523620E+02  0.51100000000E-03 0. -1.
        -11    1    3    3    0    0 -0.51323702194E+01  0.15736286228E+02  0.78568780546E+01  0.18322184950E+02  0.51100000000E-03 0.  1.
         12    1    3    3    0    0 -0.23199239788E+02 -0.11186067056E+02 -0.26172713517E+02  0.36719800595E+02  0.00000000000E+00 0. -1.
</event>
<event>
 7    1  0.3440346E-013  0.7246156E+02  0.7816164E-02  0.1226708E+00
        -11   -1    0    0    0    0  0.00000000000E+00  0.00000000000E+00  0.45593999997E+02  0.45594000000E+02  0.51100000000E-03 0. -1.
         11   -1    0    0    0    0 -0.00000000000E+00 -0.00000000000E+00 -0.45593999997E+02  0.45594000000E+02  0.51100000000E-03 0.  1.
    9900012    2    1    2    0    0 -0.10329117044E+02 -0.46030774368E+01  0.14926499844E+02  0.72461564717E+02  0.69999992734E+02 0.  0.
        -12    1    1    2    0    0  0.10329117044E+02  0.46030774368E+01 -0.14926499844E+02  0.18726435283E+02  0.00000000000E+00 0.  1.
         11    1    3    3    0    0 -0.16115143992E+02 -0.24414977845E+02  0.12608383725E+02  0.31855303318E+02  0.51100000000E-03 0. -1.
        -11    1    3    3    0    0 -0.41935377743E+00  0.20571832654E+02 -0.12809611022E+02  0.24237621400E+02  0.51100000000E-03 0.  1.
         12    1    3    3    0    0  0.62053807251E+01 -0.75993224587E+00  0.15127727141E+02  0.16368639999E+02  0.00000000000E+00 0. -1.
</event>
<event>
 7    1  0.3440346E-013  0.7246148E+02  0.7816164E-02  0.1226708E+00
        -11   -1    0    0    0    0  0.00000000000E+00  0.00000000000E+00  0.45593999997E+02  0.45594000000E+02  0.51100000000E-03 0. -1.
         11   -1    0    0    0    0 -0.00000000000E+00 -0.00000000000E+00 -0.45593999997E+02  0.45594000000E+02  0.51100000000E-03 0.  1.
    9900012    2    1    2    0    0 -0.11944897041E+02  0.11118135580E+02 -0.91863454789E+01  0.72461482776E+02  0.69999885991E+02 0.  0.
        -12    1    1    2    0    0  0.11944897041E+02 -0.11118135580E+02  0.91863454789E+01  0.18726517224E+02  0.00000000000E+00 0.  1.
         11    1    3    3    0    0 -0.30677353051E+02  0.19559073103E+02 -0.36781519252E+01  0.36567555739E+02  0.51100000000E-03 0. -1.
        -11    1    3    3    0    0 -0.22139486595E+01 -0.73275190113E+01  0.78988347927E+01  0.10999349748E+02  0.51100000000E-03 0.  1.
        -12    1    3    3    0    0  0.20946404669E+02 -0.11134185120E+01 -0.13407028346E+02  0.24894577290E+02  0.00000000000E+00 0.  1.
</event>
<event>
 7    1  0.3440346E-013  0.7246137E+02  0.7816164E-02  0.1226709E+00
        -11   -1    0    0    0    0  0.00000000000E+00  0.00000000000E+00  0.45593999997E+02  0.45594000000E+02  0.51100000000E-03 0.  1.
         11   -1    0    0    0    0 -0.00000000000E+00 -0.00000000000E+00 -0.45593999997E+02  0.45594000000E+02  0.51100000000E-03 0. -1.
    9900012    2    1    2    0    0 -0.18485646738E+02  0.23866144985E+01 -0.18087461715E+01  0.72461371184E+02  0.69999740622E+02 0.  0.
        -12    1    1    2    0    0  0.18485646738E+02 -0.23866144985E+01  0.18087461715E+01  0.18726628816E+02  0.00000000000E+00 0.  1.
         11    1    3    3    0    0 -0.23918835989E+01 -0.97629653914E+01 -0.65418445936E+01  0.11993011771E+02  0.51100000000E-03 0. -1.
        -11    1    3    3    0    0  0.17786922103E+02 -0.74507717886E+01  0.86413482281E+01  0.21132001741E+02  0.51100000000E-03 0.  1.
         12    1    3    3    0    0 -0.33880685242E+02  0.19600351679E+02 -0.39082498060E+01  0.39336357672E+02  0.00000000000E+00 0. -1.
</event>
<event>
 7    1  0.3440346E-013  0.7246157E+02  0.7816164E-02  0.1226708E+00
        -11   -1    0    0    0    0  0.00000000000E+00  0.00000000000E+00  0.45593999997E+02  0.45594000000E+02  0.51100000000E-03 0.  1.
         11   -1    0    0    0    0 -0.00000000000E+00 -0.00000000000E+00 -0.45593999997E+02  0.45594000000E+02  0.51100000000E-03 0. -1.
    9900012    2    1    2    0    0 -0.17936851994E+02  0.72251079041E+00 -0.53316644224E+01  0.72461566095E+02  0.69999994529E+02 0.  0.
        -12    1    1    2    0    0  0.17936851994E+02 -0.72251079041E+00  0.53316644224E+01  0.18726433905E+02  0.00000000000E+00 0.  1.
         11    1    3    3    0    0  0.11489594014E+02 -0.12081843916E+02 -0.61065692505E+00  0.16683963113E+02  0.51100000000E-03 0. -1.
        -11    1    3    3    0    0 -0.73118261318E+00  0.13411097748E+02 -0.19356500675E+02  0.23559844852E+02  0.51100000000E-03 0.  1.
         12    1    3    3    0    0 -0.28695263394E+02 -0.60674304136E+00  0.14635493177E+02  0.32217758130E+02  0.00000000000E+00 0. -1.
</event>
<event>
 7    1  0.3440346E-013  0.7246154E+02  0.7816164E-02  0.1226708E+00
        -11   -1    0    0    0    0  0.00000000000E+00  0.00000000000E+00  0.45593999997E+02  0.45594000000E+02  0.51100000000E-03 0.  1.
         11   -1    0    0    0    0 -0.00000000000E+00 -0.00000000000E+00 -0.45593999997E+02  0.45594000000E+02  0.51100000000E-03 0. -1.
    9900012    2    1    2    0    0  0.93258702210E+01  0.79652139118E+01  0.14151466022E+02  0.72461535341E+02  0.69999954467E+02 0.  0.
        -12    1    1    2    0    0 -0.93258702210E+01 -0.79652139118E+01 -0.14151466022E+02  0.18726464659E+02  0.00000000000E+00 0.  1.
         11    1    3    3    0    0 -0.29348664374E+01  0.14942099297E+02  0.37535884122E+01  0.15683405199E+02  0.51100000000E-03 0. -1.
        -11    1    3    3    0    0  0.15037886033E+02  0.22011916104E+02  0.60179678599E+01  0.27329076171E+02  0.51100000000E-03 0.  1.
         12    1    3    3    0    0 -0.27771493748E+01 -0.28988801489E+02  0.43799097501E+01  0.29449053972E+02  0.00000000000E+00 0. -1.
</event>
<event>
 7    1  0.3440346E-013  0.7246166E+02  0.7816164E-02  0.1226708E+00
        -11   -1    0    0    0    0  0.00000000000E+00  0.00000000000E+00  0.45593999997E+02  0.45594000000E+02  0.51100000000E-03 0.  1.
         11   -1    0    0    0    0 -0.00000000000E+00 -0.00000000000E+00 -0.45593999997E+02  0.45594000000E+02  0.51100000000E-03 0. -1.
    9900012    2    1    2    0    0 -0.12291037188E+02 -0.65478626282E+01 -0.12519257880E+02  0.72461657110E+02  0.70000113094E+02 0.  0.
        -12    1    1    2    0    0  0.12291037188E+02  0.65478626282E+01  0.12519257880E+02  0.18726342890E+02  0.00000000000E+00 0.  1.
         11    1    3    3    0    0  0.14052452421E+02 -0.27581069558E-01 -0.29012094567E+02  0.32236218935E+02  0.51100000000E-03 0.  1.
        -11    1    3    3    0    0 -0.20466999941E+02 -0.13364840766E+02  0.39283411831E+01  0.24757805234E+02  0.51100000000E-03 0. -1.
        -12    1    3    3    0    0 -0.58764896682E+01  0.68445592074E+01  0.12564495504E+02  0.15467632942E+02  0.00000000000E+00 0.  1.
</event>
<event>
 7    1  0.3440346E-013  0.7246149E+02  0.7816164E-02  0.1226708E+00
        -11   -1    0    0    0    0  0.00000000000E+00  0.00000000000E+00  0.45593999997E+02  0.45594000000E+02  0.51100000000E-03 0.  1.
         11   -1    0    0    0    0 -0.00000000000E+00 -0.00000000000E+00 -0.45593999997E+02  0.45594000000E+02  0.51100000000E-03 0. -1.
    9900012    2    1    2    0    0 -0.98147851799E+01  0.14975606976E+02 -0.54848145076E+01  0.72461494650E+02  0.69999901459E+02 0.  0.
        -12    1    1    2    0    0  0.98147851799E+01 -0.14975606976E+02  0.54848145076E+01  0.18726505350E+02  0.00000000000E+00 0.  1.
         11    1    3    3    0    0  0.98132540687E+01 -0.11342345572E+02  0.97362570651E+01  0.17881371882E+02  0.51100000000E-03 0. -1.
        -11    1    3    3    0    0 -0.88425844564E+00 -0.10789622116E+02 -0.36958539818E+01  0.11439282990E+02  0.51100000000E-03 0.  1.
         12    1    3    3    0    0 -0.18743780803E+02  0.37107574664E+02 -0.11525217591E+02  0.43140839778E+02  0.00000000000E+00 0. -1.
</event>
<event>
 7    1  0.3440346E-013  0.7246146E+02  0.7816164E-02  0.1226708E+00
        -11   -1    0    0    0    0  0.00000000000E+00  0.00000000000E+00  0.45593999997E+02  0.45594000000E+02  0.51100000000E-03 0. -1.
         11   -1    0    0    0    0 -0.00000000000E+00 -0.00000000000E+00 -0.45593999997E+02  0.45594000000E+02  0.51100000000E-03 0.  1.
    9900012    2    1    2    0    0 -0.84923921903E+01  0.14556336289E+02  0.81655077335E+01  0.72461463539E+02  0.69999860931E+02 0.  0.
        -12    1    1    2    0    0  0.84923921903E+01 -0.14556336289E+02 -0.81655077335E+01  0.18726536461E+02  0.00000000000E+00 0.  1.
         11    1    3    3    0    0  0.20666382705E+02  0.42559835777E+01 -0.10913807800E+02  0.23755504020E+02  0.51100000000E-03 0. -1.
        -11    1    3    3    0    0  0.37856135313E-01 -0.52894980553E+00 -0.76493448699E+01  0.76677048837E+01  0.51100000000E-03 0.  1.
        -12    1    3    3    0    0 -0.29196631030E+02  0.10829302517E+02  0.26728660403E+02  0.41038254635E+02  0.00000000000E+00 0.  1.
</event>
<event>
 7    1  0.3440346E-013  0.7246154E+02  0.7816164E-02  0.1226708E+00
        -11   -1    0    0    0    0  0.00000000000E+00  0.00000000000E+00  0.45593999997E+02  0.45594000000E+02  0.51100000000E-03 0.  1.
         11   -1    0    0    0    0 -0.00000000000E+00 -0.00000000000E+00 -0.45593999997E+02  0.45594000000E+02  0.51100000000E-03 0. -1.
    9900012    2    1    2    0    0 -0.14004693914E+02  0.98571897313E+01 -0.75752563409E+01  0.72461544125E+02  0.69999965909E+02 0.  0.
        -12    1    1    2    0    0  0.14004693914E+02 -0.98571897313E+01  0.75752563409E+01  0.18726455875E+02  0.00000000000E+00 0.  1.
         11    1    3    3    0    0  0.10591841867E+02  0.10910977505E+02 -0.11925812168E+02  0.19325153049E+02  0.51100000000E-03 0. -1.
        -11    1    3    3    0    0  0.10686108828E+02  0.46585039976E+01 -0.92629879535E+01  0.14889510652E+02  0.51100000000E-03 0.  1.
        -12    1    3    3    0    0 -0.35282644609E+02 -0.57122917707E+01  0.13613543781E+02  0.38246880423E+02  0.00000000000E+00 0.  1.
</event>
<event>
 7    1  0.3440346E-013  0.7246151E+02  0.7816164E-02  0.1226708E+00
        -11   -1    0    0    0    0  0.00000000000E+00  0.00000000000E+00  0.45593999997E+02  0.45594000000E+02  0.51100000000E-03 0.  1.
         11   -1    0    0    0    0 -0.00000000000E+00 -0.00000000000E+00 -0.45593999997E+02  0.45594000000E+02  0.51100000000E-03 0. -1.
    9900012    2    1    2    0    0  0.12266846141E+02 -0.99396802154E+01 -0.10070178109E+02  0.72461514901E+02  0.69999927839E+02 0.  0.
        -12    1    1    2    0    0 -0.12266846141E+02  0.99396802154E+01  0.10070178109E+02  0.18726485099E+02  0.00000000000E+00 0.  1.
         11    1    3    3    0    0  0.61202841782E+01 -0.25130736097E+02 -0.83505029235E+01  0.27179821091E+02  0.51100000000E-03 0. -1.
        -11    1    3    3    0    0  0.11467961857E+02 -0.99531446717E+01 -0.10113605457E+02  0.18244567784E+02  0.51100000000E-03 0.  1.
        -12    1    3    3    0    0 -0.53213998939E+01  0.25144200554E+02  0.83939302718E+01  0.27037126026E+02  0.00000000000E+00 0.  1.
</event>
<event>
 7    1  0.3440346E-013  0.7246145E+02  0.7816164E-02  0.1226708E+00
        -11   -1    0    0    0    0  0.00000000000E+00  0.00000000000E+00  0.45593999997E+02  0.45594000000E+02  0.51100000000E-03 0. -1.
         11   -1    0    0    0    0 -0.00000000000E+00 -0.00000000000E+00 -0.45593999997E+02  0.45594000000E+02  0.51100000000E-03 0.  1.
    9900012    2    1    2    0    0 -0.14773081277E+02 -0.10125749626E+02  0.54688921279E+01  0.72461454216E+02  0.69999848786E+02 0.  0.
        -12    1    1    2    0    0  0.14773081277E+02  0.10125749626E+02 -0.54688921279E+01  0.18726545784E+02  0.00000000000E+00 0.  1.
         11    1    3    3    0    0 -0.72158355962E+00 -0.34232234489E+01 -0.95179258171E+01  0.10140515457E+02  0.51100000000E-03 0. -1.
        -11    1    3    3    0    0 -0.34374660666E+02 -0.90953964570E+01 -0.21600410599E+01  0.35623156938E+02  0.51100000000E-03 0.  1.
         12    1    3    3    0    0  0.20323162948E+02  0.23928702795E+01  0.17146859005E+02  0.26697781820E+02  0.00000000000E+00 0. -1.
</event>
<event>
 7    1  0.3440346E-013  0.7246158E+02  0.7816164E-02  0.1226708E+00
        -11   -1    0    0    0    0  0.00000000000E+00  0.00000000000E+00  0.45593999997E+02  0.45594000000E+02  0.51100000000E-03 0.  1.
         11   -1    0    0    0    0 -0.00000000000E+00 -0.00000000000E+00 -0.45593999997E+02  0.45594000000E+02  0.51100000000E-03 0. -1.
    9900012    2    1    2    0    0 -0.10599124650E+02  0.98210390025E+01 -0.11911534991E+02  0.72461577056E+02  0.70000008808E+02 0.  0.
        -12    1    1    2    0    0  0.10599124650E+02 -0.98210390025E+01  0.11911534991E+02  0.18726422944E+02  0.00000000000E+00 0.  1.
         11    1    3    3    0    0 -0.13708644704E+02  0.44708565418E+01  0.47133056713E+01  0.15170060924E+02  0.51100000000E-03 0. -1.
        -11    1    3    3    0    0  0.62427427708E+01 -0.15176947018E+01  0.19424965368E+02  0.20459826840E+02  0.51100000000E-03 0.  1.
         12    1    3    3    0    0 -0.31332227173E+01  0.68678771625E+01 -0.36049806030E+02  0.36831689292E+02  0.00000000000E+00 0. -1.
</event>
<event>
 7    1  0.3440346E-013  0.7246163E+02  0.7816164E-02  0.1226708E+00
        -11   -1    0    0    0    0  0.00000000000E+00  0.00000000000E+00  0.45593999997E+02  0.45594000000E+02  0.51100000000E-03 0. -1.
         11   -1    0    0    0    0 -0.00000000000E+00 -0.00000000000E+00 -0.45593999997E+02  0.45594000000E+02  0.51100000000E-03 0.  1.
    9900012    2    1    2    0    0 -0.14874423892E+02  0.11360217708E+02  0.61155551037E+00  0.72461627350E+02  0.70000074325E+02 0.  0.
        -12    1    1    2    0    0  0.14874423892E+02 -0.11360217708E+02 -0.61155551037E+00  0.18726372650E+02  0.00000000000E+00 0.  1.
         11    1    3    3    0    0 -0.20486672126E+02  0.54194471338E+01  0.92683683841E+01  0.23129565383E+02  0.51100000000E-03 0. -1.
        -11    1    3    3    0    0 -0.18754170034E+02  0.49167159560E+01 -0.14552204035E+02  0.24241692020E+02  0.51100000000E-03 0.  1.
        -12    1    3    3    0    0  0.24366418269E+02  0.10240546182E+01  0.58953911612E+01  0.25090369947E+02  0.00000000000E+00 0.  1.
</event>
<event>
 7    1  0.3440346E-013  0.7246144E+02  0.7816164E-02  0.1226708E+00
        -11   -1    0    0    0    0  0.00000000000E+00  0.00000000000E+00  0.45593999997E+02  0.45594000000E+02  0.51100000000E-03 0.  1.
         11   -1    0    0    0    0 -0.00000000000E+00 -0.00000000000E+00 -0.45593999997E+02  0.45594000000E+02  0.51100000000E-03 0. -1.
    9900012    2    1    2    0    0 -0.46091557840E+01 -0.23761640743E+01 -0.17994262102E+02  0.72461442886E+02  0.69999834027E+02 0.  0.
        -12    1    1    2    0    0  0.46091557840E+01  0.23761640743E+01  0.17994262102E+02  0.18726557114E+02  0.00000000000E+00 0.  1.
         11    1    3    3    0    0 -0.31239289900E+01  0.16095804311E+02  0.34232486465E+01  0.16749700902E+02  0.51100000000E-03 0. -1.
        -11    1    3    3    0    0  0.20631096335E+02 -0.90391747363E+00 -0.66301103501E+00  0.20661529146E+02  0.51100000000E-03 0.  1.
         12    1    3    3    0    0 -0.22116323129E+02 -0.17568050912E+02 -0.20754499714E+02  0.35050212837E+02  0.00000000000E+00 0. -1.
</event>
<event>
 7    1  0.3440346E-013  0.7246158E+02  0.7816164E-02  0.1226708E+00
        -11   -1    0    0    0    0  0.00000000000E+00  0.00000000000E+00  0.45593999997E+02  0.45594000000E+02  0.51100000000E-03 0.  1.
         11   -1    0    0    0    0 -0.00000000000E+00 -0.00000000000E+00 -0.45593999997E+02  0.45594000000E+02  0.51100000000E-03 0. -1.
    9900012    2    1    2    0    0  0.69470333882E+01 -0.15671831481E+01 -0.17319399181E+02  0.72461576852E+02  0.70000008543E+02 0.  0.
        -12    1    1    2    0    0 -0.69470333882E+01  0.15671831481E+01  0.17319399181E+02  0.18726423148E+02  0.00000000000E+00 0.  1.
         11    1    3    3    0    0  0.26867141826E+02 -0.24511060826E+01 -0.21302806998E+02  0.34375293703E+02  0.51100000000E-03 0. -1.
        -11    1    3    3    0    0  0.44983166928E+01 -0.10058578559E+02 -0.95614996671E-01  0.11019028913E+02  0.51100000000E-03 0.  1.
        -12    1    3    3    0    0 -0.24418425130E+02  0.10942501494E+02  0.40790228135E+01  0.27067254236E+02  0.00000000000E+00 0.  1.
</event>
<event>
 7    1  0.3440346E-013  0.7246159E+02  0.7816164E-02  0.1226708E+00
        -11   -1    0    0    0    0  0.00000000000E+00  0.00000000000E+00  0.45593999997E+02  0.45594000000E+02  0.51100000000E-03 0.  1.
         11   -1    0    0    0    0 -0.00000000000E+00 -0.00000000000E+00 -0.45593999997E+02  0.45594000000E+02  0.51100000000E-03 0. -1.
    9900012    2    1    2    0    0  0.59940302390E+01  0.17470254642E+02  0.30887319302E+01  0.72461589220E+02  0.70000024654E+02 0.  0.
        -12    1    1    2    0    0 -0.59940302390E+01 -0.17470254642E+02 -0.30887319302E+01  0.18726410780E+02  0.00000000000E+00 0.  1.
         11    1    3    3    0    0  0.25167712186E+02  0.11071614212E+02  0.70128511174E+01  0.28375596187E+02  0.51100000000E-03 0. -1.
        -11    1    3    3    0    0 -0.12621808409E+02  0.20549824973E+02 -0.11535410907E+02  0.26733332358E+02  0.51100000000E-03 0.  1.
        -12    1    3    3    0    0 -0.65518735376E+01 -0.14151184543E+02  0.76112917195E+01  0.17352660674E+02  0.00000000000E+00 0.  1.
</event>
<event>
 7    1  0.3440346E-013  0.7246152E+02  0.7816164E-02  0.1226708E+00
        -11   -1    0    0    0    0  0.00000000000E+00  0.00000000000E+00  0.45593999997E+02  0.45594000000E+02  0.51100000000E-03 0. -1.
         11   -1    0    0    0    0 -0.00000000000E+00 -0.00000000000E+00 -0.45593999997E+02  0.45594000000E+02  0.51100000000E-03 0.  1.
    9900012    2    1    2    0    0  0.11059552914E+02 -0.12531122358E+02  0.84462070523E+01  0.72461517368E+02  0.69999931053E+02 0.  0.
        -12    1    1    2    0    0 -0.11059552914E+02  0.12531122358E+02 -0.84462070523E+01  0.18726482632E+02  0.00000000000E+00 0.  1.
         11    1    3    3    0    0 -0.42317175434E+00  0.48487532990E+01  0.24171749373E+02  0.24656904731E+02  0.51100000000E-03 0. -1.
        -11    1    3    3    0    0  0.71385368472E+01  0.31429922302E+01  0.11214612086E+02  0.13660330632E+02  0.51100000000E-03 0.  1.
        -12    1    3    3    0    0  0.43441878216E+01 -0.20522867887E+02 -0.26940154407E+02  0.34144282005E+02  0.00000000000E+00 0.  1.
</event>
<event>
 7    1  0.3440346E-013  0.7246157E+02  0.7816164E-02  0.1226708E+00
        -11   -1    0    0    0    0  0.00000000000E+00  0.00000000000E+00  0.45593999997E+02  0.45594000000E+02  0.51100000000E-03 0.  1.
         11   -1    0    0    0    0 -0.00000000000E+00 -0.00000000000E+00 -0.45593999997E+02  0.45594000000E+02  0.51100000000E-03 0. -1.
    9900012    2    1    2    0    0  0.12225517440E+02  0.53096285314E+00 -0.14175119913E+02  0.72461568872E+02  0.69999998147E+02 0.  0.
        -12    1    1    2    0    0 -0.12225517440E+02 -0.53096285314E+00  0.14175119913E+02  0.18726431128E+02  0.00000000000E+00 0.  1.
         11    1    3    3    0    0  0.59924679905E+01 -0.99023738451E+01 -0.27883802485E+02  0.30190613138E+02  0.51100000000E-03 0. -1.
        -11    1    3    3    0    0  0.47661627905E+01  0.59473663999E+01 -0.13042777747E+02  0.15106340604E+02  0.51100000000E-03 0.  1.
        -12    1    3    3    0    0  0.14668866592E+01  0.44859702983E+01  0.26751460318E+02  0.27164615130E+02  0.00000000000E+00 0.  1.
</event>
<event>
 7    1  0.3440346E-013  0.7246154E+02  0.7816164E-02  0.1226708E+00
        -11   -1    0    0    0    0  0.00000000000E+00  0.00000000000E+00  0.45593999997E+02  0.45594000000E+02  0.51100000000E-03 0. -1.
         11   -1    0    0    0    0 -0.00000000000E+00 -0.00000000000E+00 -0.45593999997E+02  0.45594000000E+02  0.51100000000E-03 0.  1.
    9900012    2    1    2    0    0  0.16315751194E+02 -0.62303483463E+01 -0.67571765424E+01  0.72461537110E+02  0.69999956771E+02 0.  0.
        -12    1    1    2    0    0 -0.16315751194E+02  0.62303483463E+01  0.67571765424E+01  0.18726462890E+02  0.00000000000E+00 0.  1.
         11    1    3    3    0    0 -0.56648190450E+01  0.30858510881E+00  0.79142210424E+01  0.97375712861E+01  0.51100000000E-03 0. -1.
        -11    1    3    3    0    0 -0.18009928840E+02 -0.32619778363E+01 -0.13211221862E+02  0.22572869103E+02  0.51100000000E-03 0.  1.
         12    1    3    3    0    0  0.39990499079E+02 -0.32769556188E+01 -0.14601757232E+01  0.40151096721E+02  0.00000000000E+00 0. -1.
</event>
<event>
 7    1  0.3440346E-013  0.7246157E+02  0.7816164E-02  0.1226708E+00
        -11   -1    0    0    0    0  0.00000000000E+00  0.00000000000E+00  0.45593999997E+02  0.45594000000E+02  0.51100000000E-03 0. -1.
         11   -1    0    0    0    0 -0.00000000000E+00 -0.00000000000E+00 -0.45593999997E+02  0.45594000000E+02  0.51100000000E-03 0.  1.
    9900012    2    1    2    0    0 -0.67881769761E+01  0.11335310918E+02  0.13270660362E+02  0.72461573574E+02  0.70000004272E+02 0.  0.
        -12    1    1    2    0    0  0.67881769761E+01 -0.11335310918E+02 -0.13270660362E+02  0.18726426426E+02  0.00000000000E+00 0.  1.
         11    1    3    3    0    0 -0.42579470458E+00  0.24039673169E+01  0.24492726632E+02  0.24614102018E+02  0.51100000000E-03 0. -1.
        -11    1    3    3    0    0 -0.36568192505E+01 -0.14248711422E+02  0.87625959879E+01  0.17122534653E+02  0.51100000000E-03 0.  1.
        -12    1    3    3    0    0 -0.27055630210E+01  0.23180055023E+02 -0.19984662259E+02  0.30724936903E+02  0.00000000000E+00 0.  1.
</event>
<event>
 7    1  0.3440346E-013  0.7246098E+02  0.7816164E-02  0.1226710E+00
        -11   -1    0    0    0    0  0.00000000000E+00  0.00000000000E+00  0.45593999997E+02  0.45594000000E+02  0.51100000000E-03 0.  1.
         11   -1    0    0    0    0 -0.00000000000E+00 -0.00000000000E+00 -0.45593999997E+02  0.45594000000E+02  0.51100000000E-03 0. -1.
    9900012    2    1    2    0    0 -0.18029641036E+02  0.47125282424E+01  0.18508269135E+01  0.72460975714E+02  0.69999225445E+02 0.  0.
        -12    1    1    2    0    0  0.18029641036E+02 -0.47125282424E+01 -0.18508269135E+01  0.18727024286E+02  0.00000000000E+00 0.  1.
         11    1    3    3    0    0  0.95552462853E+01  0.34184254046E+01 -0.62202303390E+01  0.11902925252E+02  0.51100000000E-03 0. -1.
        -11    1    3    3    0    0  0.10322576353E+02 -0.85630417044E+01  0.15705419660E+02  0.20652880495E+02  0.51100000000E-03 0.  1.
        -12    1    3    3    0    0 -0.37907463674E+02  0.98571445422E+01 -0.76343624075E+01  0.39905169967E+02  0.00000000000E+00 0.  1.
</event>
<event>
 7    1  0.3440346E-013  0.7246147E+02  0.7816164E-02  0.1226708E+00
        -11   -1    0    0    0    0  0.00000000000E+00  0.00000000000E+00  0.45593999997E+02  0.45594000000E+02  0.51100000000E-03 0.  1.
         11   -1    0    0    0    0 -0.00000000000E+00 -0.00000000000E+00 -0.45593999997E+02  0.45594000000E+02  0.51100000000E-03 0. -1.
    9900012    2    1    2    0    0 -0.55372526818E+01 -0.17291753614E+02 -0.45844165445E+01  0.72461473751E+02  0.69999874234E+02 0.  0.
        -12    1    1    2    0    0  0.55372526818E+01  0.17291753614E+02  0.45844165445E+01  0.18726526249E+02  0.00000000000E+00 0.  1.
         11    1    3    3    0    0 -0.99756686878E+00 -0.29956946983E+01 -0.16470871268E+01  0.35612108401E+01  0.51100000000E-03 0. -1.
        -11    1    3    3    0    0  0.42422827973E+01 -0.28194599393E+02  0.24049263424E+02  0.37300126941E+02  0.51100000000E-03 0.  1.
         12    1    3    3    0    0 -0.87819686104E+01  0.13898540477E+02 -0.26986592842E+02  0.31600135970E+02  0.00000000000E+00 0. -1.
</event>
<event>
 7    1  0.3440346E-013  0.7246166E+02  0.7816164E-02  0.1226708E+00
        -11   -1    0    0    0    0  0.00000000000E+00  0.00000000000E+00  0.45593999997E+02  0.45594000000E+02  0.51100000000E-03 0.  1.
         11   -1    0    0    0    0 -0.00000000000E+00 -0.00000000000E+00 -0.45593999997E+02  0.45594000000E+02  0.51100000000E-03 0. -1.
    9900012    2    1    2    0    0 -0.14678243989E+02 -0.37181325929E+01 -0.11018185092E+02  0.72461661348E+02  0.70000118615E+02 0.  0.
        -12    1    1    2    0    0  0.14678243989E+02  0.37181325929E+01  0.11018185092E+02  0.18726338652E+02  0.00000000000E+00 0.  1.
         11    1    3    3    0    0  0.78080830885E+01 -0.21233013222E+02 -0.25270342742E+01  0.22763851047E+02  0.51100000000E-03 0. -1.
        -11    1    3    3    0    0  0.50441679933E+01 -0.87889436086E+01 -0.54345039934E+01  0.11498825784E+02  0.51100000000E-03 0.  1.
        -12    1    3    3    0    0 -0.27530495071E+02  0.26303824237E+02 -0.30566468243E+01  0.38198984517E+02  0.00000000000E+00 0.  1.
</event>
<event>
 7    1  0.3440346E-013  0.7246152E+02  0.7816164E-02  0.1226708E+00
        -11   -1    0    0    0    0  0.00000000000E+00  0.00000000000E+00  0.45593999997E+02  0.45594000000E+02  0.51100000000E-03 0.  1.
         11   -1    0    0    0    0 -0.00000000000E+00 -0.00000000000E+00 -0.45593999997E+02  0.45594000000E+02  0.51100000000E-03 0. -1.
    9900012    2    1    2    0    0  0.15065153651E+02  0.30249768951E+01 -0.10703826139E+02  0.72461515179E+02  0.69999928202E+02 0.  0.
        -12    1    1    2    0    0 -0.15065153651E+02 -0.30249768951E+01  0.10703826139E+02  0.18726484821E+02  0.00000000000E+00 0.  1.
         11    1    3    3    0    0  0.44914309926E+01  0.74611986451E+00  0.17973024203E+02  0.18540745575E+02  0.51100000000E-03 0. -1.
        -11    1    3    3    0    0  0.19635430399E+01  0.22642995412E+02 -0.19630996069E+02  0.30032261810E+02  0.51100000000E-03 0.  1.
         12    1    3    3    0    0  0.86101796184E+01 -0.20364138381E+02 -0.90458542730E+01  0.23888507794E+02  0.00000000000E+00 0. -1.
</event>
<event>
 7    1  0.3440346E-013  0.7246155E+02  0.7816164E-02  0.1226708E+00
        -11   -1    0    0    0    0  0.00000000000E+00  0.00000000000E+00  0.45593999997E+02  0.45594000000E+02  0.51100000000E-03 0. -1.
         11   -1    0    0    0    0 -0.00000000000E+00 -0.00000000000E+00 -0.45593999997E+02  0.45594000000E+02  0.51100000000E-03 0.  1.
    9900012    2    1    2    0    0 -0.15497109184E+02 -0.65676612187E+01  0.82088565252E+01  0.72461550993E+02  0.69999974856E+02 0.  0.
        -12    1    1    2    0    0  0.15497109184E+02  0.65676612187E+01 -0.82088565252E+01  0.18726449007E+02  0.00000000000E+00 0.  1.
         11    1    3    3    0    0 -0.28403678399E+02  0.15193470427E+02  0.38004912222E+01  0.32435385369E+02  0.51100000000E-03 0. -1.
        -11    1    3    3    0    0 -0.76670812891E+01  0.21954422984E+01 -0.82244038422E+00  0.80175127581E+01  0.51100000000E-03 0.  1.
        -12    1    3    3    0    0  0.20573650504E+02 -0.23956573944E+02  0.52308056872E+01  0.32008652866E+02  0.00000000000E+00 0.  1.
</event>
<event>
 7    1  0.3440346E-013  0.7246181E+02  0.7816164E-02  0.1226707E+00
        -11   -1    0    0    0    0  0.00000000000E+00  0.00000000000E+00  0.45593999997E+02  0.45594000000E+02  0.51100000000E-03 0. -1.
         11   -1    0    0    0    0 -0.00000000000E+00 -0.00000000000E+00 -0.45593999997E+02  0.45594000000E+02  0.51100000000E-03 0.  1.
    9900012    2    1    2    0    0 -0.10453671356E+02 -0.12707243317E+02  0.89396172474E+01  0.72461814215E+02  0.70000317752E+02 0.  0.
        -12    1    1    2    0    0  0.10453671356E+02  0.12707243317E+02 -0.89396172474E+01  0.18726185785E+02  0.00000000000E+00 0.  1.
         11    1    3    3    0    0  0.28707519465E+01 -0.73772756085E+01  0.19283540070E+02  0.20845151236E+02  0.51100000000E-03 0. -1.
        -11    1    3    3    0    0  0.17415648221E+02 -0.86388516244E+01 -0.62989373549E+01  0.20435536998E+02  0.51100000000E-03 0.  1.
         12    1    3    3    0    0 -0.30740071523E+02  0.33088839163E+01 -0.40449854682E+01  0.31181125981E+02  0.00000000000E+00 0. -1.
</event>
<event>
 7    1  0.3440346E-013  0.7246154E+02  0.7816164E-02  0.1226708E+00
        -11   -1    0    0    0    0  0.00000000000E+00  0.00000000000E+00  0.45593999997E+02  0.45594000000E+02  0.51100000000E-03 0. -1.
         11   -1    0    0    0    0 -0.00000000000E+00 -0.00000000000E+00 -0.45593999997E+02  0.45594000000E+02  0.51100000000E-03 0.  1.
    9900012    2    1    2    0    0 -0.16927813286E+02  0.10568100499E+01  0.79380402841E+01  0.72461542949E+02  0.69999964378E+02 0.  0.
        -12    1    1    2    0    0  0.16927813286E+02 -0.10568100499E+01 -0.79380402841E+01  0.18726457051E+02  0.00000000000E+00 0.  1.
         11    1    3    3    0    0 -0.56431113394E+01 -0.14459009273E+02  0.71680737576E+01  0.17096459763E+02  0.51100000000E-03 0. -1.
        -11    1    3    3    0    0 -0.20135794401E+02 -0.56727255167E+01 -0.16491114129E+02  0.26638071935E+02  0.51100000000E-03 0.  1.
         12    1    3    3    0    0  0.88510924541E+01  0.21188544840E+02  0.17261080655E+02  0.28727011252E+02  0.00000000000E+00 0. -1.
</event>
<event>
 7    1  0.3440346E-013  0.7246140E+02  0.7816164E-02  0.1226708E+00
        -11   -1    0    0    0    0  0.00000000000E+00  0.00000000000E+00  0.45593999997E+02  0.45594000000E+02  0.51100000000E-03 0.  1.
         11   -1    0    0    0    0 -0.00000000000E+00 -0.00000000000E+00 -0.45593999997E+02  0.45594000000E+02  0.51100000000E-03 0. -1.
    9900012    2    1    2    0    0 -0.13408750527E+02  0.79449847121E+01 -0.10381137496E+02  0.72461404248E+02  0.69999783693E+02 0.  0.
        -12    1    1    2    0    0  0.13408750527E+02 -0.79449847121E+01  0.10381137496E+02  0.18726595752E+02  0.00000000000E+00 0.  1.
         11    1    3    3    0    0 -0.12807735335E+02  0.48054680527E+01 -0.90510098097E+01  0.16402785936E+02  0.51100000000E-03 0. -1.
        -11    1    3    3    0    0 -0.25208083160E+02 -0.11139897626E+02  0.30527499491E+00  0.27561530596E+02  0.51100000000E-03 0.  1.
         12    1    3    3    0    0  0.24607067969E+02  0.14279414285E+02 -0.16354026810E+01  0.28497087716E+02  0.00000000000E+00 0. -1.
</event>
<event>
 7    1  0.3440346E-013  0.7246203E+02  0.7816164E-02  0.1226707E+00
        -11   -1    0    0    0    0  0.00000000000E+00  0.00000000000E+00  0.45593999997E+02  0.45594000000E+02  0.51100000000E-03 0. -1.
         11   -1    0    0    0    0 -0.00000000000E+00 -0.00000000000E+00 -0.45593999997E+02  0.45594000000E+02  0.51100000000E-03 0.  1.
    9900012    2    1    2    0    0 -0.72800080720E+01  0.15670332246E+02 -0.72183148058E+01  0.72462031431E+02  0.70000600713E+02 0.  0.
        -12    1    1    2    0    0  0.72800080720E+01 -0.15670332246E+02  0.72183148058E+01  0.18725968569E+02  0.00000000000E+00 0.  1.
         11    1    3    3    0    0  0.44655672176E+01 -0.14480310039E+01 -0.64432099684E+01  0.79720160136E+01  0.51100000000E-03 0. -1.
        -11    1    3    3    0    0 -0.10331885147E+02 -0.14886423522E+02  0.19466489112E+02  0.26595068238E+02  0.51100000000E-03 0.  1.
         12    1    3    3    0    0 -0.14136901422E+01  0.32004786771E+02 -0.20241593950E+02  0.37894947179E+02  0.00000000000E+00 0. -1.
</event>
<event>
 7    1  0.3440346E-013  0.7246158E+02  0.7816164E-02  0.1226708E+00
        -11   -1    0    0    0    0  0.00000000000E+00  0.00000000000E+00  0.45593999997E+02  0.45594000000E+02  0.51100000000E-03 0.  1.
         11   -1    0    0    0    0 -0.00000000000E+00 -0.00000000000E+00 -0.45593999997E+02  0.45594000000E+02  0.51100000000E-03 0. -1.
    9900012    2    1    2    0    0 -0.63038322845E+01  0.16961962431E+02  0.48199830233E+01  0.72461582635E+02  0.70000016076E+02 0.  0.
        -12    1    1    2    0    0  0.63038322845E+01 -0.16961962431E+02 -0.48199830233E+01  0.18726417365E+02  0.00000000000E+00 0.  1.
         11    1    3    3    0    0 -0.16475374831E+02  0.12554844888E+02 -0.53460685162E+01  0.21392581771E+02  0.51100000000E-03 0. -1.
        -11    1    3    3    0    0 -0.15657589939E+01 -0.11626239045E+02 -0.14975454251E+02  0.19023282205E+02  0.51100000000E-03 0.  1.
         12    1    3    3    0    0  0.11737301541E+02  0.16033356589E+02  0.25141505790E+02  0.32045718659E+02  0.00000000000E+00 0. -1.
</event>
<event>
 7    1  0.3440346E-013  0.7246143E+02  0.7816164E-02  0.1226708E+00
        -11   -1    0    0    0    0  0.00000000000E+00  0.00000000000E+00  0.45593999997E+02  0.45594000000E+02  0.51100000000E-03 0.  1.
         11   -1    0    0    0    0 -0.00000000000E+00 -0.00000000000E+00 -0.45593999997E+02  0.45594000000E+02  0.51100000000E-03 0. -1.
    9900012    2    1    2    0    0 -0.15050042899E+02 -0.36498206436E+00  0.11137650649E+02  0.72461434241E+02  0.69999822765E+02 0.  0.
        -12    1    1    2    0    0  0.15050042899E+02  0.36498206436E+00 -0.11137650649E+02  0.18726565759E+02  0.00000000000E+00 0.  1.
         11    1    3    3    0    0 -0.23456981053E+02  0.23121041166E+02  0.14977233380E+02  0.36181901894E+02  0.51100000000E-03 0.  1.
        -11    1    3    3    0    0 -0.18811152172E+01  0.64248998068E+00 -0.92803850704E+01  0.94908869529E+01  0.51100000000E-03 0. -1.
         12    1    3    3    0    0  0.10288053371E+02 -0.24128513211E+02  0.54408023386E+01  0.26788645394E+02  0.00000000000E+00 0. -1.
</event>
<event>
 7    1  0.3440346E-013  0.7246156E+02  0.7816164E-02  0.1226708E+00
        -11   -1    0    0    0    0  0.00000000000E+00  0.00000000000E+00  0.45593999997E+02  0.45594000000E+02  0.51100000000E-03 0.  1.
         11   -1    0    0    0    0 -0.00000000000E+00 -0.00000000000E+00 -0.45593999997E+02  0.45594000000E+02  0.51100000000E-03 0. -1.
    9900012    2    1    2    0    0  0.18320323310E+01 -0.18546040838E+02 -0.18350888848E+01  0.72461560818E+02  0.69999987655E+02 0.  0.
        -12    1    1    2    0    0 -0.18320323310E+01  0.18546040838E+02  0.18350888848E+01  0.18726439182E+02  0.00000000000E+00 0.  1.
         11    1    3    3    0    0 -0.23774512403E+01  0.21961553012E+02  0.32548001322E+01  0.22328363336E+02  0.51100000000E-03 0. -1.
        -11    1    3    3    0    0 -0.74352127389E+01 -0.55577860284E+01  0.67063767430E+01  0.11451937098E+02  0.51100000000E-03 0.  1.
        -12    1    3    3    0    0  0.11644696310E+02 -0.34949807822E+02 -0.11796265760E+02  0.38681260384E+02  0.00000000000E+00 0.  1.
</event>
<event>
 7    1  0.3440346E-013  0.7246162E+02  0.7816164E-02  0.1226708E+00
        -11   -1    0    0    0    0  0.00000000000E+00  0.00000000000E+00  0.45593999997E+02  0.45594000000E+02  0.51100000000E-03 0.  1.
         11   -1    0    0    0    0 -0.00000000000E+00 -0.00000000000E+00 -0.45593999997E+02  0.45594000000E+02  0.51100000000E-03 0. -1.
    9900012    2    1    2    0    0  0.10469869652E+02 -0.14263744338E+02 -0.61322769036E+01  0.72461617726E+02  0.70000061788E+02 0.  0.
        -12    1    1    2    0    0 -0.10469869652E+02  0.14263744338E+02  0.61322769036E+01  0.18726382274E+02  0.00000000000E+00 0.  1.
         11    1    3    3    0    0  0.56038744142E-01  0.65004279393E+00 -0.10760271777E+02  0.10780034552E+02  0.51100000000E-03 0. -1.
        -11    1    3    3    0    0 -0.21758419238E+02 -0.48997958651E+01 -0.10613673838E+02  0.24699936839E+02  0.51100000000E-03 0.  1.
        -12    1    3    3    0    0  0.32172250146E+02 -0.10013991267E+02  0.15241668711E+02  0.36981646335E+02  0.00000000000E+00 0.  1.
</event>
<event>
 7    1  0.3440346E-013  0.7246147E+02  0.7816164E-02  0.1226708E+00
        -11   -1    0    0    0    0  0.00000000000E+00  0.00000000000E+00  0.45593999997E+02  0.45594000000E+02  0.51100000000E-03 0.  1.
         11   -1    0    0    0    0 -0.00000000000E+00 -0.00000000000E+00 -0.45593999997E+02  0.45594000000E+02  0.51100000000E-03 0. -1.
    9900012    2    1    2    0    0 -0.18590194725E+02 -0.13837365575E+00 -0.22512919016E+01  0.72461473296E+02  0.69999873642E+02 0.  0.
        -12    1    1    2    0    0  0.18590194725E+02  0.13837365575E+00  0.22512919016E+01  0.18726526704E+02  0.00000000000E+00 0.  1.
         11    1    3    3    0    0 -0.25300498395E+02  0.12293545691E+02  0.12435367104E+02  0.30755240854E+02  0.51100000000E-03 0.  1.
        -11    1    3    3    0    0  0.40695332045E+00  0.12888986436E+02 -0.39144382943E+01  0.13476439061E+02  0.51100000000E-03 0. -1.
         12    1    3    3    0    0  0.63033503503E+01 -0.25320905782E+02 -0.10772220711E+02  0.28229793381E+02  0.00000000000E+00 0. -1.
</event>
<event>
 7    1  0.3440346E-013  0.7246161E+02  0.7816164E-02  0.1226708E+00
        -11   -1    0    0    0    0  0.00000000000E+00  0.00000000000E+00  0.45593999997E+02  0.45594000000E+02  0.51100000000E-03 0.  1.
         11   -1    0    0    0    0 -0.00000000000E+00 -0.00000000000E+00 -0.45593999997E+02  0.45594000000E+02  0.51100000000E-03 0. -1.
    9900012    2    1    2    0    0 -0.64173420081E+01  0.13796058176E+02 -0.10916243084E+02  0.72461605187E+02  0.70000045454E+02 0.  0.
        -12    1    1    2    0    0  0.64173420081E+01 -0.13796058176E+02  0.10916243084E+02  0.18726394813E+02  0.00000000000E+00 0.  1.
         11    1    3    3    0    0 -0.26131821678E+02  0.28529636184E+02 -0.12220526309E+02  0.40572817360E+02  0.51100000000E-03 0. -1.
        -11    1    3    3    0    0 -0.81253419603E+00  0.50322180462E-01 -0.56063563580E+01  0.56651545447E+01  0.51100000000E-03 0.  1.
        -12    1    3    3    0    0  0.20527013866E+02 -0.14783900189E+02  0.69106395839E+01  0.26223633282E+02  0.00000000000E+00 0.  1.
</event>
<event>
 7    1  0.3440346E-013  0.7246161E+02  0.7816164E-02  0.1226708E+00
        -11   -1    0    0    0    0  0.00000000000E+00  0.00000000000E+00  0.45593999997E+02  0.45594000000E+02  0.51100000000E-03 0. -1.
         11   -1    0    0    0    0 -0.00000000000E+00 -0.00000000000E+00 -0.45593999997E+02  0.45594000000E+02  0.51100000000E-03 0.  1.
    9900012    2    1    2    0    0  0.15046369563E+02 -0.75429664523E+01  0.82090284900E+01  0.72461608765E+02  0.70000050116E+02 0.  0.
        -12    1    1    2    0    0 -0.15046369563E+02  0.75429664523E+01 -0.82090284900E+01  0.18726391235E+02  0.00000000000E+00 0.  1.
         11    1    3    3    0    0  0.27448147968E+01 -0.90969382659E+01  0.65270202581E+00  0.95244062428E+01  0.51100000000E-03 0. -1.
        -11    1    3    3    0    0  0.31583011632E+00  0.25012635860E+02 -0.14206455228E+02  0.28767256938E+02  0.51100000000E-03 0.  1.
         12    1    3    3    0    0  0.11985724650E+02 -0.23458664047E+02  0.21762781692E+02  0.34169945584E+02  0.00000000000E+00 0. -1.
</event>
<event>
 7    1  0.3440346E-013  0.7246156E+02  0.7816164E-02  0.1226708E+00
        -11   -1    0    0    0    0  0.00000000000E+00  0.00000000000E+00  0.45593999997E+02  0.45594000000E+02  0.51100000000E-03 0.  1.
         11   -1    0    0    0    0 -0.00000000000E+00 -0.00000000000E+00 -0.45593999997E+02  0.45594000000E+02  0.51100000000E-03 0. -1.
    9900012    2    1    2    0    0  0.18255864581E+02  0.39520738089E+01 -0.13357175817E+01  0.72461558255E+02  0.69999984316E+02 0.  0.
        -12    1    1    2    0    0 -0.18255864581E+02 -0.39520738089E+01  0.13357175817E+01  0.18726441745E+02  0.00000000000E+00 0.  1.
         11    1    3    3    0    0  0.20910529804E+02 -0.35866192071E+01 -0.17985592778E+02  0.27813587361E+02  0.51100000000E-03 0. -1.
        -11    1    3    3    0    0  0.13738778404E+02 -0.62147983428E+01 -0.32510599425E+01  0.15425535371E+02  0.51100000000E-03 0.  1.
        -12    1    3    3    0    0 -0.16393443627E+02  0.13753491359E+02  0.19900935139E+02  0.29222435523E+02  0.00000000000E+00 0.  1.
</event>
<event>
 7    1  0.3440346E-013  0.7246156E+02  0.7816164E-02  0.1226708E+00
        -11   -1    0    0    0    0  0.00000000000E+00  0.00000000000E+00  0.45593999997E+02  0.45594000000E+02  0.51100000000E-03 0.  1.
         11   -1    0    0    0    0 -0.00000000000E+00 -0.00000000000E+00 -0.45593999997E+02  0.45594000000E+02  0.51100000000E-03 0. -1.
    9900012    2    1    2    0    0  0.15832741629E+02  0.33717990303E+01  0.94145982876E+01  0.72461564218E+02  0.69999992084E+02 0.  0.
        -12    1    1    2    0    0 -0.15832741629E+02 -0.33717990303E+01 -0.94145982876E+01  0.18726435782E+02  0.00000000000E+00 0.  1.
         11    1    3    3    0    0 -0.38291228280E+00 -0.80738683658E+01 -0.20987663441E+02  0.22490353247E+02  0.51100000000E-03 0. -1.
        -11    1    3    3    0    0  0.14557328998E+02 -0.40811511420E+01 -0.73652282339E+00  0.15136515066E+02  0.51100000000E-03 0.  1.
        -12    1    3    3    0    0  0.16583249136E+01  0.15526818538E+02  0.31138784552E+02  0.34834695905E+02  0.00000000000E+00 0.  1.
</event>
<event>
 7    1  0.3440346E-013  0.7246155E+02  0.7816164E-02  0.1226708E+00
        -11   -1    0    0    0    0  0.00000000000E+00  0.00000000000E+00  0.45593999997E+02  0.45594000000E+02  0.51100000000E-03 0. -1.
         11   -1    0    0    0    0 -0.00000000000E+00 -0.00000000000E+00 -0.45593999997E+02  0.45594000000E+02  0.51100000000E-03 0.  1.
    9900012    2    1    2    0    0  0.96860342563E+01  0.14052846832E+02 -0.77057161948E+01  0.72461552772E+02  0.69999977175E+02 0.  0.
        -12    1    1    2    0    0 -0.96860342563E+01 -0.14052846832E+02  0.77057161948E+01  0.18726447228E+02  0.00000000000E+00 0.  1.
         11    1    3    3    0    0 -0.12018438658E+02  0.12582210654E+02 -0.17519915876E+02  0.24692151491E+02  0.51100000000E-03 0.  1.
        -11    1    3    3    0    0 -0.40295577345E+00 -0.10075282382E+02  0.18739121594E+02  0.21279764256E+02  0.51100000000E-03 0. -1.
         12    1    3    3    0    0  0.22107428687E+02  0.11545918560E+02 -0.89249219124E+01  0.26489637025E+02  0.00000000000E+00 0. -1.
</event>
<event>
 7    1  0.3440346E-013  0.7246157E+02  0.7816164E-02  0.1226708E+00
        -11   -1    0    0    0    0  0.00000000000E+00  0.00000000000E+00  0.45593999997E+02  0.45594000000E+02  0.51100000000E-03 0. -1.
         11   -1    0    0    0    0 -0.00000000000E+00 -0.00000000000E+00 -0.45593999997E+02  0.45594000000E+02  0.51100000000E-03 0.  1.
    9900012    2    1    2    0    0 -0.78199269557E+01  0.86691686819E+00  0.16993425000E+02  0.72461566926E+02  0.69999995612E+02 0.  0.
        -12    1    1    2    0    0  0.78199269557E+01 -0.86691686819E+00 -0.16993425000E+02  0.18726433074E+02  0.00000000000E+00 0.  1.
         11    1    3    3    0    0  0.11611878208E+02  0.19923446223E+02  0.12327142581E+02  0.26148381774E+02  0.51100000000E-03 0.  1.
        -11    1    3    3    0    0  0.99618390404E+01  0.14214107206E+01  0.27811425315E+01  0.10439990400E+02  0.51100000000E-03 0. -1.
         12    1    3    3    0    0 -0.29393644204E+02 -0.20477940075E+02  0.18851398871E+01  0.35873194752E+02  0.00000000000E+00 0. -1.
</event>
<event>
 7    1  0.3440346E-013  0.7246157E+02  0.7816164E-02  0.1226708E+00
        -11   -1    0    0    0    0  0.00000000000E+00  0.00000000000E+00  0.45593999997E+02  0.45594000000E+02  0.51100000000E-03 0.  1.
         11   -1    0    0    0    0 -0.00000000000E+00 -0.00000000000E+00 -0.45593999997E+02  0.45594000000E+02  0.51100000000E-03 0. -1.
    9900012    2    1    2    0    0  0.65995637302E+01 -0.77872270012E+00 -0.17507671128E+02  0.72461569512E+02  0.69999998981E+02 0.  0.
        -12    1    1    2    0    0 -0.65995637302E+01  0.77872270012E+00  0.17507671128E+02  0.18726430488E+02  0.00000000000E+00 0.  1.
         11    1    3    3    0    0 -0.27829639209E+01  0.86745518180E+00 -0.22898234919E+02  0.23083035531E+02  0.51100000000E-03 0. -1.
        -11    1    3    3    0    0  0.13156013355E+02  0.18859194837E+02 -0.82877293994E+01  0.24442511658E+02  0.51100000000E-03 0.  1.
        -12    1    3    3    0    0 -0.37734857044E+01 -0.20505372719E+02  0.13678293190E+02  0.24936022323E+02  0.00000000000E+00 0.  1.
</event>
<event>
 7    1  0.3440346E-013  0.7246158E+02  0.7816164E-02  0.1226708E+00
        -11   -1    0    0    0    0  0.00000000000E+00  0.00000000000E+00  0.45593999997E+02  0.45594000000E+02  0.51100000000E-03 0. -1.
         11   -1    0    0    0    0 -0.00000000000E+00 -0.00000000000E+00 -0.45593999997E+02  0.45594000000E+02  0.51100000000E-03 0.  1.
    9900012    2    1    2    0    0  0.27612255690E+01  0.16001427044E+02  0.93278579393E+01  0.72461575679E+02  0.70000007015E+02 0.  0.
        -12    1    1    2    0    0 -0.27612255690E+01 -0.16001427044E+02 -0.93278579393E+01  0.18726424321E+02  0.00000000000E+00 0.  1.
         11    1    3    3    0    0  0.51791446386E+01  0.20225913309E+01  0.79868935486E+01  0.97316434222E+01  0.51100000000E-03 0. -1.
        -11    1    3    3    0    0 -0.76262597348E+01 -0.18230042709E+02  0.17431692408E+02  0.26350677319E+02  0.51100000000E-03 0.  1.
        -12    1    3    3    0    0  0.52083406652E+01  0.32208878422E+02 -0.16090728017E+02  0.36379254938E+02  0.00000000000E+00 0.  1.
</event>
<event>
 7    1  0.3440346E-013  0.7246158E+02  0.7816164E-02  0.1226708E+00
        -11   -1    0    0    0    0  0.00000000000E+00  0.00000000000E+00  0.45593999997E+02  0.45594000000E+02  0.51100000000E-03 0.  1.
         11   -1    0    0    0    0 -0.00000000000E+00 -0.00000000000E+00 -0.45593999997E+02  0.45594000000E+02  0.51100000000E-03 0. -1.
    9900012    2    1    2    0    0 -0.67501036411E+01 -0.34468749348E+00 -0.17464133379E+02  0.72461583810E+02  0.70000017606E+02 0.  0.
        -12    1    1    2    0    0  0.67501036411E+01  0.34468749348E+00  0.17464133379E+02  0.18726416190E+02  0.00000000000E+00 0.  1.
         11    1    3    3    0    0  0.73686287884E+01  0.20942727208E+02 -0.11329470261E+02  0.24924915442E+02  0.51100000000E-03 0. -1.
        -11    1    3    3    0    0  0.97328712925E+01  0.39950149952E+01 -0.72233512909E+01  0.12761885932E+02  0.51100000000E-03 0.  1.
        -12    1    3    3    0    0 -0.23851603722E+02 -0.25282429697E+02  0.10886881725E+01  0.34774782436E+02  0.00000000000E+00 0.  1.
</event>
<event>
 7    1  0.3440346E-013  0.7246160E+02  0.7816164E-02  0.1226708E+00
        -11   -1    0    0    0    0  0.00000000000E+00  0.00000000000E+00  0.45593999997E+02  0.45594000000E+02  0.51100000000E-03 0.  1.
         11   -1    0    0    0    0 -0.00000000000E+00 -0.00000000000E+00 -0.45593999997E+02  0.45594000000E+02  0.51100000000E-03 0. -1.
    9900012    2    1    2    0    0  0.13389966083E+02 -0.10271888121E+02 -0.81163467396E+01  0.72461602544E+02  0.70000042011E+02 0.  0.
        -12    1    1    2    0    0 -0.13389966083E+02  0.10271888121E+02  0.81163467396E+01  0.18726397456E+02  0.00000000000E+00 0.  1.
         11    1    3    3    0    0  0.41666060343E+01  0.74877904886E+01 -0.36363661244E+00  0.85767035679E+01  0.51100000000E-03 0. -1.
        -11    1    3    3    0    0  0.96255678845E+01  0.20028680811E+02 -0.12979662696E+02  0.25734631454E+02  0.51100000000E-03 0.  1.
         12    1    3    3    0    0 -0.40220783563E+00 -0.37788359421E+02  0.52269525688E+01  0.38150267522E+02  0.00000000000E+00 0. -1.
</event>
<event>
 7    1  0.3440346E-013  0.7246150E+02  0.7816164E-02  0.1226708E+00
        -11   -1    0    0    0    0  0.00000000000E+00  0.00000000000E+00  0.45593999997E+02  0.45594000000E+02  0.51100000000E-03 0.  1.
         11   -1    0    0    0    0 -0.00000000000E+00 -0.00000000000E+00 -0.45593999997E+02  0.45594000000E+02  0.51100000000E-03 0. -1.
    9900012    2    1    2    0    0 -0.16859239090E+02  0.19334522598E+01  0.79189343999E+01  0.72461502667E+02  0.69999911902E+02 0.  0.
        -12    1    1    2    0    0  0.16859239090E+02 -0.19334522598E+01 -0.79189343999E+01  0.18726497333E+02  0.00000000000E+00 0.  1.
         11    1    3    3    0    0 -0.17204018229E+02 -0.19169026004E+02 -0.12533552601E+02  0.28644715782E+02  0.51100000000E-03 0. -1.
        -11    1    3    3    0    0 -0.95628261437E+01 -0.37366812658E+01  0.11951554542E+02  0.15755954017E+02  0.51100000000E-03 0.  1.
         12    1    3    3    0    0  0.99076052826E+01  0.24839159530E+02  0.85009324585E+01  0.28060832868E+02  0.00000000000E+00 0. -1.
</event>
<event>
 7    1  0.3440346E-013  0.7246153E+02  0.7816164E-02  0.1226708E+00
        -11   -1    0    0    0    0  0.00000000000E+00  0.00000000000E+00  0.45593999997E+02  0.45594000000E+02  0.51100000000E-03 0.  1.
         11   -1    0    0    0    0 -0.00000000000E+00 -0.00000000000E+00 -0.45593999997E+02  0.45594000000E+02  0.51100000000E-03 0. -1.
    9900012    2    1    2    0    0  0.10113150905E+01 -0.17719867079E+02 -0.59719523748E+01  0.72461530427E+02  0.69999948065E+02 0.  0.
        -12    1    1    2    0    0 -0.10113150905E+01  0.17719867079E+02  0.59719523748E+01  0.18726469573E+02  0.00000000000E+00 0.  1.
         11    1    3    3    0    0  0.10373632213E+02  0.61170069011E+01 -0.19483014727E+02  0.22904538455E+02  0.51100000000E-03 0. -1.
        -11    1    3    3    0    0 -0.13402260360E+02 -0.31079069733E+02  0.16706583561E+00  0.33846079086E+02  0.51100000000E-03 0.  1.
         12    1    3    3    0    0  0.40399432371E+01  0.72421957534E+01  0.13343996516E+02  0.15710912886E+02  0.00000000000E+00 0. -1.
</event>
<event>
 7    1  0.3440346E-013  0.7246158E+02  0.7816164E-02  0.1226708E+00
        -11   -1    0    0    0    0  0.00000000000E+00  0.00000000000E+00  0.45593999997E+02  0.45594000000E+02  0.51100000000E-03 0. -1.
         11   -1    0    0    0    0 -0.00000000000E+00 -0.00000000000E+00 -0.45593999997E+02  0.45594000000E+02  0.51100000000E-03 0.  1.
    9900012    2    1    2    0    0  0.53557291496E+01  0.17160200066E+02  0.52462060043E+01  0.72461575396E+02  0.70000006646E+02 0.  0.
        -12    1    1    2    0    0 -0.53557291496E+01 -0.17160200066E+02 -0.52462060043E+01  0.18726424604E+02  0.00000000000E+00 0.  1.
         11    1    3    3    0    0 -0.11256902718E+02  0.16253726363E+02 -0.12744830219E+01  0.19812263543E+02  0.51100000000E-03 0. -1.
        -11    1    3    3    0    0  0.33439827297E+02 -0.46001752930E+01 -0.76523431961E-01  0.33754844371E+02  0.51100000000E-03 0.  1.
         12    1    3    3    0    0 -0.16827195430E+02  0.55066489958E+01  0.65972124582E+01  0.18894467482E+02  0.00000000000E+00 0. -1.
</event>
<event>
 7    1  0.3440346E-013  0.7246156E+02  0.7816164E-02  0.1226708E+00
        -11   -1    0    0    0    0  0.00000000000E+00  0.00000000000E+00  0.45593999997E+02  0.45594000000E+02  0.51100000000E-03 0.  1.
         11   -1    0    0    0    0 -0.00000000000E+00 -0.00000000000E+00 -0.45593999997E+02  0.45594000000E+02  0.51100000000E-03 0. -1.
    9900012    2    1    2    0    0 -0.10321650749E+02  0.44863813020E+01 -0.14967147372E+02  0.72461559019E+02  0.69999985311E+02 0.  0.
        -12    1    1    2    0    0  0.10321650749E+02 -0.44863813020E+01  0.14967147372E+02  0.18726440981E+02  0.00000000000E+00 0.  1.
         11    1    3    3    0    0  0.10517742232E+02 -0.11749231202E+02  0.71984714004E+01  0.17334512576E+02  0.51100000000E-03 0. -1.
        -11    1    3    3    0    0  0.24097425792E+00  0.10452529990E+02  0.11146953675E+02  0.15282932581E+02  0.51100000000E-03 0.  1.
         12    1    3    3    0    0 -0.21080367238E+02  0.57830825138E+01 -0.33312572448E+02  0.39844113861E+02  0.00000000000E+00 0. -1.
</event>
<event>
 7    1  0.3440346E-013  0.7246159E+02  0.7816164E-02  0.1226708E+00
        -11   -1    0    0    0    0  0.00000000000E+00  0.00000000000E+00  0.45593999997E+02  0.45594000000E+02  0.51100000000E-03 0.  1.
         11   -1    0    0    0    0 -0.00000000000E+00 -0.00000000000E+00 -0.45593999997E+02  0.45594000000E+02  0.51100000000E-03 0. -1.
    9900012    2    1    2    0    0  0.17877681748E+02 -0.15721707873E+01 -0.53474628482E+01  0.72461585912E+02  0.70000020345E+02 0.  0.
        -12    1    1    2    0    0 -0.17877681748E+02  0.15721707873E+01  0.53474628482E+01  0.18726414088E+02  0.00000000000E+00 0.  1.
         11    1    3    3    0    0  0.11277865278E+02 -0.20412405524E+02 -0.10261314993E+02  0.25478444422E+02  0.51100000000E-03 0. -1.
        -11    1    3    3    0    0  0.13161201708E+02 -0.35023927508E+00 -0.14023383860E+02  0.19235259111E+02  0.51100000000E-03 0.  1.
        -12    1    3    3    0    0 -0.65613852381E+01  0.19190474012E+02  0.18937236004E+02  0.27747882379E+02  0.00000000000E+00 0.  1.
</event>
<event>
 7    1  0.3440346E-013  0.7246177E+02  0.7816164E-02  0.1226707E+00
        -11   -1    0    0    0    0  0.00000000000E+00  0.00000000000E+00  0.45593999997E+02  0.45594000000E+02  0.51100000000E-03 0.  1.
         11   -1    0    0    0    0 -0.00000000000E+00 -0.00000000000E+00 -0.45593999997E+02  0.45594000000E+02  0.51100000000E-03 0. -1.
    9900012    2    1    2    0    0  0.23692054803E+01  0.57643672722E+01 -0.17658721575E+02  0.72461774744E+02  0.70000266334E+02 0.  0.
        -12    1    1    2    0    0 -0.23692054803E+01 -0.57643672722E+01  0.17658721575E+02  0.18726225256E+02  0.00000000000E+00 0.  1.
         11    1    3    3    0    0  0.10164793494E+02 -0.21652439430E+01 -0.22211368992E+02  0.24522565544E+02  0.51100000000E-03 0. -1.
        -11    1    3    3    0    0  0.13588414049E+02 -0.78736221452E+01 -0.89936359548E+01  0.18097635481E+02  0.51100000000E-03 0.  1.
        -12    1    3    3    0    0 -0.21384002063E+02  0.15803233360E+02  0.13546283372E+02  0.29841573719E+02  0.00000000000E+00 0.  1.
</event>
<event>
 7    1  0.3440346E-013  0.7246157E+02  0.7816164E-02  0.1226708E+00
        -11   -1    0    0    0    0  0.00000000000E+00  0.00000000000E+00  0.45593999997E+02  0.45594000000E+02  0.51100000000E-03 0.  1.
         11   -1    0    0    0    0 -0.00000000000E+00 -0.00000000000E+00 -0.45593999997E+02  0.45594000000E+02  0.51100000000E-03 0. -1.
    9900012    2    1    2    0    0 -0.17949573886E+02 -0.14031876081E+01 -0.51500617109E+01  0.72461567511E+02  0.69999996374E+02 0.  0.
        -12    1    1    2    0    0  0.17949573886E+02  0.14031876081E+01  0.51500617109E+01  0.18726432489E+02  0.00000000000E+00 0.  1.
         11    1    3    3    0    0 -0.12023912655E+02 -0.61183213687E+01  0.72709505231E+01  0.15325633875E+02  0.51100000000E-03 0. -1.
        -11    1    3    3    0    0 -0.13448756878E+02  0.91261971866E+01  0.18723383336E+02  0.24793580226E+02  0.51100000000E-03 0.  1.
         12    1    3    3    0    0  0.75230956463E+01 -0.44110634261E+01 -0.31144395570E+02  0.32342353409E+02  0.00000000000E+00 0. -1.
</event>
<event>
 7    1  0.3440346E-013  0.7246155E+02  0.7816164E-02  0.1226708E+00
        -11   -1    0    0    0    0  0.00000000000E+00  0.00000000000E+00  0.45593999997E+02  0.45594000000E+02  0.51100000000E-03 0. -1.
         11   -1    0    0    0    0 -0.00000000000E+00 -0.00000000000E+00 -0.45593999997E+02  0.45594000000E+02  0.51100000000E-03 0.  1.
    9900012    2    1    2    0    0 -0.52863146256E+01  0.76517876161E+01  0.16253770715E+02  0.72461547093E+02  0.69999969776E+02 0.  0.
        -12    1    1    2    0    0  0.52863146256E+01 -0.76517876161E+01 -0.16253770715E+02  0.18726452907E+02  0.00000000000E+00 0.  1.
         11    1    3    3    0    0 -0.94960685281E+01 -0.24983286621E+02 -0.40478998414E+01  0.27031933362E+02  0.51100000000E-03 0. -1.
        -11    1    3    3    0    0 -0.55362148952E+00  0.82237810007E+01  0.18782647183E+02  0.20511579807E+02  0.51100000000E-03 0.  1.
        -12    1    3    3    0    0  0.47633753921E+01  0.24411293237E+02  0.15190233726E+01  0.24918033924E+02  0.00000000000E+00 0.  1.
</event>
<event>
 7    1  0.3440346E-013  0.7246158E+02  0.7816164E-02  0.1226708E+00
        -11   -1    0    0    0    0  0.00000000000E+00  0.00000000000E+00  0.45593999997E+02  0.45594000000E+02  0.51100000000E-03 0. -1.
         11   -1    0    0    0    0 -0.00000000000E+00 -0.00000000000E+00 -0.45593999997E+02  0.45594000000E+02  0.51100000000E-03 0.  1.
    9900012    2    1    2    0    0  0.14238299458E+02  0.10357304213E+02  0.63777558926E+01  0.72461583038E+02  0.70000016600E+02 0.  0.
        -12    1    1    2    0    0 -0.14238299458E+02 -0.10357304213E+02 -0.63777558926E+01  0.18726416962E+02  0.00000000000E+00 0.  1.
         11    1    3    3    0    0 -0.10659618266E+02 -0.65138950150E+00 -0.29195531594E+01  0.11071384772E+02  0.51100000000E-03 0. -1.
        -11    1    3    3    0    0 -0.54548920369E+01 -0.64844368544E+01 -0.16049722124E+02  0.18149307121E+02  0.51100000000E-03 0.  1.
         12    1    3    3    0    0  0.30352809762E+02  0.17493130569E+02  0.25347031176E+02  0.43240891144E+02  0.00000000000E+00 0. -1.
</event>
<event>
 7    1  0.3440346E-013  0.7246163E+02  0.7816164E-02  0.1226708E+00
        -11   -1    0    0    0    0  0.00000000000E+00  0.00000000000E+00  0.45593999997E+02  0.45594000000E+02  0.51100000000E-03 0.  1.
         11   -1    0    0    0    0 -0.00000000000E+00 -0.00000000000E+00 -0.45593999997E+02  0.45594000000E+02  0.51100000000E-03 0. -1.
    9900012    2    1    2    0    0 -0.96223085144E+01 -0.15846822348E+02  0.26394074684E+01  0.72461626313E+02  0.70000072975E+02 0.  0.
        -12    1    1    2    0    0  0.96223085144E+01  0.15846822348E+02 -0.26394074684E+01  0.18726373687E+02  0.00000000000E+00 0.  1.
         11    1    3    3    0    0  0.11213757366E+02 -0.75096326653E+01 -0.88155977964E+01  0.16120102413E+02  0.51100000000E-03 0. -1.
        -11    1    3    3    0    0  0.16778137093E+02 -0.10027706258E+01  0.44067220734E+01  0.17376151270E+02  0.51100000000E-03 0.  1.
         12    1    3    3    0    0 -0.37614202974E+02 -0.73344190571E+01  0.70482831914E+01  0.38965372630E+02  0.00000000000E+00 0. -1.
</event>
<event>
 7    1  0.3440346E-013  0.7246164E+02  0.7816164E-02  0.1226708E+00
        -11   -1    0    0    0    0  0.00000000000E+00  0.00000000000E+00  0.45593999997E+02  0.45594000000E+02  0.51100000000E-03 0.  1.
         11   -1    0    0    0    0 -0.00000000000E+00 -0.00000000000E+00 -0.45593999997E+02  0.45594000000E+02  0.51100000000E-03 0. -1.
    9900012    2    1    2    0    0 -0.62743271319E+01  0.10232525203E+02 -0.14373749507E+02  0.72461643497E+02  0.70000095360E+02 0.  0.
        -12    1    1    2    0    0  0.62743271319E+01 -0.10232525203E+02  0.14373749507E+02  0.18726356503E+02  0.00000000000E+00 0.  1.
         11    1    3    3    0    0 -0.46298339694E+01 -0.53156617223E+01 -0.16004797441E+02  0.17488429418E+02  0.51100000000E-03 0. -1.
        -11    1    3    3    0    0 -0.50785256834E+01 -0.16012720363E+02  0.13010871907E+02  0.21248092258E+02  0.51100000000E-03 0.  1.
         12    1    3    3    0    0  0.34340325209E+01  0.31560907288E+02 -0.11379823973E+02  0.33725121821E+02  0.00000000000E+00 0. -1.
</event>
<event>
 7    1  0.4344599E-013  0.7246164E+02  0.7816164E-02  0.1226708E+00
        -11   -1    0    0    0    0  0.00000000000E+00  0.00000000000E+00  0.45593999997E+02  0.45594000000E+02  0.51100000000E-03 0. -1.
         11   -1    0    0    0    0 -0.00000000000E+00 -0.00000000000E+00 -0.45593999997E+02  0.45594000000E+02  0.51100000000E-03 0.  1.
    9900012    2    1    2    0    0 -0.94013121732E+01  0.10944667297E+02  0.11937598412E+02  0.72461637068E+02  0.70000086985E+02 0.  0.
        -12    1    1    2    0    0  0.94013121732E+01 -0.10944667297E+02 -0.11937598412E+02  0.18726362932E+02  0.00000000000E+00 0.  1.
         11    1    3    3    0    0 -0.59830031476E+00  0.12155026223E+01  0.32243453411E+02  0.32271902609E+02  0.51100000000E-03 0. -1.
        -11    1    3    3    0    0 -0.15917555281E+02 -0.62786820432E+01 -0.11153873172E+02  0.20425457188E+02  0.51100000000E-03 0.  1.
        -12    1    3    3    0    0  0.71145434228E+01  0.16007846718E+02 -0.91519818272E+01  0.19764277271E+02  0.00000000000E+00 0.  1.
</event>
<event>
 7    1  0.3440346E-013  0.7246156E+02  0.7816164E-02  0.1226708E+00
        -11   -1    0    0    0    0  0.00000000000E+00  0.00000000000E+00  0.45593999997E+02  0.45594000000E+02  0.51100000000E-03 0.  1.
         11   -1    0    0    0    0 -0.00000000000E+00 -0.00000000000E+00 -0.45593999997E+02  0.45594000000E+02  0.51100000000E-03 0. -1.
    9900012    2    1    2    0    0  0.18062678889E+02 -0.36751824170E+01 -0.33033517862E+01  0.72461562339E+02  0.69999989637E+02 0.  0.
        -12    1    1    2    0    0 -0.18062678889E+02  0.36751824170E+01  0.33033517862E+01  0.18726437661E+02  0.00000000000E+00 0.  1.
         11    1    3    3    0    0  0.25276854979E+02 -0.12192874328E+02 -0.18435797683E+02  0.33577733969E+02  0.51100000000E-03 0. -1.
        -11    1    3    3    0    0 -0.45521154359E+01  0.94162844293E+01 -0.94773797716E+01  0.14114138124E+02  0.51100000000E-03 0.  1.
         12    1    3    3    0    0 -0.26620606549E+01 -0.89859251817E+00  0.24609825669E+02  0.24769690246E+02  0.00000000000E+00 0. -1.
</event>
<event>
 7    1  0.3440346E-013  0.7246157E+02  0.7816164E-02  0.1226708E+00
        -11   -1    0    0    0    0  0.00000000000E+00  0.00000000000E+00  0.45593999997E+02  0.45594000000E+02  0.51100000000E-03 0. -1.
         11   -1    0    0    0    0 -0.00000000000E+00 -0.00000000000E+00 -0.45593999997E+02  0.45594000000E+02  0.51100000000E-03 0.  1.
    9900012    2    1    2    0    0 -0.10261549420E+02 -0.53326727268E+01  0.14728965444E+02  0.72461569001E+02  0.69999998315E+02 0.  0.
        -12    1    1    2    0    0  0.10261549420E+02  0.53326727268E+01 -0.14728965444E+02  0.18726430999E+02  0.00000000000E+00 0.  1.
         11    1    3    3    0    0 -0.15844511563E+02 -0.26509777142E+02 -0.66323123767E+01  0.31588042018E+02  0.51100000000E-03 0. -1.
        -11    1    3    3    0    0 -0.74876902908E+00 -0.17229065397E+01  0.16519494607E+02  0.16625966568E+02  0.51100000000E-03 0.  1.
        -12    1    3    3    0    0  0.63317311716E+01  0.22900010955E+02  0.48417832137E+01  0.24247560415E+02  0.00000000000E+00 0.  1.
</event>
<event>
 7    1  0.3440346E-013  0.7246153E+02  0.7816164E-02  0.1226708E+00
        -11   -1    0    0    0    0  0.00000000000E+00  0.00000000000E+00  0.45593999997E+02  0.45594000000E+02  0.51100000000E-03 0. -1.
         11   -1    0    0    0    0 -0.00000000000E+00 -0.00000000000E+00 -0.45593999997E+02  0.45594000000E+02  0.51100000000E-03 0.  1.
    9900012    2    1    2    0    0 -0.17584333448E+02  0.55648263498E+01 -0.32410844593E+01  0.72461529335E+02  0.69999946642E+02 0.  0.
        -12    1    1    2    0    0  0.17584333448E+02 -0.55648263498E+01  0.32410844593E+01  0.18726470665E+02  0.00000000000E+00 0.  1.
         11    1    3    3    0    0 -0.25771667270E+02 -0.17383161826E+02 -0.15511599665E+02  0.34741371208E+02  0.51100000000E-03 0. -1.
        -11    1    3    3    0    0  0.70716705745E+01  0.12206974448E+02 -0.69098788798E+01  0.15708761131E+02  0.51100000000E-03 0.  1.
        -12    1    3    3    0    0  0.11156632481E+01  0.10741013728E+02  0.19180394086E+02  0.22011396995E+02  0.00000000000E+00 0.  1.
</event>
<event>
 7    1  0.3440346E-013  0.7246162E+02  0.7816164E-02  0.1226708E+00
        -11   -1    0    0    0    0  0.00000000000E+00  0.00000000000E+00  0.45593999997E+02  0.45594000000E+02  0.51100000000E-03 0.  1.
         11   -1    0    0    0    0 -0.00000000000E+00 -0.00000000000E+00 -0.45593999997E+02  0.45594000000E+02  0.51100000000E-03 0. -1.
    9900012    2    1    2    0    0 -0.30482837680E+01  0.60739301910E+01 -0.17449718147E+02  0.72461619536E+02  0.70000064146E+02 0.  0.
        -12    1    1    2    0    0  0.30482837680E+01 -0.60739301910E+01  0.17449718147E+02  0.18726380464E+02  0.00000000000E+00 0.  1.
         11    1    3    3    0    0 -0.26006101670E+02  0.81121490453E+01 -0.19029838550E+02  0.33230393343E+02  0.51100000000E-03 0. -1.
        -11    1    3    3    0    0 -0.57203248612E+01 -0.30471868025E+01 -0.67428337161E+01  0.93527146172E+01  0.51100000000E-03 0.  1.
        -12    1    3    3    0    0  0.28678142764E+02  0.10089679482E+01  0.83229541193E+01  0.29878511575E+02  0.00000000000E+00 0.  1.
</event>
<event>
 7    1  0.3440346E-013  0.7246158E+02  0.7816164E-02  0.1226708E+00
        -11   -1    0    0    0    0  0.00000000000E+00  0.00000000000E+00  0.45593999997E+02  0.45594000000E+02  0.51100000000E-03 0.  1.
         11   -1    0    0    0    0 -0.00000000000E+00 -0.00000000000E+00 -0.45593999997E+02  0.45594000000E+02  0.51100000000E-03 0. -1.
    9900012    2    1    2    0    0  0.54643111572E+01  0.12577534125E+02 -0.12752483796E+02  0.72461577383E+02  0.70000009234E+02 0.  0.
        -12    1    1    2    0    0 -0.54643111572E+01 -0.12577534125E+02  0.12752483796E+02  0.18726422617E+02  0.00000000000E+00 0.  1.
         11    1    3    3    0    0 -0.10281893858E+02  0.23855959792E+02  0.68472164583E+01  0.26864633487E+02  0.51100000000E-03 0. -1.
        -11    1    3    3    0    0 -0.97134587481E+01 -0.43860002526E+01 -0.15638722605E+02  0.18925060741E+02  0.51100000000E-03 0.  1.
         12    1    3    3    0    0  0.25459663763E+02 -0.68924254149E+01 -0.39609776485E+01  0.26671883154E+02  0.00000000000E+00 0. -1.
</event>
<event>
 7    1  0.3440346E-013  0.7246155E+02  0.7816164E-02  0.1226708E+00
        -11   -1    0    0    0    0  0.00000000000E+00  0.00000000000E+00  0.45593999997E+02  0.45594000000E+02  0.51100000000E-03 0. -1.
         11   -1    0    0    0    0 -0.00000000000E+00 -0.00000000000E+00 -0.45593999997E+02  0.45594000000E+02  0.51100000000E-03 0.  1.
    9900012    2    1    2    0    0  0.15558842656E+02  0.10406641204E+02 -0.55139470751E+00  0.72461553405E+02  0.69999977998E+02 0.  0.
        -12    1    1    2    0    0 -0.15558842656E+02 -0.10406641204E+02  0.55139470751E+00  0.18726446595E+02  0.00000000000E+00 0.  1.
         11    1    3    3    0    0 -0.72733362273E+01  0.18974491545E+02  0.10891624531E+02  0.23055590091E+02  0.51100000000E-03 0. -1.
        -11    1    3    3    0    0  0.23577494312E+02 -0.16448717482E+01  0.10882473694E+02  0.26019840027E+02  0.51100000000E-03 0.  1.
        -12    1    3    3    0    0 -0.74531542803E+00 -0.69229785927E+01 -0.22325492933E+02  0.23386123287E+02  0.00000000000E+00 0.  1.
</event>
<event>
 7    1  0.3440346E-013  0.7246156E+02  0.7816164E-02  0.1226708E+00
        -11   -1    0    0    0    0  0.00000000000E+00  0.00000000000E+00  0.45593999997E+02  0.45594000000E+02  0.51100000000E-03 0.  1.
         11   -1    0    0    0    0 -0.00000000000E+00 -0.00000000000E+00 -0.45593999997E+02  0.45594000000E+02  0.51100000000E-03 0. -1.
    9900012    2    1    2    0    0  0.39135642895E+01 -0.86697412229E+01 -0.16130691940E+02  0.72461558246E+02  0.69999984304E+02 0.  0.
        -12    1    1    2    0    0 -0.39135642895E+01  0.86697412229E+01  0.16130691940E+02  0.18726441754E+02  0.00000000000E+00 0.  1.
         11    1    3    3    0    0 -0.57587304349E+01  0.22497770601E+01 -0.35877011758E+02  0.36405829835E+02  0.51100000000E-03 0. -1.
        -11    1    3    3    0    0 -0.75721459809E+01 -0.57800332552E+01  0.25647333392E+00  0.95295308394E+01  0.51100000000E-03 0.  1.
        -12    1    3    3    0    0  0.17244440705E+02 -0.51394850277E+01  0.19489846484E+02  0.26526197571E+02  0.00000000000E+00 0.  1.
</event>
<event>
 7    1  0.3440346E-013  0.7246146E+02  0.7816164E-02  0.1226708E+00
        -11   -1    0    0    0    0  0.00000000000E+00  0.00000000000E+00  0.45593999997E+02  0.45594000000E+02  0.51100000000E-03 0. -1.
         11   -1    0    0    0    0 -0.00000000000E+00 -0.00000000000E+00 -0.45593999997E+02  0.45594000000E+02  0.51100000000E-03 0.  1.
    9900012    2    1    2    0    0 -0.76424157381E+00 -0.15794092700E+02  0.10032242137E+02  0.72461459698E+02  0.69999855927E+02 0.  0.
        -12    1    1    2    0    0  0.76424157381E+00  0.15794092700E+02 -0.10032242137E+02  0.18726540302E+02  0.00000000000E+00 0.  1.
         11    1    3    3    0    0 -0.12438092817E+02  0.18214028245E+02  0.32458296863E+01  0.22293326096E+02  0.51100000000E-03 0. -1.
        -11    1    3    3    0    0 -0.84921112340E+01 -0.25641837862E+02 -0.88787331990E+00  0.27026063744E+02  0.51100000000E-03 0.  1.
         12    1    3    3    0    0  0.20165962477E+02 -0.83662830821E+01  0.76742857705E+01  0.23142069858E+02  0.00000000000E+00 0. -1.
</event>
<event>
 7    1  0.3440346E-013  0.7246158E+02  0.7816164E-02  0.1226708E+00
        -11   -1    0    0    0    0  0.00000000000E+00  0.00000000000E+00  0.45593999997E+02  0.45594000000E+02  0.51100000000E-03 0.  1.
         11   -1    0    0    0    0 -0.00000000000E+00 -0.00000000000E+00 -0.45593999997E+02  0.45594000000E+02  0.51100000000E-03 0. -1.
    9900012    2    1    2    0    0  0.14234960275E+02 -0.28430840842E+01 -0.11830533491E+02  0.72461581660E+02  0.70000014806E+02 0.  0.
        -12    1    1    2    0    0 -0.14234960275E+02  0.28430840842E+01  0.11830533491E+02  0.18726418340E+02  0.00000000000E+00 0.  1.
         11    1    3    3    0    0  0.37127493007E+02 -0.96129053687E+01 -0.11250165139E+02  0.39967798320E+02  0.51100000000E-03 0. -1.
        -11    1    3    3    0    0  0.28656810380E+01 -0.73572811642E+00  0.43045406950E+01  0.52232647385E+01  0.51100000000E-03 0.  1.
        -12    1    3    3    0    0 -0.25758213770E+02  0.75055494009E+01 -0.48849090470E+01  0.27270518602E+02  0.00000000000E+00 0.  1.
</event>
<event>
 7    1  0.3440346E-013  0.7246157E+02  0.7816164E-02  0.1226708E+00
        -11   -1    0    0    0    0  0.00000000000E+00  0.00000000000E+00  0.45593999997E+02  0.45594000000E+02  0.51100000000E-03 0.  1.
         11   -1    0    0    0    0 -0.00000000000E+00 -0.00000000000E+00 -0.45593999997E+02  0.45594000000E+02  0.51100000000E-03 0. -1.
    9900012    2    1    2    0    0 -0.10032856837E+02  0.52827167335E+01 -0.14903483720E+02  0.72461571099E+02  0.70000001048E+02 0.  0.
        -12    1    1    2    0    0  0.10032856837E+02 -0.52827167335E+01  0.14903483720E+02  0.18726428901E+02  0.00000000000E+00 0.  1.
         11    1    3    3    0    0  0.14340268159E+02  0.96365033096E+01 -0.92953130827E+01  0.19619080826E+02  0.51100000000E-03 0. -1.
        -11    1    3    3    0    0  0.66947811447E+00 -0.13496728103E+02  0.14220748755E+02  0.19617328203E+02  0.51100000000E-03 0.  1.
         12    1    3    3    0    0 -0.25042603110E+02  0.91429415264E+01 -0.19828919392E+02  0.33225162069E+02  0.00000000000E+00 0. -1.
</event>
<event>
 7    1  0.3440346E-013  0.7246154E+02  0.7816164E-02  0.1226708E+00
        -11   -1    0    0    0    0  0.00000000000E+00  0.00000000000E+00  0.45593999997E+02  0.45594000000E+02  0.51100000000E-03 0.  1.
         11   -1    0    0    0    0 -0.00000000000E+00 -0.00000000000E+00 -0.45593999997E+02  0.45594000000E+02  0.51100000000E-03 0. -1.
    9900012    2    1    2    0    0  0.18208847685E+02 -0.54806545194E+00 -0.43379502922E+01  0.72461539510E+02  0.69999959897E+02 0.  0.
        -12    1    1    2    0    0 -0.18208847685E+02  0.54806545194E+00  0.43379502922E+01  0.18726460490E+02  0.00000000000E+00 0.  1.
         11    1    3    3    0    0 -0.26928449536E+01  0.22821953242E+01 -0.29597699402E+02  0.29807442688E+02  0.51100000000E-03 0. -1.
        -11    1    3    3    0    0  0.18575953474E+02 -0.60917573750E+01  0.26922366655E+01  0.19733821067E+02  0.51100000000E-03 0.  1.
         12    1    3    3    0    0  0.23257391648E+01  0.32614965988E+01  0.22567512445E+02  0.22920275755E+02  0.00000000000E+00 0. -1.
</event>
<event>
 7    1  0.3440346E-013  0.7246155E+02  0.7816164E-02  0.1226708E+00
        -11   -1    0    0    0    0  0.00000000000E+00  0.00000000000E+00  0.45593999997E+02  0.45594000000E+02  0.51100000000E-03 0.  1.
         11   -1    0    0    0    0 -0.00000000000E+00 -0.00000000000E+00 -0.45593999997E+02  0.45594000000E+02  0.51100000000E-03 0. -1.
    9900012    2    1    2    0    0 -0.70616407030E+01  0.16859382120E+02 -0.40711508779E+01  0.72461553344E+02  0.69999977919E+02 0.  0.
        -12    1    1    2    0    0  0.70616407030E+01 -0.16859382120E+02  0.40711508779E+01  0.18726446656E+02  0.00000000000E+00 0.  1.
         11    1    3    3    0    0 -0.30054265894E+01  0.25334301790E+02 -0.20062059349E+02  0.32455287115E+02  0.51100000000E-03 0.  1.
        -11    1    3    3    0    0  0.61396450062E+01  0.97552805642E+01 -0.28533065780E+01  0.11874430444E+02  0.51100000000E-03 0. -1.
        -12    1    3    3    0    0 -0.10195859120E+02 -0.18230200234E+02  0.18844215049E+02  0.28131835784E+02  0.00000000000E+00 0.  1.
</event>
<event>
 7    1  0.3440346E-013  0.7246166E+02  0.7816164E-02  0.1226708E+00
        -11   -1    0    0    0    0  0.00000000000E+00  0.00000000000E+00  0.45593999997E+02  0.45594000000E+02  0.51100000000E-03 0.  1.
         11   -1    0    0    0    0 -0.00000000000E+00 -0.00000000000E+00 -0.45593999997E+02  0.45594000000E+02  0.51100000000E-03 0. -1.
    9900012    2    1    2    0    0 -0.17454284436E+01  0.15791335720E+02 -0.99127625797E+01  0.72461663833E+02  0.70000121851E+02 0.  0.
        -12    1    1    2    0    0  0.17454284436E+01 -0.15791335720E+02  0.99127625797E+01  0.18726336167E+02  0.00000000000E+00 0.  1.
         11    1    3    3    0    0  0.29140211597E+02  0.19106607219E+01 -0.88363495905E+01  0.30510385620E+02  0.51100000000E-03 0. -1.
        -11    1    3    3    0    0  0.53722872156E+00 -0.45712932602E+01 -0.29435500455E+01  0.54634992359E+01  0.51100000000E-03 0.  1.
         12    1    3    3    0    0 -0.31422868763E+02  0.18451968258E+02  0.18671370563E+01  0.36487778977E+02  0.00000000000E+00 0. -1.
</event>
<event>
 7    1  0.3440346E-013  0.7246161E+02  0.7816164E-02  0.1226708E+00
        -11   -1    0    0    0    0  0.00000000000E+00  0.00000000000E+00  0.45593999997E+02  0.45594000000E+02  0.51100000000E-03 0.  1.
         11   -1    0    0    0    0 -0.00000000000E+00 -0.00000000000E+00 -0.45593999997E+02  0.45594000000E+02  0.51100000000E-03 0. -1.
    9900012    2    1    2    0    0  0.84426795019E+01  0.27885105541E+01 -0.16480993513E+02  0.72461607516E+02  0.70000048488E+02 0.  0.
        -12    1    1    2    0    0 -0.84426795019E+01 -0.27885105541E+01  0.16480993513E+02  0.18726392484E+02  0.00000000000E+00 0.  1.
         11    1    3    3    0    0 -0.47449280603E+01  0.14280750839E+02 -0.97649035370E+01  0.17938994625E+02  0.51100000000E-03 0. -1.
        -11    1    3    3    0    0  0.58666154367E+01  0.11646999857E+02  0.16435837636E+02  0.20981099624E+02  0.51100000000E-03 0.  1.
         12    1    3    3    0    0  0.73209921256E+01 -0.23139240142E+02 -0.23151927613E+02  0.33541513267E+02  0.00000000000E+00 0. -1.
</event>
<event>
 7    1  0.3440346E-013  0.7246159E+02  0.7816164E-02  0.1226708E+00
        -11   -1    0    0    0    0  0.00000000000E+00  0.00000000000E+00  0.45593999997E+02  0.45594000000E+02  0.51100000000E-03 0.  1.
         11   -1    0    0    0    0 -0.00000000000E+00 -0.00000000000E+00 -0.45593999997E+02  0.45594000000E+02  0.51100000000E-03 0. -1.
    9900012    2    1    2    0    0  0.14833929192E+02  0.66300279845E+01 -0.93099887423E+01  0.72461585054E+02  0.70000019227E+02 0.  0.
        -12    1    1    2    0    0 -0.14833929192E+02 -0.66300279845E+01  0.93099887423E+01  0.18726414946E+02  0.00000000000E+00 0.  1.
         11    1    3    3    0    0  0.13524621721E+02  0.52435428386E+01 -0.17653209541E+02  0.22848324699E+02  0.51100000000E-03 0. -1.
        -11    1    3    3    0    0  0.19656129026E+02 -0.75885253593E+01  0.17347049108E+02  0.27292292656E+02  0.51100000000E-03 0.  1.
        -12    1    3    3    0    0 -0.18346821555E+02  0.89750105052E+01 -0.90038283093E+01  0.22320967698E+02  0.00000000000E+00 0.  1.
</event>
<event>
 7    1  0.3440346E-013  0.7246155E+02  0.7816164E-02  0.1226708E+00
        -11   -1    0    0    0    0  0.00000000000E+00  0.00000000000E+00  0.45593999997E+02  0.45594000000E+02  0.51100000000E-03 0.  1.
         11   -1    0    0    0    0 -0.00000000000E+00 -0.00000000000E+00 -0.45593999997E+02  0.45594000000E+02  0.51100000000E-03 0. -1.
    9900012    2    1    2    0    0 -0.18106944887E+02  0.32238678833E+01 -0.35249423325E+01  0.72461548235E+02  0.69999971264E+02 0.  0.
        -12    1    1    2    0    0  0.18106944887E+02 -0.32238678833E+01  0.35249423325E+01  0.18726451765E+02  0.00000000000E+00 0.  1.
         11    1    3    3    0    0 -0.12771412690E+02 -0.50275375058E+00 -0.13279928683E+02  0.18431447298E+02  0.51100000000E-03 0. -1.
        -11    1    3    3    0    0  0.77630361508E+01 -0.20380361906E+02 -0.56992248590E+01  0.22541185549E+02  0.51100000000E-03 0.  1.
         12    1    3    3    0    0 -0.13098568348E+02  0.24106983540E+02  0.15454211210E+02  0.31488915387E+02  0.00000000000E+00 0. -1.
</event>
<event>
 7    1  0.3440346E-013  0.7246162E+02  0.7816164E-02  0.1226708E+00
        -11   -1    0    0    0    0  0.00000000000E+00  0.00000000000E+00  0.45593999997E+02  0.45594000000E+02  0.51100000000E-03 0. -1.
         11   -1    0    0    0    0 -0.00000000000E+00 -0.00000000000E+00 -0.45593999997E+02  0.45594000000E+02  0.51100000000E-03 0.  1.
    9900012    2    1    2    0    0 -0.14748345400E+02 -0.46355211133E+01  0.10567664115E+02  0.72461620936E+02  0.70000065970E+02 0.  0.
        -12    1    1    2    0    0  0.14748345400E+02  0.46355211133E+01 -0.10567664115E+02  0.18726379064E+02  0.00000000000E+00 0.  1.
         11    1    3    3    0    0  0.93070214044E+01  0.55081541221E+01  0.25032028555E+02  0.27268349108E+02  0.51100000000E-03 0.  1.
        -11    1    3    3    0    0 -0.16510291536E+01 -0.13473540432E+01  0.10383107709E+02  0.10599537072E+02  0.51100000000E-03 0. -1.
        -12    1    3    3    0    0 -0.22404337650E+02 -0.87963211923E+01 -0.24847472150E+02  0.34593734755E+02  0.00000000000E+00 0.  1.
</event>
<event>
 7    1  0.3440346E-013  0.7246155E+02  0.7816164E-02  0.1226708E+00
        -11   -1    0    0    0    0  0.00000000000E+00  0.00000000000E+00  0.45593999997E+02  0.45594000000E+02  0.51100000000E-03 0.  1.
         11   -1    0    0    0    0 -0.00000000000E+00 -0.00000000000E+00 -0.45593999997E+02  0.45594000000E+02  0.51100000000E-03 0. -1.
    9900012    2    1    2    0    0 -0.13210919133E+02  0.13100807121E+02 -0.21261162477E+01  0.72461550740E+02  0.69999974527E+02 0.  0.
        -12    1    1    2    0    0  0.13210919133E+02 -0.13100807121E+02  0.21261162477E+01  0.18726449260E+02  0.00000000000E+00 0.  1.
         11    1    3    3    0    0  0.15693978872E+02  0.47272547142E+01 -0.26362990946E+02  0.31042796296E+02  0.51100000000E-03 0. -1.
        -11    1    3    3    0    0 -0.34943389658E+01  0.72206377884E+01  0.74070831004E+01  0.10918465790E+02  0.51100000000E-03 0.  1.
        -12    1    3    3    0    0 -0.25410559039E+02  0.11529146189E+01  0.16829791598E+02  0.30500288655E+02  0.00000000000E+00 0.  1.
</event>
<event>
 7    1  0.3440346E-013  0.7246156E+02  0.7816164E-02  0.1226708E+00
        -11   -1    0    0    0    0  0.00000000000E+00  0.00000000000E+00  0.45593999997E+02  0.45594000000E+02  0.51100000000E-03 0.  1.
         11   -1    0    0    0    0 -0.00000000000E+00 -0.00000000000E+00 -0.45593999997E+02  0.45594000000E+02  0.51100000000E-03 0. -1.
    9900012    2    1    2    0    0 -0.21337755919E+01  0.96936655250E+01 -0.15879529833E+02  0.72461558338E+02  0.69999984425E+02 0.  0.
        -12    1    1    2    0    0  0.21337755919E+01 -0.96936655250E+01  0.15879529833E+02  0.18726441662E+02  0.00000000000E+00 0.  1.
         11    1    3    3    0    0  0.89004121313E+01  0.27880989585E+01 -0.23281195152E+02  0.25079969695E+02  0.51100000000E-03 0. -1.
        -11    1    3    3    0    0 -0.25618792305E+02 -0.17140734648E+01 -0.52877103319E+01  0.26214889811E+02  0.51100000000E-03 0.  1.
        -12    1    3    3    0    0  0.14584604581E+02  0.86196400312E+01  0.12689375651E+02  0.21166698832E+02  0.00000000000E+00 0.  1.
</event>
<event>
 7    1  0.3440346E-013  0.7246155E+02  0.7816164E-02  0.1226708E+00
        -11   -1    0    0    0    0  0.00000000000E+00  0.00000000000E+00  0.45593999997E+02  0.45594000000E+02  0.51100000000E-03 0.  1.
         11   -1    0    0    0    0 -0.00000000000E+00 -0.00000000000E+00 -0.45593999997E+02  0.45594000000E+02  0.51100000000E-03 0. -1.
    9900012    2    1    2    0    0  0.16697926467E+02 -0.82308734037E+01  0.20277467803E+01  0.72461553934E+02  0.69999978687E+02 0.  0.
        -12    1    1    2    0    0 -0.16697926467E+02  0.82308734037E+01 -0.20277467803E+01  0.18726446066E+02  0.00000000000E+00 0.  1.
         11    1    3    3    0    0  0.22138799474E+02 -0.50992417265E+01  0.17647240689E+02  0.28767235052E+02  0.51100000000E-03 0. -1.
        -11    1    3    3    0    0  0.11037516538E+02 -0.16126414711E+02 -0.10086180749E+02  0.21991340685E+02  0.51100000000E-03 0.  1.
         12    1    3    3    0    0 -0.16478389545E+02  0.12994783034E+02 -0.55333131597E+01  0.21702978197E+02  0.00000000000E+00 0. -1.
</event>
<event>
 7    1  0.3440346E-013  0.7246156E+02  0.7816164E-02  0.1226708E+00
        -11   -1    0    0    0    0  0.00000000000E+00  0.00000000000E+00  0.45593999997E+02  0.45594000000E+02  0.51100000000E-03 0.  1.
         11   -1    0    0    0    0 -0.00000000000E+00 -0.00000000000E+00 -0.45593999997E+02  0.45594000000E+02  0.51100000000E-03 0. -1.
    9900012    2    1    2    0    0 -0.11083168777E+02 -0.64154288792E+01 -0.13663276151E+02  0.72461562191E+02  0.69999989444E+02 0.  0.
        -12    1    1    2    0    0  0.11083168777E+02  0.64154288792E+01  0.13663276151E+02  0.18726437809E+02  0.00000000000E+00 0.  1.
         11    1    3    3    0    0  0.13509745562E+02 -0.17858139213E+02 -0.24593814875E+02  0.33260819167E+02  0.51100000000E-03 0. -1.
        -11    1    3    3    0    0 -0.46039837061E+00  0.88516875097E+01 -0.49921105247E+01  0.10172782617E+02  0.51100000000E-03 0.  1.
        -12    1    3    3    0    0 -0.24132515968E+02  0.25910228238E+01  0.15922649249E+02  0.29027960406E+02  0.00000000000E+00 0.  1.
</event>
<event>
 7    1  0.3440346E-013  0.7246159E+02  0.7816164E-02  0.1226708E+00
        -11   -1    0    0    0    0  0.00000000000E+00  0.00000000000E+00  0.45593999997E+02  0.45594000000E+02  0.51100000000E-03 0. -1.
         11   -1    0    0    0    0 -0.00000000000E+00 -0.00000000000E+00 -0.45593999997E+02  0.45594000000E+02  0.51100000000E-03 0.  1.
    9900012    2    1    2    0    0 -0.18705272564E+02  0.46512112974E+00 -0.75827452440E+00  0.72461587113E+02  0.70000021910E+02 0.  0.
        -12    1    1    2    0    0  0.18705272564E+02 -0.46512112974E+00  0.75827452440E+00  0.18726412887E+02  0.00000000000E+00 0.  1.
         11    1    3    3    0    0  0.11191069700E+02 -0.11374041522E+02  0.12720089033E+02  0.20406114938E+02  0.51100000000E-03 0. -1.
        -11    1    3    3    0    0  0.46959108139E+00  0.98383633584E+01  0.96831284585E+01  0.13812200634E+02  0.51100000000E-03 0.  1.
        -12    1    3    3    0    0 -0.30365933346E+02  0.20007992930E+01 -0.23161492016E+02  0.38243271541E+02  0.00000000000E+00 0.  1.
</event>
<event>
 7    1  0.3440346E-013  0.7246137E+02  0.7816164E-02  0.1226709E+00
        -11   -1    0    0    0    0  0.00000000000E+00  0.00000000000E+00  0.45593999997E+02  0.45594000000E+02  0.51100000000E-03 0. -1.
         11   -1    0    0    0    0 -0.00000000000E+00 -0.00000000000E+00 -0.45593999997E+02  0.45594000000E+02  0.51100000000E-03 0.  1.
    9900012    2    1    2    0    0  0.10994425892E-01  0.17790933814E+02  0.58454479720E+01  0.72461368994E+02  0.69999737768E+02 0.  0.
        -12    1    1    2    0    0 -0.10994425892E-01 -0.17790933814E+02 -0.58454479720E+01  0.18726631006E+02  0.00000000000E+00 0.  1.
         11    1    3    3    0    0  0.17367632000E+02  0.24906864229E+02  0.82789785367E+01  0.31472655002E+02  0.51100000000E-03 0. -1.
        -11    1    3    3    0    0  0.21948138771E+01 -0.57250462234E+01 -0.16010845369E+02  0.17144693987E+02  0.51100000000E-03 0.  1.
        -12    1    3    3    0    0 -0.19551451452E+02 -0.13908841915E+01  0.13577314805E+02  0.23844020005E+02  0.00000000000E+00 0.  1.
</event>
<event>
 7    1  0.3440346E-013  0.7246153E+02  0.7816164E-02  0.1226708E+00
        -11   -1    0    0    0    0  0.00000000000E+00  0.00000000000E+00  0.45593999997E+02  0.45594000000E+02  0.51100000000E-03 0.  1.
         11   -1    0    0    0    0 -0.00000000000E+00 -0.00000000000E+00 -0.45593999997E+02  0.45594000000E+02  0.51100000000E-03 0. -1.
    9900012    2    1    2    0    0  0.19729758566E+01  0.14716316365E+02 -0.11411312036E+02  0.72461530940E+02  0.69999948733E+02 0.  0.
        -12    1    1    2    0    0 -0.19729758566E+01 -0.14716316365E+02  0.11411312036E+02  0.18726469060E+02  0.00000000000E+00 0.  1.
         11    1    3    3    0    0  0.26928853085E+02 -0.13002411440E+02 -0.15112434816E+02  0.33505395357E+02  0.51100000000E-03 0.  1.
        -11    1    3    3    0    0 -0.22436124685E+00 -0.85181682736E+00 -0.35806025894E+00  0.95086133932E+00  0.51100000000E-03 0. -1.
        -12    1    3    3    0    0 -0.24731515981E+02  0.28570544632E+02  0.40591830392E+01  0.38005274243E+02  0.00000000000E+00 0.  1.
</event>
<event>
 7    1  0.3440346E-013  0.7246166E+02  0.7816164E-02  0.1226708E+00
        -11   -1    0    0    0    0  0.00000000000E+00  0.00000000000E+00  0.45593999997E+02  0.45594000000E+02  0.51100000000E-03 0. -1.
         11   -1    0    0    0    0 -0.00000000000E+00 -0.00000000000E+00 -0.45593999997E+02  0.45594000000E+02  0.51100000000E-03 0.  1.
    9900012    2    1    2    0    0  0.14238467198E+02  0.11747956127E+02 -0.31507749988E+01  0.72461660144E+02  0.70000117046E+02 0.  0.
        -12    1    1    2    0    0 -0.14238467198E+02 -0.11747956127E+02  0.31507749988E+01  0.18726339856E+02  0.00000000000E+00 0.  1.
         11    1    3    3    0    0 -0.48257873184E+01 -0.16321487049E+02  0.21399029470E+02  0.27342231534E+02  0.51100000000E-03 0. -1.
        -11    1    3    3    0    0  0.18893205090E+01 -0.22842034313E+01 -0.15813031542E+01  0.33597079081E+01  0.51100000000E-03 0.  1.
         12    1    3    3    0    0  0.17174934007E+02  0.30353646607E+02 -0.22968501315E+02  0.41759720702E+02  0.00000000000E+00 0. -1.
</event>
<event>
 7    1  0.3440346E-013  0.7246161E+02  0.7816164E-02  0.1226708E+00
        -11   -1    0    0    0    0  0.00000000000E+00  0.00000000000E+00  0.45593999997E+02  0.45594000000E+02  0.51100000000E-03 0. -1.
         11   -1    0    0    0    0 -0.00000000000E+00 -0.00000000000E+00 -0.45593999997E+02  0.45594000000E+02  0.51100000000E-03 0.  1.
    9900012    2    1    2    0    0 -0.17299193337E+02 -0.71702661892E+01  0.54723670597E-01  0.72461606807E+02  0.70000047565E+02 0.  0.
        -12    1    1    2    0    0  0.17299193337E+02  0.71702661892E+01 -0.54723670597E-01  0.18726393193E+02  0.00000000000E+00 0.  1.
         11    1    3    3    0    0  0.44963991581E+01  0.96618519811E+01  0.10973789732E+02  0.15296831385E+02  0.51100000000E-03 0. -1.
        -11    1    3    3    0    0 -0.19153427694E+02 -0.78376574242E+01  0.17585937902E+02  0.27157832728E+02  0.51100000000E-03 0.  1.
        -12    1    3    3    0    0 -0.26421648010E+01 -0.89944607461E+01 -0.28505003963E+02  0.30006942695E+02  0.00000000000E+00 0.  1.
</event>
<event>
 7    1  0.3440346E-013  0.7246159E+02  0.7816164E-02  0.1226708E+00
        -11   -1    0    0    0    0  0.00000000000E+00  0.00000000000E+00  0.45593999997E+02  0.45594000000E+02  0.51100000000E-03 0. -1.
         11   -1    0    0    0    0 -0.00000000000E+00 -0.00000000000E+00 -0.45593999997E+02  0.45594000000E+02  0.51100000000E-03 0.  1.
    9900012    2    1    2    0    0 -0.39822202236E+01 -0.13311439973E+01  0.18249618650E+02  0.72461585418E+02  0.70000019701E+02 0.  0.
        -12    1    1    2    0    0  0.39822202236E+01  0.13311439973E+01 -0.18249618650E+02  0.18726414582E+02  0.00000000000E+00 0.  1.
         11    1    3    3    0    0  0.15651567165E+02 -0.22832271036E+02  0.29266947631E+02  0.40284468214E+02  0.51100000000E-03 0. -1.
        -11    1    3    3    0    0 -0.14179756781E+01  0.15103368206E+01  0.13139987374E+01  0.24532356752E+01  0.51100000000E-03 0.  1.
        -12    1    3    3    0    0 -0.18215811711E+02  0.19990790218E+02 -0.12331327719E+02  0.29723881529E+02  0.00000000000E+00 0.  1.
</event>
<event>
 7    1  0.3440346E-013  0.7246158E+02  0.7816164E-02  0.1226708E+00
        -11   -1    0    0    0    0  0.00000000000E+00  0.00000000000E+00  0.45593999997E+02  0.45594000000E+02  0.51100000000E-03 0.  1.
         11   -1    0    0    0    0 -0.00000000000E+00 -0.00000000000E+00 -0.45593999997E+02  0.45594000000E+02  0.51100000000E-03 0. -1.
    9900012    2    1    2    0    0  0.53033626354E+00  0.86672471675E+01 -0.16591449498E+02  0.72461584794E+02  0.70000018888E+02 0.  0.
        -12    1    1    2    0    0 -0.53033626354E+00 -0.86672471675E+01  0.16591449498E+02  0.18726415206E+02  0.00000000000E+00 0.  1.
         11    1    3    3    0    0  0.63451116321E+01 -0.13966164514E+02 -0.23587943211E+02  0.28137257472E+02  0.51100000000E-03 0. -1.
        -11    1    3    3    0    0  0.59571127621E+01  0.24785093962E+01  0.17557379262E+02  0.18705394091E+02  0.51100000000E-03 0.  1.
        -12    1    3    3    0    0 -0.11771888131E+02  0.20154902285E+02 -0.10560885550E+02  0.25618933231E+02  0.00000000000E+00 0.  1.
</event>
<event>
 7    1  0.3440346E-013  0.7246169E+02  0.7816164E-02  0.1226708E+00
        -11   -1    0    0    0    0  0.00000000000E+00  0.00000000000E+00  0.45593999997E+02  0.45594000000E+02  0.51100000000E-03 0. -1.
         11   -1    0    0    0    0 -0.00000000000E+00 -0.00000000000E+00 -0.45593999997E+02  0.45594000000E+02  0.51100000000E-03 0.  1.
    9900012    2    1    2    0    0 -0.34088106092E+00 -0.10407191963E+02  0.15564346422E+02  0.72461688991E+02  0.70000154624E+02 0.  0.
        -12    1    1    2    0    0  0.34088106092E+00  0.10407191963E+02 -0.15564346422E+02  0.18726311009E+02  0.00000000000E+00 0.  1.
         11    1    3    3    0    0  0.25536175316E+01  0.61486425388E+00  0.26557409711E+02  0.26686982432E+02  0.51100000000E-03 0. -1.
        -11    1    3    3    0    0 -0.37390951510E+01  0.16023445621E+02  0.29331926337E+00  0.16456539083E+02  0.51100000000E-03 0.  1.
         12    1    3    3    0    0  0.84459655846E+00 -0.27045501838E+02 -0.11286382552E+02  0.29318167476E+02  0.00000000000E+00 0. -1.
</event>
<event>
 7    1  0.3440346E-013  0.7246160E+02  0.7816164E-02  0.1226708E+00
        -11   -1    0    0    0    0  0.00000000000E+00  0.00000000000E+00  0.45593999997E+02  0.45594000000E+02  0.51100000000E-03 0. -1.
         11   -1    0    0    0    0 -0.00000000000E+00 -0.00000000000E+00 -0.45593999997E+02  0.45594000000E+02  0.51100000000E-03 0.  1.
    9900012    2    1    2    0    0  0.17270999862E+02  0.68508300254E+01  0.23359884498E+01  0.72461597508E+02  0.70000035451E+02 0.  0.
        -12    1    1    2    0    0 -0.17270999862E+02 -0.68508300254E+01 -0.23359884498E+01  0.18726402492E+02  0.00000000000E+00 0.  1.
         11    1    3    3    0    0  0.39424436100E+02  0.55037961673E+01  0.16891922580E+02  0.43242513603E+02  0.51100000000E-03 0. -1.
        -11    1    3    3    0    0 -0.27097129345E+01  0.47470758453E+01 -0.19751260790E+01  0.58119184920E+01  0.51100000000E-03 0.  1.
        -12    1    3    3    0    0 -0.19443723303E+02 -0.34000419872E+01 -0.12580808052E+02  0.23407165412E+02  0.00000000000E+00 0.  1.
</event>
<event>
 7    1  0.3440346E-013  0.7246165E+02  0.7816164E-02  0.1226708E+00
        -11   -1    0    0    0    0  0.00000000000E+00  0.00000000000E+00  0.45593999997E+02  0.45594000000E+02  0.51100000000E-03 0.  1.
         11   -1    0    0    0    0 -0.00000000000E+00 -0.00000000000E+00 -0.45593999997E+02  0.45594000000E+02  0.51100000000E-03 0. -1.
    9900012    2    1    2    0    0  0.94206974308E+01 -0.56218593180E+01 -0.15176340827E+02  0.72461650565E+02  0.70000104567E+02 0.  0.
        -12    1    1    2    0    0 -0.94206974308E+01  0.56218593180E+01  0.15176340827E+02  0.18726349435E+02  0.00000000000E+00 0.  1.
         11    1    3    3    0    0  0.49366247578E+01  0.35356767470E+01 -0.22840568661E+02  0.23633934312E+02  0.51100000000E-03 0. -1.
        -11    1    3    3    0    0  0.11708806782E+02  0.75524760312E+01 -0.14524135502E+02  0.20126762353E+02  0.51100000000E-03 0.  1.
        -12    1    3    3    0    0 -0.72247341095E+01 -0.16710012096E+02  0.22188363336E+02  0.28700953900E+02  0.00000000000E+00 0.  1.
</event>
<event>
 7    1  0.3440346E-013  0.7246157E+02  0.7816164E-02  0.1226708E+00
        -11   -1    0    0    0    0  0.00000000000E+00  0.00000000000E+00  0.45593999997E+02  0.45594000000E+02  0.51100000000E-03 0.  1.
         11   -1    0    0    0    0 -0.00000000000E+00 -0.00000000000E+00 -0.45593999997E+02  0.45594000000E+02  0.51100000000E-03 0. -1.
    9900012    2    1    2    0    0 -0.30944311413E+01 -0.15786779724E+02 -0.95854745375E+01  0.72461568406E+02  0.69999997540E+02 0.  0.
        -12    1    1    2    0    0  0.30944311413E+01  0.15786779724E+02  0.95854745375E+01  0.18726431594E+02  0.00000000000E+00 0.  1.
         11    1    3    3    0    0 -0.11208413057E+02 -0.35231761874E+02 -0.20217395489E+02  0.42138446205E+02  0.51100000000E-03 0. -1.
        -11    1    3    3    0    0 -0.44086208942E+01  0.35017220990E+01 -0.25086384843E+01  0.61637053104E+01  0.51100000000E-03 0.  1.
        -12    1    3    3    0    0  0.12522602810E+02  0.15943260051E+02  0.13140559436E+02  0.24159416890E+02  0.00000000000E+00 0.  1.
</event>
<event>
 7    1  0.3440346E-013  0.7246155E+02  0.7816164E-02  0.1226708E+00
        -11   -1    0    0    0    0  0.00000000000E+00  0.00000000000E+00  0.45593999997E+02  0.45594000000E+02  0.51100000000E-03 0.  1.
         11   -1    0    0    0    0 -0.00000000000E+00 -0.00000000000E+00 -0.45593999997E+02  0.45594000000E+02  0.51100000000E-03 0. -1.
    9900012    2    1    2    0    0 -0.68706214254E+01  0.13904234226E+02 -0.10495086574E+02  0.72461547844E+02  0.69999970754E+02 0.  0.
        -12    1    1    2    0    0  0.68706214254E+01 -0.13904234226E+02  0.10495086574E+02  0.18726452156E+02  0.00000000000E+00 0.  1.
         11    1    3    3    0    0  0.73300944435E+01  0.80454725437E+01 -0.56504504310E+01  0.12263258268E+02  0.51100000000E-03 0. -1.
        -11    1    3    3    0    0  0.12399769416E+01 -0.25087217307E+02 -0.50152503912E+01  0.25613643860E+02  0.51100000000E-03 0.  1.
         12    1    3    3    0    0 -0.15440692810E+02  0.30945978989E+02  0.17061424820E+00  0.34584645716E+02  0.00000000000E+00 0. -1.
</event>
<event>
 7    1  0.3440346E-013  0.7246158E+02  0.7816164E-02  0.1226708E+00
        -11   -1    0    0    0    0  0.00000000000E+00  0.00000000000E+00  0.45593999997E+02  0.45594000000E+02  0.51100000000E-03 0.  1.
         11   -1    0    0    0    0 -0.00000000000E+00 -0.00000000000E+00 -0.45593999997E+02  0.45594000000E+02  0.51100000000E-03 0. -1.
    9900012    2    1    2    0    0  0.18522044359E+01  0.12865852214E+02 -0.13480282284E+02  0.72461579496E+02  0.70000011986E+02 0.  0.
        -12    1    1    2    0    0 -0.18522044359E+01 -0.12865852214E+02  0.13480282284E+02  0.18726420504E+02  0.00000000000E+00 0.  1.
         11    1    3    3    0    0 -0.18701250607E+01  0.59793115614E+01  0.10807005142E+02  0.12491632995E+02  0.51100000000E-03 0. -1.
        -11    1    3    3    0    0  0.14796674302E+02  0.49343211414E+01  0.13448104354E+02  0.20594674226E+02  0.51100000000E-03 0.  1.
         12    1    3    3    0    0 -0.11074344805E+02  0.19522195112E+01 -0.37735391780E+02  0.39375272274E+02  0.00000000000E+00 0. -1.
</event>
<event>
 7    1  0.3440346E-013  0.7246152E+02  0.7816164E-02  0.1226708E+00
        -11   -1    0    0    0    0  0.00000000000E+00  0.00000000000E+00  0.45593999997E+02  0.45594000000E+02  0.51100000000E-03 0. -1.
         11   -1    0    0    0    0 -0.00000000000E+00 -0.00000000000E+00 -0.45593999997E+02  0.45594000000E+02  0.51100000000E-03 0.  1.
    9900012    2    1    2    0    0  0.18520711117E+02 -0.74491430424E+00 -0.26663478663E+01  0.72461520124E+02  0.69999934644E+02 0.  0.
        -12    1    1    2    0    0 -0.18520711117E+02  0.74491430424E+00  0.26663478663E+01  0.18726479876E+02  0.00000000000E+00 0.  1.
         11    1    3    3    0    0  0.24039360493E+02 -0.69919497936E+01 -0.19571014070E+02  0.31777394588E+02  0.51100000000E-03 0. -1.
        -11    1    3    3    0    0  0.29928114369E+01 -0.10330475956E+02 -0.50544639363E+01  0.11883739299E+02  0.51100000000E-03 0.  1.
         12    1    3    3    0    0 -0.85114608125E+01  0.16577511445E+02  0.21959130140E+02  0.28800386237E+02  0.00000000000E+00 0. -1.
</event>
<event>
 7    1  0.3440346E-013  0.7246156E+02  0.7816164E-02  0.1226708E+00
        -11   -1    0    0    0    0  0.00000000000E+00  0.00000000000E+00  0.45593999997E+02  0.45594000000E+02  0.51100000000E-03 0.  1.
         11   -1    0    0    0    0 -0.00000000000E+00 -0.00000000000E+00 -0.45593999997E+02  0.45594000000E+02  0.51100000000E-03 0. -1.
    9900012    2    1    2    0    0 -0.79824714711E+01  0.15914424019E+02 -0.58043690521E+01  0.72461563000E+02  0.69999990497E+02 0.  0.
        -12    1    1    2    0    0  0.79824714711E+01 -0.15914424019E+02  0.58043690521E+01  0.18726437000E+02  0.00000000000E+00 0.  1.
         11    1    3    3    0    0  0.30017119677E+00 -0.49380777405E+01 -0.79298383662E+01  0.93464994139E+01  0.51100000000E-03 0. -1.
        -11    1    3    3    0    0 -0.13694354237E+02 -0.18646878544E+02  0.22703893443E+01  0.23246420917E+02  0.51100000000E-03 0.  1.
         12    1    3    3    0    0  0.54117115688E+01  0.39499380303E+02 -0.14492003010E+00  0.39868642669E+02  0.00000000000E+00 0. -1.
</event>
<event>
 7    1  0.3440346E-013  0.7246155E+02  0.7816164E-02  0.1226708E+00
        -11   -1    0    0    0    0  0.00000000000E+00  0.00000000000E+00  0.45593999997E+02  0.45594000000E+02  0.51100000000E-03 0. -1.
         11   -1    0    0    0    0 -0.00000000000E+00 -0.00000000000E+00 -0.45593999997E+02  0.45594000000E+02  0.51100000000E-03 0.  1.
    9900012    2    1    2    0    0  0.18559334562E+02 -0.29906508282E+00 -0.24782223270E+01  0.72461550117E+02  0.69999973715E+02 0.  0.
        -12    1    1    2    0    0 -0.18559334562E+02  0.29906508282E+00  0.24782223270E+01  0.18726449883E+02  0.00000000000E+00 0.  1.
         11    1    3    3    0    0 -0.14290317118E+02  0.17249972616E+02 -0.10141661767E+01  0.22423274780E+02  0.51100000000E-03 0. -1.
        -11    1    3    3    0    0 -0.37868516629E+01 -0.19236008274E+01 -0.85840646419E+01  0.95774031813E+01  0.51100000000E-03 0.  1.
        -12    1    3    3    0    0  0.36636503343E+02 -0.15625436871E+02  0.71200084916E+01  0.40460872155E+02  0.00000000000E+00 0.  1.
</event>
<event>
 7    1  0.3440346E-013  0.7246155E+02  0.7816164E-02  0.1226708E+00
        -11   -1    0    0    0    0  0.00000000000E+00  0.00000000000E+00  0.45593999997E+02  0.45594000000E+02  0.51100000000E-03 0.  1.
         11   -1    0    0    0    0 -0.00000000000E+00 -0.00000000000E+00 -0.45593999997E+02  0.45594000000E+02  0.51100000000E-03 0. -1.
    9900012    2    1    2    0    0 -0.45055049161E+01  0.18153190162E+02 -0.91754543242E+00  0.72461554068E+02  0.69999978862E+02 0.  0.
        -12    1    1    2    0    0  0.45055049161E+01 -0.18153190162E+02  0.91754543242E+00  0.18726445932E+02  0.00000000000E+00 0.  1.
         11    1    3    3    0    0  0.15443472003E+02  0.28485848099E+01 -0.19078220111E+02  0.24710195179E+02  0.51100000000E-03 0. -1.
        -11    1    3    3    0    0  0.68623906758E+01 -0.60209780317E+01  0.76676248887E+01  0.11922124556E+02  0.51100000000E-03 0.  1.
        -12    1    3    3    0    0 -0.26811367595E+02  0.21325583384E+02  0.10493049790E+02  0.35829234333E+02  0.00000000000E+00 0.  1.
</event>
<event>
 7    1  0.3440346E-013  0.7246156E+02  0.7816164E-02  0.1226708E+00
        -11   -1    0    0    0    0  0.00000000000E+00  0.00000000000E+00  0.45593999997E+02  0.45594000000E+02  0.51100000000E-03 0.  1.
         11   -1    0    0    0    0 -0.00000000000E+00 -0.00000000000E+00 -0.45593999997E+02  0.45594000000E+02  0.51100000000E-03 0. -1.
    9900012    2    1    2    0    0  0.48577328945E-02  0.90930599685E+01 -0.16370571732E+02  0.72461564621E+02  0.69999992609E+02 0.  0.
        -12    1    1    2    0    0 -0.48577328945E-02 -0.90930599685E+01  0.16370571732E+02  0.18726435379E+02  0.00000000000E+00 0.  1.
         11    1    3    3    0    0 -0.29983610196E+01 -0.17532442811E+02 -0.11619877158E+02  0.21246135299E+02  0.51100000000E-03 0. -1.
        -11    1    3    3    0    0  0.10496579402E+02 -0.67573549024E+00  0.13812408155E+02  0.17361377160E+02  0.51100000000E-03 0.  1.
         12    1    3    3    0    0 -0.74933606492E+01  0.27301238270E+02 -0.18563102728E+02  0.33854052162E+02  0.00000000000E+00 0. -1.
</event>
<event>
 7    1  0.3440346E-013  0.7246139E+02  0.7816164E-02  0.1226708E+00
        -11   -1    0    0    0    0  0.00000000000E+00  0.00000000000E+00  0.45593999997E+02  0.45594000000E+02  0.51100000000E-03 0.  1.
         11   -1    0    0    0    0 -0.00000000000E+00 -0.00000000000E+00 -0.45593999997E+02  0.45594000000E+02  0.51100000000E-03 0. -1.
    9900012    2    1    2    0    0  0.12402161342E+02 -0.13602385097E+02 -0.34419921578E+01  0.72461393358E+02  0.69999769508E+02 0.  0.
        -12    1    1    2    0    0 -0.12402161342E+02  0.13602385097E+02  0.34419921578E+01  0.18726606642E+02  0.00000000000E+00 0.  1.
         11    1    3    3    0    0 -0.13705677291E+01 -0.30009191297E+02  0.14429354755E+01  0.30075107335E+02  0.51100000000E-03 0. -1.
        -11    1    3    3    0    0  0.79391405491E+01 -0.85541820258E+01  0.75458174559E+01  0.13897602100E+02  0.51100000000E-03 0.  1.
        -12    1    3    3    0    0  0.58335885223E+01  0.24960988225E+02 -0.12430745089E+02  0.28488683924E+02  0.00000000000E+00 0.  1.
</event>
<event>
 7    1  0.3440346E-013  0.7246152E+02  0.7816164E-02  0.1226708E+00
        -11   -1    0    0    0    0  0.00000000000E+00  0.00000000000E+00  0.45593999997E+02  0.45594000000E+02  0.51100000000E-03 0.  1.
         11   -1    0    0    0    0 -0.00000000000E+00 -0.00000000000E+00 -0.45593999997E+02  0.45594000000E+02  0.51100000000E-03 0. -1.
    9900012    2    1    2    0    0 -0.67951256028E+01 -0.13979334139E+02  0.10444404341E+02  0.72461518831E+02  0.69999932960E+02 0.  0.
        -12    1    1    2    0    0  0.67951256028E+01  0.13979334139E+02 -0.10444404341E+02  0.18726481169E+02  0.00000000000E+00 0.  1.
         11    1    3    3    0    0  0.80927472882E-01 -0.79099955838E+01  0.93037227482E+01  0.12212036547E+02  0.51100000000E-03 0. -1.
        -11    1    3    3    0    0 -0.86050861417E+00  0.23557126638E+02 -0.12950168395E+02  0.26895827785E+02  0.51100000000E-03 0.  1.
         12    1    3    3    0    0 -0.60155444615E+01 -0.29626465194E+02  0.14090849988E+02  0.33353654499E+02  0.00000000000E+00 0. -1.
</event>
<event>
 7    1  0.3440346E-013  0.7246158E+02  0.7816164E-02  0.1226708E+00
        -11   -1    0    0    0    0  0.00000000000E+00  0.00000000000E+00  0.45593999997E+02  0.45594000000E+02  0.51100000000E-03 0. -1.
         11   -1    0    0    0    0 -0.00000000000E+00 -0.00000000000E+00 -0.45593999997E+02  0.45594000000E+02  0.51100000000E-03 0.  1.
    9900012    2    1    2    0    0  0.11830226336E+02  0.13295005110E+02  0.58281438196E+01  0.72461583460E+02  0.70000017151E+02 0.  0.
        -12    1    1    2    0    0 -0.11830226336E+02 -0.13295005110E+02 -0.58281438196E+01  0.18726416540E+02  0.00000000000E+00 0.  1.
         11    1    3    3    0    0 -0.65568429774E+01  0.92427209613E+01  0.69462389636E+01  0.13291738660E+02  0.51100000000E-03 0. -1.
        -11    1    3    3    0    0 -0.19044768908E+02 -0.19504464196E+01 -0.78054524890E+01  0.20674442020E+02  0.51100000000E-03 0.  1.
         12    1    3    3    0    0  0.37431838222E+02  0.60027305684E+01  0.66873573450E+01  0.38495402780E+02  0.00000000000E+00 0. -1.
</event>
<event>
 7    1  0.3440346E-013  0.7246149E+02  0.7816164E-02  0.1226708E+00
        -11   -1    0    0    0    0  0.00000000000E+00  0.00000000000E+00  0.45593999997E+02  0.45594000000E+02  0.51100000000E-03 0.  1.
         11   -1    0    0    0    0 -0.00000000000E+00 -0.00000000000E+00 -0.45593999997E+02  0.45594000000E+02  0.51100000000E-03 0. -1.
    9900012    2    1    2    0    0  0.17227467806E+02  0.58953102844E+01  0.43751523743E+01  0.72461487013E+02  0.69999891511E+02 0.  0.
        -12    1    1    2    0    0 -0.17227467806E+02 -0.58953102844E+01 -0.43751523743E+01  0.18726512987E+02  0.00000000000E+00 0.  1.
         11    1    3    3    0    0 -0.99393148921E+01  0.40925283613E+01  0.70372953579E+01  0.12847657184E+02  0.51100000000E-03 0. -1.
        -11    1    3    3    0    0  0.57376310783E+01  0.21431883316E+02  0.13884328721E+02  0.26172898524E+02  0.51100000000E-03 0.  1.
         12    1    3    3    0    0  0.21429151620E+02 -0.19629101393E+02 -0.16546471705E+02  0.33440931304E+02  0.00000000000E+00 0. -1.
</event>
<event>
 7    1  0.3440346E-013  0.7246224E+02  0.7816164E-02  0.1226706E+00
        -11   -1    0    0    0    0  0.00000000000E+00  0.00000000000E+00  0.45593999997E+02  0.45594000000E+02  0.51100000000E-03 0. -1.
         11   -1    0    0    0    0 -0.00000000000E+00 -0.00000000000E+00 -0.45593999997E+02  0.45594000000E+02  0.51100000000E-03 0.  1.
    9900012    2    1    2    0    0 -0.51642297259E+01 -0.65878396072E+01  0.16750678974E+02  0.72462238455E+02  0.70000870398E+02 0.  0.
        -12    1    1    2    0    0  0.51642297259E+01  0.65878396072E+01 -0.16750678974E+02  0.18725761545E+02  0.00000000000E+00 0.  1.
         11    1    3    3    0    0  0.49840613701E-01  0.83199364127E+01  0.95454226165E+00  0.83746628104E+01  0.51100000000E-03 0. -1.
        -11    1    3    3    0    0  0.22194974498E+02  0.10436034305E+02  0.91084325210E+01  0.26162783648E+02  0.51100000000E-03 0.  1.
         12    1    3    3    0    0 -0.27409044837E+02 -0.25343810325E+02  0.66877041910E+01  0.37924791997E+02  0.00000000000E+00 0. -1.
</event>
<event>
 7    1  0.3440346E-013  0.7246158E+02  0.7816164E-02  0.1226708E+00
        -11   -1    0    0    0    0  0.00000000000E+00  0.00000000000E+00  0.45593999997E+02  0.45594000000E+02  0.51100000000E-03 0.  1.
         11   -1    0    0    0    0 -0.00000000000E+00 -0.00000000000E+00 -0.45593999997E+02  0.45594000000E+02  0.51100000000E-03 0. -1.
    9900012    2    1    2    0    0  0.54086762508E+01  0.40324922959E-01 -0.17928281766E+02  0.72461583045E+02  0.70000016611E+02 0.  0.
        -12    1    1    2    0    0 -0.54086762508E+01 -0.40324922959E-01  0.17928281766E+02  0.18726416955E+02  0.00000000000E+00 0.  1.
         11    1    3    3    0    0 -0.10666456214E+02 -0.55595100945E+01 -0.19697214620E+02  0.23079465000E+02  0.51100000000E-03 0. -1.
        -11    1    3    3    0    0 -0.25232070046E+01 -0.14368094070E+02  0.13316287649E+02  0.19751764929E+02  0.51100000000E-03 0.  1.
         12    1    3    3    0    0  0.18598339469E+02  0.19967929087E+02 -0.11547354795E+02  0.29630353116E+02  0.00000000000E+00 0. -1.
</event>
<event>
 7    1  0.3440346E-013  0.7246154E+02  0.7816164E-02  0.1226708E+00
        -11   -1    0    0    0    0  0.00000000000E+00  0.00000000000E+00  0.45593999997E+02  0.45594000000E+02  0.51100000000E-03 0.  1.
         11   -1    0    0    0    0 -0.00000000000E+00 -0.00000000000E+00 -0.45593999997E+02  0.45594000000E+02  0.51100000000E-03 0. -1.
    9900012    2    1    2    0    0  0.13035550566E+02 -0.96475118200E+01 -0.93637822317E+01  0.72461535289E+02  0.69999954399E+02 0.  0.
        -12    1    1    2    0    0 -0.13035550566E+02  0.96475118200E+01  0.93637822317E+01  0.18726464711E+02  0.00000000000E+00 0.  1.
         11    1    3    3    0    0  0.29361691915E+02 -0.22672977563E+02  0.38431450769E+00  0.37098794611E+02  0.51100000000E-03 0. -1.
        -11    1    3    3    0    0  0.16501073543E+01 -0.43323711318E+01  0.46139688137E+01  0.65407187968E+01  0.51100000000E-03 0.  1.
        -12    1    3    3    0    0 -0.17976248703E+02  0.17357836875E+02 -0.14362065553E+02  0.28822021882E+02  0.00000000000E+00 0.  1.
</event>
<event>
 7    1  0.3440346E-013  0.7246152E+02  0.7816164E-02  0.1226708E+00
        -11   -1    0    0    0    0  0.00000000000E+00  0.00000000000E+00  0.45593999997E+02  0.45594000000E+02  0.51100000000E-03 0.  1.
         11   -1    0    0    0    0 -0.00000000000E+00 -0.00000000000E+00 -0.45593999997E+02  0.45594000000E+02  0.51100000000E-03 0. -1.
    9900012    2    1    2    0    0 -0.83164549002E+01  0.12334629421E+02 -0.11374298284E+02  0.72461516974E+02  0.69999930541E+02 0.  0.
        -12    1    1    2    0    0  0.83164549002E+01 -0.12334629421E+02  0.11374298284E+02  0.18726483026E+02  0.00000000000E+00 0.  1.
         11    1    3    3    0    0 -0.46657914988E+01 -0.10027874741E+02 -0.25800610906E+02  0.28071327107E+02  0.51100000000E-03 0. -1.
        -11    1    3    3    0    0  0.83638776520E+01 -0.28648179549E+01  0.13863183836E+02  0.16442308160E+02  0.51100000000E-03 0.  1.
        -12    1    3    3    0    0 -0.12014541053E+02  0.25227322117E+02  0.56312878563E+00  0.27947881707E+02  0.00000000000E+00 0.  1.
</event>
<event>
 7    1  0.3440346E-013  0.7246157E+02  0.7816164E-02  0.1226708E+00
        -11   -1    0    0    0    0  0.00000000000E+00  0.00000000000E+00  0.45593999997E+02  0.45594000000E+02  0.51100000000E-03 0.  1.
         11   -1    0    0    0    0 -0.00000000000E+00 -0.00000000000E+00 -0.45593999997E+02  0.45594000000E+02  0.51100000000E-03 0. -1.
    9900012    2    1    2    0    0  0.60588241377E+01  0.17089737372E+02 -0.46808944755E+01  0.72461568240E+02  0.69999997324E+02 0.  0.
        -12    1    1    2    0    0 -0.60588241377E+01 -0.17089737372E+02  0.46808944755E+01  0.18726431760E+02  0.00000000000E+00 0.  1.
         11    1    3    3    0    0 -0.13250334788E+02  0.28020296004E+02 -0.15707117027E+02  0.34747976714E+02  0.51100000000E-03 0. -1.
        -11    1    3    3    0    0 -0.54152966807E+01 -0.30441499584E+01 -0.43174721241E+01  0.75652397789E+01  0.51100000000E-03 0.  1.
        -12    1    3    3    0    0  0.24724455606E+02 -0.78864086744E+01  0.15343694675E+02  0.30148351747E+02  0.00000000000E+00 0.  1.
</event>
<event>
 7    1  0.3440346E-013  0.7246149E+02  0.7816164E-02  0.1226708E+00
        -11   -1    0    0    0    0  0.00000000000E+00  0.00000000000E+00  0.45593999997E+02  0.45594000000E+02  0.51100000000E-03 0. -1.
         11   -1    0    0    0    0 -0.00000000000E+00 -0.00000000000E+00 -0.45593999997E+02  0.45594000000E+02  0.51100000000E-03 0.  1.
    9900012    2    1    2    0    0  0.17690582538E+02  0.45842262247E+01  0.40878208442E+01  0.72461491520E+02  0.69999897381E+02 0.  0.
        -12    1    1    2    0    0 -0.17690582538E+02 -0.45842262247E+01 -0.40878208442E+01  0.18726508480E+02  0.00000000000E+00 0.  1.
         11    1    3    3    0    0  0.20088566726E+02  0.12032441645E+02 -0.32086158586E+01  0.23635257160E+02  0.51100000000E-03 0. -1.
        -11    1    3    3    0    0 -0.76322282777E+01  0.19440209211E+02  0.31120720596E+01  0.21115341234E+02  0.51100000000E-03 0.  1.
         12    1    3    3    0    0  0.52342440895E+01 -0.26888424632E+02  0.41843646432E+01  0.27710893126E+02  0.00000000000E+00 0. -1.
</event>
<event>
 7    1  0.3440346E-013  0.7246151E+02  0.7816164E-02  0.1226708E+00
        -11   -1    0    0    0    0  0.00000000000E+00  0.00000000000E+00  0.45593999997E+02  0.45594000000E+02  0.51100000000E-03 0. -1.
         11   -1    0    0    0    0 -0.00000000000E+00 -0.00000000000E+00 -0.45593999997E+02  0.45594000000E+02  0.51100000000E-03 0.  1.
    9900012    2    1    2    0    0  0.10148004885E+01 -0.12942867000E+02 -0.13495700127E+02  0.72461506785E+02  0.69999917268E+02 0.  0.
        -12    1    1    2    0    0 -0.10148004885E+01  0.12942867000E+02  0.13495700127E+02  0.18726493215E+02  0.00000000000E+00 0.  1.
         11    1    3    3    0    0  0.44243985042E+01  0.67153554866E+01  0.38016153136E+00  0.80508275653E+01  0.51100000000E-03 0. -1.
        -11    1    3    3    0    0 -0.16432831656E+02  0.16148826966E+02  0.20157505005E+01  0.23127598643E+02  0.51100000000E-03 0.  1.
         12    1    3    3    0    0  0.13023233641E+02 -0.35807049453E+02 -0.15891612158E+02  0.41283080578E+02  0.00000000000E+00 0. -1.
</event>
<event>
 7    1  0.3440346E-013  0.7246157E+02  0.7816164E-02  0.1226708E+00
        -11   -1    0    0    0    0  0.00000000000E+00  0.00000000000E+00  0.45593999997E+02  0.45594000000E+02  0.51100000000E-03 0.  1.
         11   -1    0    0    0    0 -0.00000000000E+00 -0.00000000000E+00 -0.45593999997E+02  0.45594000000E+02  0.51100000000E-03 0. -1.
    9900012    2    1    2    0    0 -0.16078238515E+02  0.95996706257E+01  0.12574796365E+00  0.72461568348E+02  0.69999997465E+02 0.  0.
        -12    1    1    2    0    0  0.16078238515E+02 -0.95996706257E+01 -0.12574796365E+00  0.18726431652E+02  0.00000000000E+00 0.  1.
         11    1    3    3    0    0 -0.12960778116E+02  0.24675666751E+02  0.72385817639E+01  0.28797002712E+02  0.51100000000E-03 0. -1.
        -11    1    3    3    0    0 -0.12405267430E+02  0.45520441425E+01 -0.15516361789E+02  0.20380609640E+02  0.51100000000E-03 0.  1.
        -12    1    3    3    0    0  0.92878070303E+01 -0.19628040268E+02  0.84035279885E+01  0.23283955996E+02  0.00000000000E+00 0.  1.
</event>
<event>
 7    1  0.3440346E-013  0.7246158E+02  0.7816164E-02  0.1226708E+00
        -11   -1    0    0    0    0  0.00000000000E+00  0.00000000000E+00  0.45593999997E+02  0.45594000000E+02  0.51100000000E-03 0.  1.
         11   -1    0    0    0    0 -0.00000000000E+00 -0.00000000000E+00 -0.45593999997E+02  0.45594000000E+02  0.51100000000E-03 0. -1.
    9900012    2    1    2    0    0 -0.11734172904E+02 -0.49106280995E+01 -0.13743127332E+02  0.72461584675E+02  0.70000018734E+02 0.  0.
        -12    1    1    2    0    0  0.11734172904E+02  0.49106280995E+01  0.13743127332E+02  0.18726415325E+02  0.00000000000E+00 0.  1.
         11    1    3    3    0    0 -0.23120636292E+02 -0.16478878218E+02 -0.41445895338E+01  0.28693115421E+02  0.51100000000E-03 0. -1.
        -11    1    3    3    0    0  0.10708620165E+02 -0.10530749025E+02  0.65545146558E+01  0.16386972982E+02  0.51100000000E-03 0.  1.
         12    1    3    3    0    0  0.67784322347E+00  0.22098999143E+02 -0.16153052454E+02  0.27381496273E+02  0.00000000000E+00 0. -1.
</event>
<event>
 7    1  0.3440346E-013  0.7246158E+02  0.7816164E-02  0.1226708E+00
        -11   -1    0    0    0    0  0.00000000000E+00  0.00000000000E+00  0.45593999997E+02  0.45594000000E+02  0.51100000000E-03 0.  1.
         11   -1    0    0    0    0 -0.00000000000E+00 -0.00000000000E+00 -0.45593999997E+02  0.45594000000E+02  0.51100000000E-03 0. -1.
    9900012    2    1    2    0    0  0.15353186679E+02 -0.52318626054E+00 -0.10709091038E+02  0.72461582940E+02  0.70000016473E+02 0.  0.
        -12    1    1    2    0    0 -0.15353186679E+02  0.52318626054E+00  0.10709091038E+02  0.18726417060E+02  0.00000000000E+00 0.  1.
         11    1    3    3    0    0 -0.11152392913E+02  0.65778841931E+01  0.51619989572E+00  0.12958043477E+02  0.51100000000E-03 0. -1.
        -11    1    3    3    0    0 -0.48910914764E+01 -0.22269532233E+02 -0.91666657841E+01  0.24574022942E+02  0.51100000000E-03 0.  1.
         12    1    3    3    0    0  0.31396671068E+02  0.15168461779E+02 -0.20586251496E+01  0.34929516521E+02  0.00000000000E+00 0. -1.
</event>
<event>
 7    1  0.3440346E-013  0.7246160E+02  0.7816164E-02  0.1226708E+00
        -11   -1    0    0    0    0  0.00000000000E+00  0.00000000000E+00  0.45593999997E+02  0.45594000000E+02  0.51100000000E-03 0. -1.
         11   -1    0    0    0    0 -0.00000000000E+00 -0.00000000000E+00 -0.45593999997E+02  0.45594000000E+02  0.51100000000E-03 0.  1.
    9900012    2    1    2    0    0 -0.45472517151E+01  0.23852644540E+01  0.18008641427E+02  0.72461597496E+02  0.70000035436E+02 0.  0.
        -12    1    1    2    0    0  0.45472517151E+01 -0.23852644540E+01 -0.18008641427E+02  0.18726402504E+02  0.00000000000E+00 0.  1.
         11    1    3    3    0    0  0.51929451781E+01 -0.24581595289E+01 -0.46439508477E+01  0.73875237820E+01  0.51100000000E-03 0. -1.
        -11    1    3    3    0    0 -0.94242877070E+01 -0.10781696893E+02 -0.17132793440E+02  0.22329236395E+02  0.51100000000E-03 0.  1.
         12    1    3    3    0    0 -0.31590918623E+00  0.15625120876E+02  0.39785385714E+02  0.42744837319E+02  0.00000000000E+00 0. -1.
</event>
<event>
 7    1  0.3440346E-013  0.7246160E+02  0.7816164E-02  0.1226708E+00
        -11   -1    0    0    0    0  0.00000000000E+00  0.00000000000E+00  0.45593999997E+02  0.45594000000E+02  0.51100000000E-03 0. -1.
         11   -1    0    0    0    0 -0.00000000000E+00 -0.00000000000E+00 -0.45593999997E+02  0.45594000000E+02  0.51100000000E-03 0.  1.
    9900012    2    1    2    0    0  0.12239506252E+02  0.46258711399E+01  0.13396780823E+02  0.72461603297E+02  0.70000042991E+02 0.  0.
        -12    1    1    2    0    0 -0.12239506252E+02 -0.46258711399E+01 -0.13396780823E+02  0.18726396703E+02  0.00000000000E+00 0.  1.
         11    1    3    3    0    0  0.41485171009E+01 -0.15994629119E+02 -0.23230044244E+01  0.16686362834E+02  0.51100000000E-03 0. -1.
        -11    1    3    3    0    0 -0.13293602063E+02 -0.39173979290E+01 -0.75331899940E+01  0.15773864906E+02  0.51100000000E-03 0.  1.
         12    1    3    3    0    0  0.21384591213E+02  0.24537898188E+02  0.23252975241E+02  0.40001375557E+02  0.00000000000E+00 0. -1.
</event>
<event>
 7    1  0.3440346E-013  0.7246155E+02  0.7816164E-02  0.1226708E+00
        -11   -1    0    0    0    0  0.00000000000E+00  0.00000000000E+00  0.45593999997E+02  0.45594000000E+02  0.51100000000E-03 0. -1.
         11   -1    0    0    0    0 -0.00000000000E+00 -0.00000000000E+00 -0.45593999997E+02  0.45594000000E+02  0.51100000000E-03 0.  1.
    9900012    2    1    2    0    0 -0.14924550088E+02 -0.11306571653E+02  0.31518371663E+00  0.72461545486E+02  0.69999967683E+02 0.  0.
        -12    1    1    2    0    0  0.14924550088E+02  0.11306571653E+02 -0.31518371663E+00  0.18726454514E+02  0.00000000000E+00 0.  1.
         11    1    3    3    0    0  0.57091776720E+01 -0.55477318504E+01  0.28634057859E+02  0.29720048925E+02  0.51100000000E-03 0. -1.
        -11    1    3    3    0    0  0.30823591811E+01 -0.45661811222E+01  0.34418978036E+00  0.55199107808E+01  0.51100000000E-03 0.  1.
        -12    1    3    3    0    0 -0.23716086941E+02 -0.11926586805E+01 -0.28663063923E+02  0.37221585780E+02  0.00000000000E+00 0.  1.
</event>
<event>
 7    1  0.3440346E-013  0.7246155E+02  0.7816164E-02  0.1226708E+00
        -11   -1    0    0    0    0  0.00000000000E+00  0.00000000000E+00  0.45593999997E+02  0.45594000000E+02  0.51100000000E-03 0. -1.
         11   -1    0    0    0    0 -0.00000000000E+00 -0.00000000000E+00 -0.45593999997E+02  0.45594000000E+02  0.51100000000E-03 0.  1.
    9900012    2    1    2    0    0 -0.69101308138E+01  0.27049918347E+01  0.17193401586E+02  0.72461549541E+02  0.69999972965E+02 0.  0.
        -12    1    1    2    0    0  0.69101308138E+01 -0.27049918347E+01 -0.17193401586E+02  0.18726450459E+02  0.00000000000E+00 0.  1.
         11    1    3    3    0    0 -0.74832546047E+01 -0.11121913651E+02 -0.89036044229E+01  0.16092552150E+02  0.51100000000E-03 0. -1.
        -11    1    3    3    0    0  0.13557270299E+02 -0.13042323482E+02  0.16496564404E+02  0.25020759723E+02  0.51100000000E-03 0.  1.
         12    1    3    3    0    0 -0.12984146508E+02  0.26869228967E+02  0.96004416055E+01  0.31348237667E+02  0.00000000000E+00 0. -1.
</event>
<event>
 7    1  0.3440346E-013  0.7246147E+02  0.7816164E-02  0.1226708E+00
        -11   -1    0    0    0    0  0.00000000000E+00  0.00000000000E+00  0.45593999997E+02  0.45594000000E+02  0.51100000000E-03 0.  1.
         11   -1    0    0    0    0 -0.00000000000E+00 -0.00000000000E+00 -0.45593999997E+02  0.45594000000E+02  0.51100000000E-03 0. -1.
    9900012    2    1    2    0    0  0.18504504588E+02  0.28718031137E+01  0.13840598822E+00  0.72461465366E+02  0.69999863311E+02 0.  0.
        -12    1    1    2    0    0 -0.18504504588E+02 -0.28718031137E+01 -0.13840598822E+00  0.18726534634E+02  0.00000000000E+00 0.  1.
         11    1    3    3    0    0  0.17590235108E+02 -0.14870708797E+01  0.61119701554E+01  0.18681111595E+02  0.51100000000E-03 0. -1.
        -11    1    3    3    0    0  0.14868510139E+01 -0.53372418256E+00  0.23673847022E+02  0.23726496170E+02  0.51100000000E-03 0.  1.
        -12    1    3    3    0    0 -0.57258153376E+00  0.48925981759E+01 -0.29647411189E+02  0.30053857601E+02  0.00000000000E+00 0.  1.
</event>
<event>
 7    1  0.3440346E-013  0.7246157E+02  0.7816164E-02  0.1226708E+00
        -11   -1    0    0    0    0  0.00000000000E+00  0.00000000000E+00  0.45593999997E+02  0.45594000000E+02  0.51100000000E-03 0.  1.
         11   -1    0    0    0    0 -0.00000000000E+00 -0.00000000000E+00 -0.45593999997E+02  0.45594000000E+02  0.51100000000E-03 0. -1.
    9900012    2    1    2    0    0  0.78549081185E+01  0.73839957239E+01 -0.15311958763E+02  0.72461573337E+02  0.70000003963E+02 0.  0.
        -12    1    1    2    0    0 -0.78549081185E+01 -0.73839957239E+01  0.15311958763E+02  0.18726426663E+02  0.00000000000E+00 0.  1.
         11    1    3    3    0    0  0.68186430420E+01  0.52380619202E+01 -0.51854172774E+00  0.86139463313E+01  0.51100000000E-03 0. -1.
        -11    1    3    3    0    0  0.23223895091E+02 -0.18160101307E+02  0.17278879435E+01  0.29531748673E+02  0.51100000000E-03 0.  1.
         12    1    3    3    0    0 -0.22187630014E+02  0.20306035110E+02 -0.16521304979E+02  0.34315878333E+02  0.00000000000E+00 0. -1.
</event>
<event>
 7    1  0.3440346E-013  0.7246157E+02  0.7816164E-02  0.1226708E+00
        -11   -1    0    0    0    0  0.00000000000E+00  0.00000000000E+00  0.45593999997E+02  0.45594000000E+02  0.51100000000E-03 0. -1.
         11   -1    0    0    0    0 -0.00000000000E+00 -0.00000000000E+00 -0.45593999997E+02  0.45594000000E+02  0.51100000000E-03 0.  1.
    9900012    2    1    2    0    0 -0.13823761799E+02  0.12623124402E+02  0.48952977895E+00  0.72461566827E+02  0.69999995484E+02 0.  0.
        -12    1    1    2    0    0  0.13823761799E+02 -0.12623124402E+02 -0.48952977895E+00  0.18726433173E+02  0.00000000000E+00 0.  1.
         11    1    3    3    0    0 -0.24523332239E+01 -0.26110670954E+01 -0.48677027733E+01  0.60436859753E+01  0.51100000000E-03 0. -1.
        -11    1    3    3    0    0  0.17039211756E+02  0.13906507867E+02 -0.18929181776E+02  0.29017918969E+02  0.51100000000E-03 0.  1.
         12    1    3    3    0    0 -0.28410640332E+02  0.13276836313E+01  0.24286414328E+02  0.37399961883E+02  0.00000000000E+00 0. -1.
</event>
<event>
 7    1  0.3440346E-013  0.7246149E+02  0.7816164E-02  0.1226708E+00
        -11   -1    0    0    0    0  0.00000000000E+00  0.00000000000E+00  0.45593999997E+02  0.45594000000E+02  0.51100000000E-03 0.  1.
         11   -1    0    0    0    0 -0.00000000000E+00 -0.00000000000E+00 -0.45593999997E+02  0.45594000000E+02  0.51100000000E-03 0. -1.
    9900012    2    1    2    0    0 -0.83062691922E+01  0.36113884304E+01 -0.16390424437E+02  0.72461488111E+02  0.69999892941E+02 0.  0.
        -12    1    1    2    0    0  0.83062691922E+01 -0.36113884304E+01  0.16390424437E+02  0.18726511889E+02  0.00000000000E+00 0.  1.
         11    1    3    3    0    0 -0.10882899927E+02  0.93781260885E+00 -0.27376086706E+01  0.11261061442E+02  0.51100000000E-03 0. -1.
        -11    1    3    3    0    0 -0.46461677856E+01  0.15689761324E+02 -0.32973421926E+02  0.36810352338E+02  0.51100000000E-03 0.  1.
        -12    1    3    3    0    0  0.72227985204E+01 -0.13016185503E+02  0.19320606159E+02  0.24390074331E+02  0.00000000000E+00 0.  1.
</event>
<event>
 7    1  0.3440346E-013  0.7246158E+02  0.7816164E-02  0.1226708E+00
        -11   -1    0    0    0    0  0.00000000000E+00  0.00000000000E+00  0.45593999997E+02  0.45594000000E+02  0.51100000000E-03 0.  1.
         11   -1    0    0    0    0 -0.00000000000E+00 -0.00000000000E+00 -0.45593999997E+02  0.45594000000E+02  0.51100000000E-03 0. -1.
    9900012    2    1    2    0    0  0.12109099579E+02 -0.49403197093E+01 -0.13403052163E+02  0.72461578592E+02  0.70000010810E+02 0.  0.
        -12    1    1    2    0    0 -0.12109099579E+02  0.49403197093E+01  0.13403052163E+02  0.18726421408E+02  0.00000000000E+00 0.  1.
         11    1    3    3    0    0  0.31882456567E+02  0.28068292938E+01 -0.13053257508E+02  0.34565255088E+02  0.51100000000E-03 0. -1.
        -11    1    3    3    0    0  0.27629612683E+00  0.59169601728E+01 -0.10131245226E+02  0.11735795130E+02  0.51100000000E-03 0.  1.
        -12    1    3    3    0    0 -0.20049653115E+02 -0.13664109176E+02  0.97814505713E+01  0.26160528375E+02  0.00000000000E+00 0.  1.
</event>
<event>
 7    1  0.3440346E-013  0.7246155E+02  0.7816164E-02  0.1226708E+00
        -11   -1    0    0    0    0  0.00000000000E+00  0.00000000000E+00  0.45593999997E+02  0.45594000000E+02  0.51100000000E-03 0.  1.
         11   -1    0    0    0    0 -0.00000000000E+00 -0.00000000000E+00 -0.45593999997E+02  0.45594000000E+02  0.51100000000E-03 0. -1.
    9900012    2    1    2    0    0 -0.15372795305E+02 -0.20304845349E+00 -0.10691868404E+02  0.72461545073E+02  0.69999967145E+02 0.  0.
        -12    1    1    2    0    0  0.15372795305E+02  0.20304845349E+00  0.10691868404E+02  0.18726454927E+02  0.00000000000E+00 0.  1.
         11    1    3    3    0    0 -0.80262878919E+01  0.14711865384E+02 -0.15825883447E+01  0.16833444880E+02  0.51100000000E-03 0. -1.
        -11    1    3    3    0    0  0.37765852940E+01  0.18499487354E+02 -0.76763150996E+01  0.20381841002E+02  0.51100000000E-03 0.  1.
         12    1    3    3    0    0 -0.11123092707E+02 -0.33414401192E+02 -0.14329649602E+01  0.35246259191E+02  0.00000000000E+00 0. -1.
</event>
<event>
 7    1  0.3440346E-013  0.7246155E+02  0.7816164E-02  0.1226708E+00
        -11   -1    0    0    0    0  0.00000000000E+00  0.00000000000E+00  0.45593999997E+02  0.45594000000E+02  0.51100000000E-03 0.  1.
         11   -1    0    0    0    0 -0.00000000000E+00 -0.00000000000E+00 -0.45593999997E+02  0.45594000000E+02  0.51100000000E-03 0. -1.
    9900012    2    1    2    0    0 -0.17463658875E+02  0.29774525870E+01 -0.60692023836E+01  0.72461552852E+02  0.69999977279E+02 0.  0.
        -12    1    1    2    0    0  0.17463658875E+02 -0.29774525870E+01  0.60692023836E+01  0.18726447148E+02  0.00000000000E+00 0.  1.
         11    1    3    3    0    0 -0.24071403510E+02 -0.25567513004E+02  0.11061839196E+02  0.36817040550E+02  0.51100000000E-03 0. -1.
        -11    1    3    3    0    0 -0.12445638411E+01  0.10968079907E+02 -0.10631841776E+02  0.15325918433E+02  0.51100000000E-03 0.  1.
        -12    1    3    3    0    0  0.78523084769E+01  0.17576885684E+02 -0.64991998043E+01  0.20318593870E+02  0.00000000000E+00 0.  1.
</event>
<event>
 7    1  0.3440346E-013  0.7246156E+02  0.7816164E-02  0.1226708E+00
        -11   -1    0    0    0    0  0.00000000000E+00  0.00000000000E+00  0.45593999997E+02  0.45594000000E+02  0.51100000000E-03 0. -1.
         11   -1    0    0    0    0 -0.00000000000E+00 -0.00000000000E+00 -0.45593999997E+02  0.45594000000E+02  0.51100000000E-03 0.  1.
    9900012    2    1    2    0    0  0.18268188055E+02  0.16350048188E+01 -0.37788156099E+01  0.72461564595E+02  0.69999992575E+02 0.  0.
        -12    1    1    2    0    0 -0.18268188055E+02 -0.16350048188E+01  0.37788156099E+01  0.18726435405E+02  0.00000000000E+00 0.  1.
         11    1    3    3    0    0 -0.76723610457E+01 -0.22070737830E+02  0.60991247277E+01  0.24149159718E+02  0.51100000000E-03 0. -1.
        -11    1    3    3    0    0  0.92831025631E+01 -0.47917025909E+01  0.56021104320E+01  0.11854115255E+02  0.51100000000E-03 0.  1.
         12    1    3    3    0    0  0.16657446538E+02  0.28497445240E+02 -0.15480050770E+02  0.36458289622E+02  0.00000000000E+00 0. -1.
</event>
<event>
 7    1  0.3440346E-013  0.7246176E+02  0.7816164E-02  0.1226707E+00
        -11   -1    0    0    0    0  0.00000000000E+00  0.00000000000E+00  0.45593999997E+02  0.45594000000E+02  0.51100000000E-03 0.  1.
         11   -1    0    0    0    0 -0.00000000000E+00 -0.00000000000E+00 -0.45593999997E+02  0.45594000000E+02  0.51100000000E-03 0. -1.
    9900012    2    1    2    0    0  0.46779428356E+00  0.10121016414E+02 -0.15748589706E+02  0.72461764861E+02  0.70000253459E+02 0.  0.
        -12    1    1    2    0    0 -0.46779428356E+00 -0.10121016414E+02  0.15748589706E+02  0.18726235139E+02  0.00000000000E+00 0.  1.
         11    1    3    3    0    0  0.68939392336E+01  0.55240605679E+01 -0.39515099942E+01  0.96776068741E+01  0.51100000000E-03 0. -1.
        -11    1    3    3    0    0  0.85031903056E+01  0.30498692317E+02 -0.42129097617E+01  0.31940931223E+02  0.51100000000E-03 0.  1.
         12    1    3    3    0    0 -0.14929335256E+02 -0.25901736471E+02 -0.75841699502E+01  0.30843226764E+02  0.00000000000E+00 0. -1.
</event>
<event>
 7    1  0.6055889E-013  0.7246146E+02  0.7816164E-02  0.1226708E+00
        -11   -1    0    0    0    0  0.00000000000E+00  0.00000000000E+00  0.45593999997E+02  0.45594000000E+02  0.51100000000E-03 0. -1.
         11   -1    0    0    0    0 -0.00000000000E+00 -0.00000000000E+00 -0.45593999997E+02  0.45594000000E+02  0.51100000000E-03 0.  1.
    9900012    2    1    2    0    0 -0.27175108092E+01 -0.17867244592E+02  0.49050846458E+01  0.72461464023E+02  0.69999861562E+02 0.  0.
        -12    1    1    2    0    0  0.27175108092E+01  0.17867244592E+02 -0.49050846458E+01  0.18726535977E+02  0.00000000000E+00 0.  1.
         11    1    3    3    0    0 -0.13675808323E+02 -0.20786831238E+02  0.27372407934E+02  0.36991469322E+02  0.51100000000E-03 0. -1.
        -11    1    3    3    0    0 -0.63451977619E+01  0.68610702244E+01 -0.10546095913E+02  0.14090988558E+02  0.51100000000E-03 0.  1.
        -12    1    3    3    0    0  0.17303495276E+02 -0.39414835787E+01 -0.11921227375E+02  0.21379006144E+02  0.00000000000E+00 0.  1.
</event>
<event>
 7    1  0.3440346E-013  0.7246156E+02  0.7816164E-02  0.1226708E+00
        -11   -1    0    0    0    0  0.00000000000E+00  0.00000000000E+00  0.45593999997E+02  0.45594000000E+02  0.51100000000E-03 0. -1.
         11   -1    0    0    0    0 -0.00000000000E+00 -0.00000000000E+00 -0.45593999997E+02  0.45594000000E+02  0.51100000000E-03 0.  1.
    9900012    2    1    2    0    0 -0.13728279916E+02 -0.93612584495E+01  0.86360069911E+01  0.72461562913E+02  0.69999990385E+02 0.  0.
        -12    1    1    2    0    0  0.13728279916E+02  0.93612584495E+01 -0.86360069911E+01  0.18726437087E+02  0.00000000000E+00 0.  1.
         11    1    3    3    0    0 -0.39983886702E+01  0.11927437089E+02  0.86342730404E+01  0.15257835321E+02  0.51100000000E-03 0. -1.
        -11    1    3    3    0    0  0.11072990003E+02  0.27712095507E+01 -0.17504997455E+02  0.20897742609E+02  0.51100000000E-03 0.  1.
        -12    1    3    3    0    0 -0.20802881249E+02 -0.24059905089E+02  0.17506731405E+02  0.36305984984E+02  0.00000000000E+00 0.  1.
</event>
<event>
 7    1  0.3440346E-013  0.7246155E+02  0.7816164E-02  0.1226708E+00
        -11   -1    0    0    0    0  0.00000000000E+00  0.00000000000E+00  0.45593999997E+02  0.45594000000E+02  0.51100000000E-03 0. -1.
         11   -1    0    0    0    0 -0.00000000000E+00 -0.00000000000E+00 -0.45593999997E+02  0.45594000000E+02  0.51100000000E-03 0.  1.
    9900012    2    1    2    0    0 -0.83834367743E+01  0.16667348284E+02 -0.16116913598E+01  0.72461546518E+02  0.69999969027E+02 0.  0.
        -12    1    1    2    0    0  0.83834367743E+01 -0.16667348284E+02  0.16116913598E+01  0.18726453482E+02  0.00000000000E+00 0.  1.
         11    1    3    3    0    0 -0.54591587060E+01 -0.12310257238E+02  0.10678546150E+02  0.17186512013E+02  0.51100000000E-03 0. -1.
        -11    1    3    3    0    0 -0.16840919773E+02  0.80106206679E+01 -0.21514890913E+02  0.28472392832E+02  0.51100000000E-03 0.  1.
        -12    1    3    3    0    0  0.13916641705E+02  0.20966984854E+02  0.92246534031E+01  0.26802641673E+02  0.00000000000E+00 0.  1.
</event>
<event>
 7    1  0.3440346E-013  0.7246157E+02  0.7816164E-02  0.1226708E+00
        -11   -1    0    0    0    0  0.00000000000E+00  0.00000000000E+00  0.45593999997E+02  0.45594000000E+02  0.51100000000E-03 0. -1.
         11   -1    0    0    0    0 -0.00000000000E+00 -0.00000000000E+00 -0.45593999997E+02  0.45594000000E+02  0.51100000000E-03 0.  1.
    9900012    2    1    2    0    0  0.38263256759E+01  0.18599032169E+01  0.18236757582E+02  0.72461565869E+02  0.69999994235E+02 0.  0.
        -12    1    1    2    0    0 -0.38263256759E+01 -0.18599032169E+01 -0.18236757582E+02  0.18726434131E+02  0.00000000000E+00 0.  1.
         11    1    3    3    0    0 -0.82760494987E+00  0.17661867596E+02  0.58116935878E+01  0.18611885438E+02  0.51100000000E-03 0. -1.
        -11    1    3    3    0    0  0.21109396704E+02 -0.66746101662E+01 -0.10238637218E+02  0.24392350080E+02  0.51100000000E-03 0.  1.
         12    1    3    3    0    0 -0.16455466078E+02 -0.91273542131E+01  0.22663701213E+02  0.29457330351E+02  0.00000000000E+00 0. -1.
</event>
<event>
 7    1  0.3440346E-013  0.7246157E+02  0.7816164E-02  0.1226708E+00
        -11   -1    0    0    0    0  0.00000000000E+00  0.00000000000E+00  0.45593999997E+02  0.45594000000E+02  0.51100000000E-03 0. -1.
         11   -1    0    0    0    0 -0.00000000000E+00 -0.00000000000E+00 -0.45593999997E+02  0.45594000000E+02  0.51100000000E-03 0.  1.
    9900012    2    1    2    0    0 -0.12447986238E+02  0.66455559793E+01  0.12311102121E+02  0.72461574524E+02  0.70000005510E+02 0.  0.
        -12    1    1    2    0    0  0.12447986238E+02 -0.66455559793E+01 -0.12311102121E+02  0.18726425476E+02  0.00000000000E+00 0.  1.
         11    1    3    3    0    0  0.24164948723E+02  0.91433571671E+01  0.24434015935E+01  0.25952185625E+02  0.51100000000E-03 0. -1.
        -11    1    3    3    0    0 -0.15961573899E+02  0.12041512474E+02  0.21995620115E+01  0.20114868563E+02  0.51100000000E-03 0.  1.
        -12    1    3    3    0    0 -0.20651361063E+02 -0.14539313662E+02  0.76681385161E+01  0.26394520337E+02  0.00000000000E+00 0.  1.
</event>
<event>
 7    1  0.3440346E-013  0.7246170E+02  0.7816164E-02  0.1226708E+00
        -11   -1    0    0    0    0  0.00000000000E+00  0.00000000000E+00  0.45593999997E+02  0.45594000000E+02  0.51100000000E-03 0.  1.
         11   -1    0    0    0    0 -0.00000000000E+00 -0.00000000000E+00 -0.45593999997E+02  0.45594000000E+02  0.51100000000E-03 0. -1.
    9900012    2    1    2    0    0 -0.12375873684E+01  0.10422212891E+02 -0.15508706795E+02  0.72461704838E+02  0.70000175268E+02 0.  0.
        -12    1    1    2    0    0  0.12375873684E+01 -0.10422212891E+02  0.15508706795E+02  0.18726295162E+02  0.00000000000E+00 0.  1.
         11    1    3    3    0    0  0.13210118813E+02  0.11981059108E+02  0.43745408666E+01  0.18362723775E+02  0.51100000000E-03 0. -1.
        -11    1    3    3    0    0  0.36459552669E+01  0.15419781150E+02  0.71687109538E+01  0.17391177577E+02  0.51100000000E-03 0.  1.
         12    1    3    3    0    0 -0.18093661448E+02 -0.16978627367E+02 -0.27051958615E+02  0.36707803486E+02  0.00000000000E+00 0. -1.
</event>
<event>
 7    1  0.3440346E-013  0.7246172E+02  0.7816164E-02  0.1226708E+00
        -11   -1    0    0    0    0  0.00000000000E+00  0.00000000000E+00  0.45593999997E+02  0.45594000000E+02  0.51100000000E-03 0.  1.
         11   -1    0    0    0    0 -0.00000000000E+00 -0.00000000000E+00 -0.45593999997E+02  0.45594000000E+02  0.51100000000E-03 0. -1.
    9900012    2    1    2    0    0  0.12210122430E+02  0.13267490012E+02  0.50556949230E+01  0.72461723485E+02  0.70000199559E+02 0.  0.
        -12    1    1    2    0    0 -0.12210122430E+02 -0.13267490012E+02 -0.50556949230E+01  0.18726276515E+02  0.00000000000E+00 0.  1.
         11    1    3    3    0    0 -0.27488541697E+00 -0.55872646309E+01 -0.11233777154E+02  0.12549535348E+02  0.51100000000E-03 0. -1.
        -11    1    3    3    0    0  0.45430315644E+01 -0.15620734079E+02 -0.68362323305E+01  0.17645978060E+02  0.51100000000E-03 0.  1.
        -12    1    3    3    0    0  0.79419762829E+01  0.34475488721E+02  0.23125704408E+02  0.42266210076E+02  0.00000000000E+00 0.  1.
</event>
<event>
 7    1  0.3440346E-013  0.7246157E+02  0.7816164E-02  0.1226708E+00
        -11   -1    0    0    0    0  0.00000000000E+00  0.00000000000E+00  0.45593999997E+02  0.45594000000E+02  0.51100000000E-03 0.  1.
         11   -1    0    0    0    0 -0.00000000000E+00 -0.00000000000E+00 -0.45593999997E+02  0.45594000000E+02  0.51100000000E-03 0. -1.
    9900012    2    1    2    0    0 -0.13514664753E+02  0.11221847156E+02  0.64887083629E+01  0.72461565391E+02  0.69999993612E+02 0.  0.
        -12    1    1    2    0    0  0.13514664753E+02 -0.11221847156E+02 -0.64887083629E+01  0.18726434609E+02  0.00000000000E+00 0.  1.
         11    1    3    3    0    0 -0.18322382300E+02  0.89700649114E+01  0.60741822033E+01  0.21285381072E+02  0.51100000000E-03 0. -1.
        -11    1    3    3    0    0 -0.35590915650E+01  0.20573103198E+02 -0.15087832576E+02  0.25759704969E+02  0.51100000000E-03 0.  1.
         12    1    3    3    0    0  0.83668091125E+01 -0.18321320953E+02  0.15502358736E+02  0.25416479351E+02  0.00000000000E+00 0. -1.
</event>
<event>
 7    1  0.3440346E-013  0.7246162E+02  0.7816164E-02  0.1226708E+00
        -11   -1    0    0    0    0  0.00000000000E+00  0.00000000000E+00  0.45593999997E+02  0.45594000000E+02  0.51100000000E-03 0. -1.
         11   -1    0    0    0    0 -0.00000000000E+00 -0.00000000000E+00 -0.45593999997E+02  0.45594000000E+02  0.51100000000E-03 0.  1.
    9900012    2    1    2    0    0 -0.35447444289E+01 -0.15500467802E+02  0.98917935281E+01  0.72461620362E+02  0.70000065223E+02 0.  0.
        -12    1    1    2    0    0  0.35447444289E+01  0.15500467802E+02 -0.98917935281E+01  0.18726379638E+02  0.00000000000E+00 0.  1.
         11    1    3    3    0    0 -0.21849016889E+02 -0.31509583677E+02  0.20491535509E+02  0.43475699308E+02  0.51100000000E-03 0. -1.
        -11    1    3    3    0    0  0.10804626050E+01  0.62274434147E+01  0.39251531547E+00  0.63326550086E+01  0.51100000000E-03 0.  1.
        -12    1    3    3    0    0  0.17223809856E+02  0.97816724607E+01 -0.10992257296E+02  0.22653266046E+02  0.00000000000E+00 0.  1.
</event>
<event>
 7    1  0.3440346E-013  0.7246158E+02  0.7816164E-02  0.1226708E+00
        -11   -1    0    0    0    0  0.00000000000E+00  0.00000000000E+00  0.45593999997E+02  0.45594000000E+02  0.51100000000E-03 0. -1.
         11   -1    0    0    0    0 -0.00000000000E+00 -0.00000000000E+00 -0.45593999997E+02  0.45594000000E+02  0.51100000000E-03 0.  1.
    9900012    2    1    2    0    0 -0.81585295442E+01 -0.16730942522E+02  0.20475800928E+01  0.72461584800E+02  0.70000018897E+02 0.  0.
        -12    1    1    2    0    0  0.81585295442E+01  0.16730942522E+02 -0.20475800928E+01  0.18726415200E+02  0.00000000000E+00 0.  1.
         11    1    3    3    0    0  0.18383623732E+02 -0.15462036881E+02 -0.63551272394E+01  0.24847934492E+02  0.51100000000E-03 0. -1.
        -11    1    3    3    0    0 -0.16764354761E+02 -0.85680115549E+01 -0.13068138715E+02  0.22917911386E+02  0.51100000000E-03 0.  1.
         12    1    3    3    0    0 -0.97777985150E+01  0.72991059144E+01  0.21470846047E+02  0.24695738922E+02  0.00000000000E+00 0. -1.
</event>
<event>
 7    1  0.3440346E-013  0.7246160E+02  0.7816164E-02  0.1226708E+00
        -11   -1    0    0    0    0  0.00000000000E+00  0.00000000000E+00  0.45593999997E+02  0.45594000000E+02  0.51100000000E-03 0. -1.
         11   -1    0    0    0    0 -0.00000000000E+00 -0.00000000000E+00 -0.45593999997E+02  0.45594000000E+02  0.51100000000E-03 0.  1.
    9900012    2    1    2    0    0 -0.18433615173E+02 -0.11166833572E+01 -0.31036844306E+01  0.72461601331E+02  0.70000040431E+02 0.  0.
        -12    1    1    2    0    0  0.18433615173E+02  0.11166833572E+01  0.31036844306E+01  0.18726398669E+02  0.00000000000E+00 0.  1.
         11    1    3    3    0    0  0.11845181540E+02 -0.20232896203E+02  0.77289383543E+01  0.24686330283E+02  0.51100000000E-03 0. -1.
        -11    1    3    3    0    0 -0.58663467196E+01 -0.80558971150E+01 -0.31141134179E+01  0.10440747330E+02  0.51100000000E-03 0.  1.
        -12    1    3    3    0    0 -0.24412449993E+02  0.27172109961E+02 -0.77185093670E+01  0.37334523718E+02  0.00000000000E+00 0.  1.
</event>
<event>
 7    1  0.3440346E-013  0.7246155E+02  0.7816164E-02  0.1226708E+00
        -11   -1    0    0    0    0  0.00000000000E+00  0.00000000000E+00  0.45593999997E+02  0.45594000000E+02  0.51100000000E-03 0.  1.
         11   -1    0    0    0    0 -0.00000000000E+00 -0.00000000000E+00 -0.45593999997E+02  0.45594000000E+02  0.51100000000E-03 0. -1.
    9900012    2    1    2    0    0  0.69202840477E+01 -0.15607330646E+02 -0.76941990706E+01  0.72461553446E+02  0.69999978052E+02 0.  0.
        -12    1    1    2    0    0 -0.69202840477E+01  0.15607330646E+02  0.76941990706E+01  0.18726446554E+02  0.00000000000E+00 0.  1.
         11    1    3    3    0    0 -0.21523542477E+02 -0.47213658024E+01  0.58779762073E+01  0.22805805847E+02  0.51100000000E-03 0.  1.
        -11    1    3    3    0    0  0.13286652779E+02  0.12873496336E+02 -0.10587525819E+02  0.21315669195E+02  0.51100000000E-03 0. -1.
        -12    1    3    3    0    0  0.15157173746E+02 -0.23759461181E+02 -0.29846494590E+01  0.28340078404E+02  0.00000000000E+00 0.  1.
</event>
<event>
 7    1  0.3440346E-013  0.7246154E+02  0.7816164E-02  0.1226708E+00
        -11   -1    0    0    0    0  0.00000000000E+00  0.00000000000E+00  0.45593999997E+02  0.45594000000E+02  0.51100000000E-03 0.  1.
         11   -1    0    0    0    0 -0.00000000000E+00 -0.00000000000E+00 -0.45593999997E+02  0.45594000000E+02  0.51100000000E-03 0. -1.
    9900012    2    1    2    0    0  0.15031591302E+02 -0.65959954257E+01 -0.90124626801E+01  0.72461538073E+02  0.69999958026E+02 0.  0.
        -12    1    1    2    0    0 -0.15031591302E+02  0.65959954257E+01  0.90124626801E+01  0.18726461927E+02  0.00000000000E+00 0.  1.
         11    1    3    3    0    0 -0.16123326141E+01  0.16174401597E+01  0.33529623993E+01  0.40568566946E+01  0.51100000000E-03 0. -1.
        -11    1    3    3    0    0  0.11960694874E+01  0.25010036997E+02  0.82513649020E+01  0.26363185616E+02  0.51100000000E-03 0.  1.
         12    1    3    3    0    0  0.15447854429E+02 -0.33223472582E+02 -0.20616789981E+02  0.42041495763E+02  0.00000000000E+00 0. -1.
</event>
<event>
 7    1  0.3440346E-013  0.7246158E+02  0.7816164E-02  0.1226708E+00
        -11   -1    0    0    0    0  0.00000000000E+00  0.00000000000E+00  0.45593999997E+02  0.45594000000E+02  0.51100000000E-03 0.  1.
         11   -1    0    0    0    0 -0.00000000000E+00 -0.00000000000E+00 -0.45593999997E+02  0.45594000000E+02  0.51100000000E-03 0. -1.
    9900012    2    1    2    0    0  0.16357961788E+02  0.57790372093E+01 -0.70497317133E+01  0.72461577433E+02  0.70000009299E+02 0.  0.
        -12    1    1    2    0    0 -0.16357961788E+02 -0.57790372093E+01  0.70497317133E+01  0.18726422567E+02  0.00000000000E+00 0.  1.
         11    1    3    3    0    0  0.67490855681E-01  0.12800515685E+02 -0.77833276669E+01  0.14981253173E+02  0.51100000000E-03 0. -1.
        -11    1    3    3    0    0  0.15125332665E+02  0.20294425523E+02  0.11873205945E+02  0.27957332047E+02  0.51100000000E-03 0.  1.
        -12    1    3    3    0    0  0.11651382679E+01 -0.27315903998E+02 -0.11139609992E+02  0.29522992212E+02  0.00000000000E+00 0.  1.
</event>
<event>
 7    1  0.3440346E-013  0.7246157E+02  0.7816164E-02  0.1226708E+00
        -11   -1    0    0    0    0  0.00000000000E+00  0.00000000000E+00  0.45593999997E+02  0.45594000000E+02  0.51100000000E-03 0.  1.
         11   -1    0    0    0    0 -0.00000000000E+00 -0.00000000000E+00 -0.45593999997E+02  0.45594000000E+02  0.51100000000E-03 0. -1.
    9900012    2    1    2    0    0  0.17087637809E+02 -0.75412910584E+01 -0.13493891762E+01  0.72461567135E+02  0.69999995884E+02 0.  0.
        -12    1    1    2    0    0 -0.17087637809E+02  0.75412910584E+01  0.13493891762E+01  0.18726432865E+02  0.00000000000E+00 0.  1.
         11    1    3    3    0    0  0.28785389206E+02  0.26743416925E+01 -0.10482838397E+02  0.30751270484E+02  0.51100000000E-03 0. -1.
        -11    1    3    3    0    0  0.10466299919E+02 -0.60659226965E+01 -0.70069488466E+01  0.13979849232E+02  0.51100000000E-03 0.  1.
        -12    1    3    3    0    0 -0.22164051316E+02 -0.41497100544E+01  0.16140398068E+02  0.27730447419E+02  0.00000000000E+00 0.  1.
</event>
<event>
 7    1  0.3440346E-013  0.7246156E+02  0.7816164E-02  0.1226708E+00
        -11   -1    0    0    0    0  0.00000000000E+00  0.00000000000E+00  0.45593999997E+02  0.45594000000E+02  0.51100000000E-03 0.  1.
         11   -1    0    0    0    0 -0.00000000000E+00 -0.00000000000E+00 -0.45593999997E+02  0.45594000000E+02  0.51100000000E-03 0. -1.
    9900012    2    1    2    0    0  0.30875259341E+01  0.32394073069E+01 -0.18183861812E+02  0.72461563967E+02  0.69999991758E+02 0.  0.
        -12    1    1    2    0    0 -0.30875259341E+01 -0.32394073069E+01  0.18183861812E+02  0.18726436033E+02  0.00000000000E+00 0.  1.
         11    1    3    3    0    0  0.62734331926E+01 -0.15375932270E+02 -0.26882476178E+00  0.16608658110E+02  0.51100000000E-03 0. -1.
        -11    1    3    3    0    0 -0.25890015373E+02  0.10552736030E+02 -0.46271945840E+01  0.28338384988E+02  0.51100000000E-03 0.  1.
         12    1    3    3    0    0  0.22704108115E+02  0.80626035467E+01 -0.13287842466E+02  0.27514520869E+02  0.00000000000E+00 0. -1.
</event>
<event>
 7    1  0.3440346E-013  0.7246147E+02  0.7816164E-02  0.1226708E+00
        -11   -1    0    0    0    0  0.00000000000E+00  0.00000000000E+00  0.45593999997E+02  0.45594000000E+02  0.51100000000E-03 0. -1.
         11   -1    0    0    0    0 -0.00000000000E+00 -0.00000000000E+00 -0.45593999997E+02  0.45594000000E+02  0.51100000000E-03 0.  1.
    9900012    2    1    2    0    0  0.16177889390E+02  0.71824102641E+01  0.61132472897E+01  0.72461470296E+02  0.69999869734E+02 0.  0.
        -12    1    1    2    0    0 -0.16177889390E+02 -0.71824102641E+01 -0.61132472897E+01  0.18726529704E+02  0.00000000000E+00 0.  1.
         11    1    3    3    0    0  0.18541703663E+01  0.20845314252E+02  0.11688890707E+02  0.23970716306E+02  0.51100000000E-03 0. -1.
        -11    1    3    3    0    0  0.12249718496E+02  0.14940740122E+02 -0.42439650537E+01  0.19781116203E+02  0.51100000000E-03 0.  1.
         12    1    3    3    0    0  0.20740005278E+01 -0.28603644110E+02 -0.13316783637E+01  0.28709637786E+02  0.00000000000E+00 0. -1.
</event>
<event>
 7    1  0.3440346E-013  0.7246153E+02  0.7816164E-02  0.1226708E+00
        -11   -1    0    0    0    0  0.00000000000E+00  0.00000000000E+00  0.45593999997E+02  0.45594000000E+02  0.51100000000E-03 0.  1.
         11   -1    0    0    0    0 -0.00000000000E+00 -0.00000000000E+00 -0.45593999997E+02  0.45594000000E+02  0.51100000000E-03 0. -1.
    9900012    2    1    2    0    0 -0.38836649596E+01  0.15174433867E+02 -0.10263259834E+02  0.72461526783E+02  0.69999943319E+02 0.  0.
        -12    1    1    2    0    0  0.38836649596E+01 -0.15174433867E+02  0.10263259834E+02  0.18726473217E+02  0.00000000000E+00 0.  1.
         11    1    3    3    0    0 -0.13092484542E+02  0.82981362207E+01  0.18659475235E+02  0.24257951944E+02  0.51100000000E-03 0. -1.
        -11    1    3    3    0    0 -0.15167024385E+01 -0.14244233230E+02 -0.70660508906E+01  0.15972715550E+02  0.51100000000E-03 0.  1.
        -12    1    3    3    0    0  0.10725522021E+02  0.21120530877E+02 -0.21856684179E+02  0.32230859288E+02  0.00000000000E+00 0.  1.
</event>
<event>
 7    1  0.3440346E-013  0.7246160E+02  0.7816164E-02  0.1226708E+00
        -11   -1    0    0    0    0  0.00000000000E+00  0.00000000000E+00  0.45593999997E+02  0.45594000000E+02  0.51100000000E-03 0. -1.
         11   -1    0    0    0    0 -0.00000000000E+00 -0.00000000000E+00 -0.45593999997E+02  0.45594000000E+02  0.51100000000E-03 0.  1.
    9900012    2    1    2    0    0  0.13498878607E+02  0.80199598842E+01 -0.10204827115E+02  0.72461602144E+02  0.70000041490E+02 0.  0.
        -12    1    1    2    0    0 -0.13498878607E+02 -0.80199598842E+01  0.10204827115E+02  0.18726397856E+02  0.00000000000E+00 0.  1.
         11    1    3    3    0    0 -0.61166976973E+00 -0.10692841134E+02 -0.56847064628E+01  0.12125464084E+02  0.51100000000E-03 0. -1.
        -11    1    3    3    0    0  0.33292526057E+02  0.54691228694E+01 -0.12072225319E+02  0.35833534861E+02  0.51100000000E-03 0.  1.
         12    1    3    3    0    0 -0.19181977680E+02  0.13243678149E+02  0.75521046664E+01  0.24502603199E+02  0.00000000000E+00 0. -1.
</event>
<event>
 7    1  0.3440346E-013  0.7246156E+02  0.7816164E-02  0.1226708E+00
        -11   -1    0    0    0    0  0.00000000000E+00  0.00000000000E+00  0.45593999997E+02  0.45594000000E+02  0.51100000000E-03 0.  1.
         11   -1    0    0    0    0 -0.00000000000E+00 -0.00000000000E+00 -0.45593999997E+02  0.45594000000E+02  0.51100000000E-03 0. -1.
    9900012    2    1    2    0    0  0.63956073628E+01  0.17183057249E+02  0.38102915386E+01  0.72461559559E+02  0.69999986016E+02 0.  0.
        -12    1    1    2    0    0 -0.63956073628E+01 -0.17183057249E+02 -0.38102915386E+01  0.18726440441E+02  0.00000000000E+00 0.  1.
         11    1    3    3    0    0  0.18837847774E+01 -0.16599822934E+02 -0.18160563808E+01  0.16804785853E+02  0.51100000000E-03 0. -1.
        -11    1    3    3    0    0 -0.17888627750E+02  0.47785176829E+01 -0.38355080747E+00  0.18519836541E+02  0.51100000000E-03 0.  1.
        -12    1    3    3    0    0  0.22400450336E+02  0.29004362500E+02  0.60098987269E+01  0.37136937165E+02  0.00000000000E+00 0.  1.
</event>
<event>
 7    1  0.3440346E-013  0.7246150E+02  0.7816164E-02  0.1226708E+00
        -11   -1    0    0    0    0  0.00000000000E+00  0.00000000000E+00  0.45593999997E+02  0.45594000000E+02  0.51100000000E-03 0.  1.
         11   -1    0    0    0    0 -0.00000000000E+00 -0.00000000000E+00 -0.45593999997E+02  0.45594000000E+02  0.51100000000E-03 0. -1.
    9900012    2    1    2    0    0  0.62163801455E+01 -0.12754775837E+02 -0.12221057885E+02  0.72461496200E+02  0.69999903478E+02 0.  0.
        -12    1    1    2    0    0 -0.62163801455E+01  0.12754775837E+02  0.12221057885E+02  0.18726503800E+02  0.00000000000E+00 0.  1.
         11    1    3    3    0    0 -0.17524480161E+02  0.10504185276E+02 -0.18565553151E+02  0.27606612926E+02  0.51100000000E-03 0. -1.
        -11    1    3    3    0    0  0.15175630477E+02 -0.11870584896E+01 -0.79762180305E+01  0.17185136676E+02  0.51100000000E-03 0.  1.
        -12    1    3    3    0    0  0.85652298287E+01 -0.22071902623E+02  0.14320713297E+02  0.27669746597E+02  0.00000000000E+00 0.  1.
</event>
<event>
 7    1  0.3440346E-013  0.7246156E+02  0.7816164E-02  0.1226708E+00
        -11   -1    0    0    0    0  0.00000000000E+00  0.00000000000E+00  0.45593999997E+02  0.45594000000E+02  0.51100000000E-03 0. -1.
         11   -1    0    0    0    0 -0.00000000000E+00 -0.00000000000E+00 -0.45593999997E+02  0.45594000000E+02  0.51100000000E-03 0.  1.
    9900012    2    1    2    0    0  0.12777663009E+02 -0.12037928832E+02  0.65191359242E+01  0.72461560516E+02  0.69999987262E+02 0.  0.
        -12    1    1    2    0    0 -0.12777663009E+02  0.12037928832E+02 -0.65191359242E+01  0.18726439484E+02  0.00000000000E+00 0.  1.
         11    1    3    3    0    0  0.80264048966E+01 -0.55076054484E+01  0.10130149314E+02  0.14049086046E+02  0.51100000000E-03 0. -1.
        -11    1    3    3    0    0  0.30843389223E+02 -0.76073464446E+01  0.14982503470E+01  0.31803005094E+02  0.51100000000E-03 0.  1.
         12    1    3    3    0    0 -0.26092131110E+02  0.10770230608E+01 -0.51092637369E+01  0.26609469376E+02  0.00000000000E+00 0. -1.
</event>
<event>
 7    1  0.3440346E-013  0.7246141E+02  0.7816164E-02  0.1226708E+00
        -11   -1    0    0    0    0  0.00000000000E+00  0.00000000000E+00  0.45593999997E+02  0.45594000000E+02  0.51100000000E-03 0.  1.
         11   -1    0    0    0    0 -0.00000000000E+00 -0.00000000000E+00 -0.45593999997E+02  0.45594000000E+02  0.51100000000E-03 0. -1.
    9900012    2    1    2    0    0 -0.32694794801E+01  0.93136570853E+01 -0.15913870910E+02  0.72461414841E+02  0.69999797493E+02 0.  0.
        -12    1    1    2    0    0  0.32694794801E+01 -0.93136570853E+01  0.15913870910E+02  0.18726585159E+02  0.00000000000E+00 0.  1.
         11    1    3    3    0    0 -0.85452784409E+00  0.15030372064E+01  0.44027258581E+01  0.47300458690E+01  0.51100000000E-03 0. -1.
        -11    1    3    3    0    0  0.20660569264E+02  0.15996707249E+02  0.10682620522E+02  0.28228923936E+02  0.51100000000E-03 0.  1.
         12    1    3    3    0    0 -0.23075520900E+02 -0.81860873697E+01 -0.30999217290E+02  0.39502445036E+02  0.00000000000E+00 0. -1.
</event>
<event>
 7    1  0.3440346E-013  0.7246159E+02  0.7816164E-02  0.1226708E+00
        -11   -1    0    0    0    0  0.00000000000E+00  0.00000000000E+00  0.45593999997E+02  0.45594000000E+02  0.51100000000E-03 0.  1.
         11   -1    0    0    0    0 -0.00000000000E+00 -0.00000000000E+00 -0.45593999997E+02  0.45594000000E+02  0.51100000000E-03 0. -1.
    9900012    2    1    2    0    0  0.79613586063E+01  0.12101567798E+02 -0.11867909495E+02  0.72461589511E+02  0.70000025033E+02 0.  0.
        -12    1    1    2    0    0 -0.79613586063E+01 -0.12101567798E+02  0.11867909495E+02  0.18726410489E+02  0.00000000000E+00 0.  1.
         11    1    3    3    0    0 -0.14741694398E+02  0.11552251594E+02  0.38938324119E+01  0.19129401500E+02  0.51100000000E-03 0. -1.
        -11    1    3    3    0    0 -0.10189588061E+02  0.11094262174E+02 -0.10571310701E+02  0.18402797838E+02  0.51100000000E-03 0.  1.
         12    1    3    3    0    0  0.32892641066E+02 -0.10544945970E+02 -0.51904312054E+01  0.34929390174E+02  0.00000000000E+00 0. -1.
</event>
<event>
 7    1  0.3440346E-013  0.7246126E+02  0.7816164E-02  0.1226709E+00
        -11   -1    0    0    0    0  0.00000000000E+00  0.00000000000E+00  0.45593999997E+02  0.45594000000E+02  0.51100000000E-03 0. -1.
         11   -1    0    0    0    0 -0.00000000000E+00 -0.00000000000E+00 -0.45593999997E+02  0.45594000000E+02  0.51100000000E-03 0.  1.
    9900012    2    1    2    0    0  0.27344999078E+01 -0.38633835310E+00  0.18521987228E+02  0.72461260883E+02  0.69999596933E+02 0.  0.
        -12    1    1    2    0    0 -0.27344999078E+01  0.38633835310E+00 -0.18521987228E+02  0.18726739117E+02  0.00000000000E+00 0.  1.
         11    1    3    3    0    0  0.11959813655E+02 -0.34505757514E-01  0.25915492764E+02  0.28542093455E+02  0.51100000000E-03 0. -1.
        -11    1    3    3    0    0  0.37930174872E+01 -0.19205041732E+02  0.78579941770E+00  0.19591786304E+02  0.51100000000E-03 0.  1.
         12    1    3    3    0    0 -0.13018331234E+02  0.18853209136E+02 -0.81793049536E+01  0.24327381125E+02  0.00000000000E+00 0. -1.
</event>
<event>
 7    1  0.3440346E-013  0.7246159E+02  0.7816164E-02  0.1226708E+00
        -11   -1    0    0    0    0  0.00000000000E+00  0.00000000000E+00  0.45593999997E+02  0.45594000000E+02  0.51100000000E-03 0.  1.
         11   -1    0    0    0    0 -0.00000000000E+00 -0.00000000000E+00 -0.45593999997E+02  0.45594000000E+02  0.51100000000E-03 0. -1.
    9900012    2    1    2    0    0 -0.27670545827E+01  0.75790199092E+01 -0.16899118331E+02  0.72461592597E+02  0.70000029053E+02 0.  0.
        -12    1    1    2    0    0  0.27670545827E+01 -0.75790199092E+01  0.16899118331E+02  0.18726407403E+02  0.00000000000E+00 0.  1.
         11    1    3    3    0    0 -0.47176995805E+00  0.21749719598E+02  0.63935016787E+01  0.22674870087E+02  0.51100000000E-03 0. -1.
        -11    1    3    3    0    0 -0.14494394990E+02  0.71794455143E+01 -0.18781769923E+02  0.24786827262E+02  0.51100000000E-03 0.  1.
        -12    1    3    3    0    0  0.12199110365E+02 -0.21350145203E+02 -0.45108500870E+01  0.24999895248E+02  0.00000000000E+00 0.  1.
</event>
<event>
 7    1  0.3440346E-013  0.7246158E+02  0.7816164E-02  0.1226708E+00
        -11   -1    0    0    0    0  0.00000000000E+00  0.00000000000E+00  0.45593999997E+02  0.45594000000E+02  0.51100000000E-03 0.  1.
         11   -1    0    0    0    0 -0.00000000000E+00 -0.00000000000E+00 -0.45593999997E+02  0.45594000000E+02  0.51100000000E-03 0. -1.
    9900012    2    1    2    0    0  0.14185427901E+02 -0.29121597239E+01 -0.11873149674E+02  0.72461582239E+02  0.70000015560E+02 0.  0.
        -12    1    1    2    0    0 -0.14185427901E+02  0.29121597239E+01  0.11873149674E+02  0.18726417761E+02  0.00000000000E+00 0.  1.
         11    1    3    3    0    0 -0.13498440405E+01  0.43575358707E+01  0.62702706845E+01  0.77541274504E+01  0.51100000000E-03 0. -1.
        -11    1    3    3    0    0 -0.19463066614E+02 -0.98523230916E+01 -0.19958252855E+02  0.29567060889E+02  0.51100000000E-03 0.  1.
         12    1    3    3    0    0  0.34998338555E+02  0.25826274969E+01  0.18148324957E+01  0.35140393899E+02  0.00000000000E+00 0. -1.
</event>
<event>
 7    1  0.3440346E-013  0.7246159E+02  0.7816164E-02  0.1226708E+00
        -11   -1    0    0    0    0  0.00000000000E+00  0.00000000000E+00  0.45593999997E+02  0.45594000000E+02  0.51100000000E-03 0.  1.
         11   -1    0    0    0    0 -0.00000000000E+00 -0.00000000000E+00 -0.45593999997E+02  0.45594000000E+02  0.51100000000E-03 0. -1.
    9900012    2    1    2    0    0 -0.17387692559E+02 -0.42766815507E+01 -0.54823916905E+01  0.72461588805E+02  0.70000024113E+02 0.  0.
        -12    1    1    2    0    0  0.17387692559E+02  0.42766815507E+01  0.54823916905E+01  0.18726411195E+02  0.00000000000E+00 0.  1.
         11    1    3    3    0    0  0.18828817992E+01  0.25218554822E+02 -0.61897215613E+01  0.26035233904E+02  0.51100000000E-03 0. -1.
        -11    1    3    3    0    0 -0.78224152743E+01 -0.47880762311E+01  0.13515818965E+02  0.16333805964E+02  0.51100000000E-03 0.  1.
        -12    1    3    3    0    0 -0.11448159084E+02 -0.24707160141E+02 -0.12808489094E+02  0.30092548937E+02  0.00000000000E+00 0.  1.
</event>
<event>
 7    1  0.3440346E-013  0.7246151E+02  0.7816164E-02  0.1226708E+00
        -11   -1    0    0    0    0  0.00000000000E+00  0.00000000000E+00  0.45593999997E+02  0.45594000000E+02  0.51100000000E-03 0. -1.
         11   -1    0    0    0    0 -0.00000000000E+00 -0.00000000000E+00 -0.45593999997E+02  0.45594000000E+02  0.51100000000E-03 0.  1.
    9900012    2    1    2    0    0  0.46195611004E+01  0.15746722696E+02  0.90211968237E+01  0.72461505065E+02  0.69999915027E+02 0.  0.
        -12    1    1    2    0    0 -0.46195611004E+01 -0.15746722696E+02 -0.90211968237E+01  0.18726494935E+02  0.00000000000E+00 0.  1.
         11    1    3    3    0    0 -0.16903705413E+02  0.64196995086E+01  0.11151594268E+02  0.21243960399E+02  0.51100000000E-03 0. -1.
        -11    1    3    3    0    0 -0.10119660881E+02  0.57059502841E+01 -0.13121088201E+02  0.17525078055E+02  0.51100000000E-03 0.  1.
        -12    1    3    3    0    0  0.31642927394E+02  0.36210729031E+01  0.10990690756E+02  0.33692466611E+02  0.00000000000E+00 0.  1.
</event>
<event>
 7    1  0.3440346E-013  0.7246156E+02  0.7816164E-02  0.1226708E+00
        -11   -1    0    0    0    0  0.00000000000E+00  0.00000000000E+00  0.45593999997E+02  0.45594000000E+02  0.51100000000E-03 0.  1.
         11   -1    0    0    0    0 -0.00000000000E+00 -0.00000000000E+00 -0.45593999997E+02  0.45594000000E+02  0.51100000000E-03 0. -1.
    9900012    2    1    2    0    0  0.15714348828E+02  0.67416504292E+01 -0.76347258993E+01  0.72461557488E+02  0.69999983317E+02 0.  0.
        -12    1    1    2    0    0 -0.15714348828E+02 -0.67416504292E+01  0.76347258993E+01  0.18726442512E+02  0.00000000000E+00 0.  1.
         11    1    3    3    0    0 -0.92774476887E+01 -0.79489817519E+01  0.94991651315E+01  0.15475512430E+02  0.51100000000E-03 0. -1.
        -11    1    3    3    0    0 -0.76110797137E+01  0.80803255066E+01 -0.20741148946E+02  0.23524783837E+02  0.51100000000E-03 0.  1.
         12    1    3    3    0    0  0.32602876231E+02  0.66103066745E+01  0.36072579154E+01  0.33461261221E+02  0.00000000000E+00 0. -1.
</event>
<event>
 7    1  0.3440346E-013  0.7246162E+02  0.7816164E-02  0.1226708E+00
        -11   -1    0    0    0    0  0.00000000000E+00  0.00000000000E+00  0.45593999997E+02  0.45594000000E+02  0.51100000000E-03 0.  1.
         11   -1    0    0    0    0 -0.00000000000E+00 -0.00000000000E+00 -0.45593999997E+02  0.45594000000E+02  0.51100000000E-03 0. -1.
    9900012    2    1    2    0    0 -0.16285921777E+02 -0.54245031976E+01  0.74847026466E+01  0.72461621366E+02  0.70000066530E+02 0.  0.
        -12    1    1    2    0    0  0.16285921777E+02  0.54245031976E+01 -0.74847026466E+01  0.18726378634E+02  0.00000000000E+00 0.  1.
         11    1    3    3    0    0 -0.62633587483E+01 -0.18302137757E+02 -0.12927364061E+02  0.23266169670E+02  0.51100000000E-03 0. -1.
        -11    1    3    3    0    0  0.96601532813E+01 -0.81642063601E+01  0.15436409804E+02  0.19956341719E+02  0.51100000000E-03 0.  1.
        -12    1    3    3    0    0 -0.19682716310E+02  0.21041840920E+02  0.49756569028E+01  0.29239109977E+02  0.00000000000E+00 0.  1.
</event>
<event>
 7    1  0.3440346E-013  0.7246158E+02  0.7816164E-02  0.1226708E+00
        -11   -1    0    0    0    0  0.00000000000E+00  0.00000000000E+00  0.45593999997E+02  0.45594000000E+02  0.51100000000E-03 0. -1.
         11   -1    0    0    0    0 -0.00000000000E+00 -0.00000000000E+00 -0.45593999997E+02  0.45594000000E+02  0.51100000000E-03 0.  1.
    9900012    2    1    2    0    0  0.13933044010E+02  0.20878017716E+01 -0.12336539446E+02  0.72461579169E+02  0.70000011561E+02 0.  0.
        -12    1    1    2    0    0 -0.13933044010E+02 -0.20878017716E+01  0.12336539446E+02  0.18726420831E+02  0.00000000000E+00 0.  1.
         11    1    3    3    0    0 -0.42615016343E+01  0.11003702425E+02  0.67417989919E+01  0.13590206663E+02  0.51100000000E-03 0. -1.
        -11    1    3    3    0    0 -0.17896004730E+02 -0.61812533615E+01 -0.26301181845E+01  0.19115240002E+02  0.51100000000E-03 0.  1.
         12    1    3    3    0    0  0.36090550375E+02 -0.27346472921E+01 -0.16448220253E+02  0.39756132504E+02  0.00000000000E+00 0. -1.
</event>
<event>
 7    1  0.3440346E-013  0.7246155E+02  0.7816164E-02  0.1226708E+00
        -11   -1    0    0    0    0  0.00000000000E+00  0.00000000000E+00  0.45593999997E+02  0.45594000000E+02  0.51100000000E-03 0. -1.
         11   -1    0    0    0    0 -0.00000000000E+00 -0.00000000000E+00 -0.45593999997E+02  0.45594000000E+02  0.51100000000E-03 0.  1.
    9900012    2    1    2    0    0 -0.14321768632E+01  0.39493744533E+01  0.18249139491E+02  0.72461553960E+02  0.69999978721E+02 0.  0.
        -12    1    1    2    0    0  0.14321768632E+01 -0.39493744533E+01 -0.18249139491E+02  0.18726446040E+02  0.00000000000E+00 0.  1.
         11    1    3    3    0    0 -0.16171455624E+01  0.13487406481E+02  0.18935895839E+01  0.13715355451E+02  0.51100000000E-03 0. -1.
        -11    1    3    3    0    0 -0.22354922373E+02  0.11282337995E+02  0.27857067117E+01  0.25195115937E+02  0.51100000000E-03 0.  1.
        -12    1    3    3    0    0  0.22539891072E+02 -0.20820370023E+02  0.13569843195E+02  0.33551082572E+02  0.00000000000E+00 0.  1.
</event>
<event>
 7    1  0.3440346E-013  0.7246151E+02  0.7816164E-02  0.1226708E+00
        -11   -1    0    0    0    0  0.00000000000E+00  0.00000000000E+00  0.45593999997E+02  0.45594000000E+02  0.51100000000E-03 0.  1.
         11   -1    0    0    0    0 -0.00000000000E+00 -0.00000000000E+00 -0.45593999997E+02  0.45594000000E+02  0.51100000000E-03 0. -1.
    9900012    2    1    2    0    0 -0.52357771434E+01  0.17324193404E+02 -0.48104359615E+01  0.72461512515E+02  0.69999924731E+02 0.  0.
        -12    1    1    2    0    0  0.52357771434E+01 -0.17324193404E+02  0.48104359615E+01  0.18726487485E+02  0.00000000000E+00 0.  1.
         11    1    3    3    0    0 -0.10895618347E+02  0.41938317259E+01 -0.78133188256E+01  0.14048155574E+02  0.51100000000E-03 0. -1.
        -11    1    3    3    0    0 -0.20430999672E+02 -0.80926773152E+01  0.98646870727E+01  0.24087947713E+02  0.51100000000E-03 0.  1.
         12    1    3    3    0    0  0.26090840875E+02  0.21223038993E+02 -0.68618042087E+01  0.34325409228E+02  0.00000000000E+00 0. -1.
</event>
<event>
 7    1  0.3440346E-013  0.7246159E+02  0.7816164E-02  0.1226708E+00
        -11   -1    0    0    0    0  0.00000000000E+00  0.00000000000E+00  0.45593999997E+02  0.45594000000E+02  0.51100000000E-03 0.  1.
         11   -1    0    0    0    0 -0.00000000000E+00 -0.00000000000E+00 -0.45593999997E+02  0.45594000000E+02  0.51100000000E-03 0. -1.
    9900012    2    1    2    0    0 -0.71398924014E+01 -0.48361315785E+01 -0.16622645583E+02  0.72461586079E+02  0.70000020563E+02 0.  0.
        -12    1    1    2    0    0  0.71398924014E+01  0.48361315785E+01  0.16622645583E+02  0.18726413921E+02  0.00000000000E+00 0.  1.
         11    1    3    3    0    0  0.16512380511E+02 -0.19065684233E+02 -0.18847536608E+02  0.31486324998E+02  0.51100000000E-03 0. -1.
        -11    1    3    3    0    0  0.12746259768E+01  0.29468516976E+01 -0.10368900532E+02  0.10854616751E+02  0.51100000000E-03 0.  1.
        -12    1    3    3    0    0 -0.24926898889E+02  0.11282700957E+02  0.12593791556E+02  0.30120644330E+02  0.00000000000E+00 0.  1.
</event>
<event>
 7    1  0.3440346E-013  0.7246155E+02  0.7816164E-02  0.1226708E+00
        -11   -1    0    0    0    0  0.00000000000E+00  0.00000000000E+00  0.45593999997E+02  0.45594000000E+02  0.51100000000E-03 0.  1.
         11   -1    0    0    0    0 -0.00000000000E+00 -0.00000000000E+00 -0.45593999997E+02  0.45594000000E+02  0.51100000000E-03 0. -1.
    9900012    2    1    2    0    0 -0.78432346355E+01 -0.16576709016E+02 -0.37915879580E+01  0.72461554780E+02  0.69999979789E+02 0.  0.
        -12    1    1    2    0    0  0.78432346355E+01  0.16576709016E+02  0.37915879580E+01  0.18726445220E+02  0.00000000000E+00 0.  1.
         11    1    3    3    0    0 -0.18347555597E+02 -0.21046215161E+02 -0.18253199060E+01  0.27980488953E+02  0.51100000000E-03 0. -1.
        -11    1    3    3    0    0 -0.14981291046E+02 -0.47788928752E+01  0.49778251742E+01  0.16494109319E+02  0.51100000000E-03 0.  1.
        -12    1    3    3    0    0  0.25485612008E+02  0.92483990204E+01 -0.69440932261E+01  0.27986956508E+02  0.00000000000E+00 0.  1.
</event>
<event>
 7    1  0.3440346E-013  0.7246152E+02  0.7816164E-02  0.1226708E+00
        -11   -1    0    0    0    0  0.00000000000E+00  0.00000000000E+00  0.45593999997E+02  0.45594000000E+02  0.51100000000E-03 0.  1.
         11   -1    0    0    0    0 -0.00000000000E+00 -0.00000000000E+00 -0.45593999997E+02  0.45594000000E+02  0.51100000000E-03 0. -1.
    9900012    2    1    2    0    0 -0.16173865844E+01  0.52841105685E+01 -0.17892545535E+02  0.72461522766E+02  0.69999938086E+02 0.  0.
        -12    1    1    2    0    0  0.16173865844E+01 -0.52841105685E+01  0.17892545535E+02  0.18726477234E+02  0.00000000000E+00 0.  1.
         11    1    3    3    0    0 -0.12748296915E+02 -0.21260483256E+02 -0.17923853833E+02  0.30590713608E+02  0.51100000000E-03 0. -1.
        -11    1    3    3    0    0  0.11511021889E+02 -0.21464181593E+01 -0.50127839822E+01  0.12737297177E+02  0.51100000000E-03 0.  1.
        -12    1    3    3    0    0 -0.38011155934E+00  0.28691011984E+02  0.50440922809E+01  0.29133511982E+02  0.00000000000E+00 0.  1.
</event>
<event>
 7    1  0.3440346E-013  0.7246159E+02  0.7816164E-02  0.1226708E+00
        -11   -1    0    0    0    0  0.00000000000E+00  0.00000000000E+00  0.45593999997E+02  0.45594000000E+02  0.51100000000E-03 0.  1.
         11   -1    0    0    0    0 -0.00000000000E+00 -0.00000000000E+00 -0.45593999997E+02  0.45594000000E+02  0.51100000000E-03 0. -1.
    9900012    2    1    2    0    0  0.11097048391E+02  0.45546660248E+01 -0.14380154282E+02  0.72461593437E+02  0.70000030148E+02 0.  0.
        -12    1    1    2    0    0 -0.11097048391E+02 -0.45546660248E+01  0.14380154282E+02  0.18726406563E+02  0.00000000000E+00 0.  1.
         11    1    3    3    0    0  0.67497536547E+01  0.33449956550E+01  0.14618802373E+02  0.16445593739E+02  0.51100000000E-03 0. -1.
        -11    1    3    3    0    0 -0.91783083583E+01  0.51945103732E+00  0.10678713871E+02  0.14090638875E+02  0.51100000000E-03 0.  1.
         12    1    3    3    0    0  0.13525603094E+02  0.69021933254E+00 -0.39677670526E+02  0.41925360824E+02  0.00000000000E+00 0. -1.
</event>
<event>
 7    1  0.3440346E-013  0.7246125E+02  0.7816164E-02  0.1226709E+00
        -11   -1    0    0    0    0  0.00000000000E+00  0.00000000000E+00  0.45593999997E+02  0.45594000000E+02  0.51100000000E-03 0. -1.
         11   -1    0    0    0    0 -0.00000000000E+00 -0.00000000000E+00 -0.45593999997E+02  0.45594000000E+02  0.51100000000E-03 0.  1.
    9900012    2    1    2    0    0  0.15609996647E+02 -0.31299576130E+01  0.98601557583E+01  0.72461246369E+02  0.69999578026E+02 0.  0.
        -12    1    1    2    0    0 -0.15609996647E+02  0.31299576130E+01 -0.98601557583E+01  0.18726753631E+02  0.00000000000E+00 0.  1.
         11    1    3    3    0    0  0.90762767381E+00 -0.87048789035E+01 -0.28673307813E+00  0.87567642904E+01  0.51100000000E-03 0. -1.
        -11    1    3    3    0    0 -0.35597846441E+01 -0.17372819576E+01  0.33179221703E+02  0.33414831563E+02  0.51100000000E-03 0.  1.
         12    1    3    3    0    0  0.18262153617E+02  0.73122032481E+01 -0.23032332867E+02  0.30289650516E+02  0.00000000000E+00 0. -1.
</event>
<event>
 7    1  0.3440346E-013  0.7246158E+02  0.7816164E-02  0.1226708E+00
        -11   -1    0    0    0    0  0.00000000000E+00  0.00000000000E+00  0.45593999997E+02  0.45594000000E+02  0.51100000000E-03 0.  1.
         11   -1    0    0    0    0 -0.00000000000E+00 -0.00000000000E+00 -0.45593999997E+02  0.45594000000E+02  0.51100000000E-03 0. -1.
    9900012    2    1    2    0    0  0.19181909605E+01 -0.18204495198E+02 -0.39491408643E+01  0.72461579745E+02  0.70000012312E+02 0.  0.
        -12    1    1    2    0    0 -0.19181909605E+01  0.18204495198E+02  0.39491408643E+01  0.18726420255E+02  0.00000000000E+00 0.  1.
         11    1    3    3    0    0 -0.48377704282E+01 -0.14508551302E+02 -0.87220587195E+01  0.17606146432E+02  0.51100000000E-03 0. -1.
        -11    1    3    3    0    0  0.25797608537E+01 -0.28890071961E+02  0.84589831119E+00  0.29017356327E+02  0.51100000000E-03 0.  1.
         12    1    3    3    0    0  0.41762005349E+01  0.25194128065E+02  0.39270195440E+01  0.25838076987E+02  0.00000000000E+00 0. -1.
</event>
<event>
 7    1  0.3440346E-013  0.7246134E+02  0.7816164E-02  0.1226709E+00
        -11   -1    0    0    0    0  0.00000000000E+00  0.00000000000E+00  0.45593999997E+02  0.45594000000E+02  0.51100000000E-03 0.  1.
         11   -1    0    0    0    0 -0.00000000000E+00 -0.00000000000E+00 -0.45593999997E+02  0.45594000000E+02  0.51100000000E-03 0. -1.
    9900012    2    1    2    0    0 -0.52877500276E+01  0.10099475761E+02 -0.14856920952E+02  0.72461339562E+02  0.69999699427E+02 0.  0.
        -12    1    1    2    0    0  0.52877500276E+01 -0.10099475761E+02  0.14856920952E+02  0.18726660438E+02  0.00000000000E+00 0.  1.
         11    1    3    3    0    0  0.73869051787E+01  0.90984431356E+01 -0.32710866735E+02  0.34746925597E+02  0.51100000000E-03 0. -1.
        -11    1    3    3    0    0 -0.37774488334E+01  0.29215105569E+01 -0.85458358413E+01  0.97895686376E+01  0.51100000000E-03 0.  1.
        -12    1    3    3    0    0 -0.88972063729E+01 -0.19204779317E+01  0.26399781625E+02  0.27924845327E+02  0.00000000000E+00 0.  1.
</event>
<event>
 7    1  0.3440346E-013  0.7246105E+02  0.7816164E-02  0.1226709E+00
        -11   -1    0    0    0    0  0.00000000000E+00  0.00000000000E+00  0.45593999997E+02  0.45594000000E+02  0.51100000000E-03 0.  1.
         11   -1    0    0    0    0 -0.00000000000E+00 -0.00000000000E+00 -0.45593999997E+02  0.45594000000E+02  0.51100000000E-03 0. -1.
    9900012    2    1    2    0    0 -0.15532776344E+02 -0.70999219375E+01 -0.76826097132E+01  0.72461053520E+02  0.69999326802E+02 0.  0.
        -12    1    1    2    0    0  0.15532776344E+02  0.70999219375E+01  0.76826097132E+01  0.18726946480E+02  0.00000000000E+00 0.  1.
         11    1    3    3    0    0  0.68412302762E+01 -0.76974704694E+01 -0.24620715232E+02  0.26687695707E+02  0.51100000000E-03 0. -1.
        -11    1    3    3    0    0  0.57534449060E+01 -0.26066901252E+01  0.16273328838E+02  0.17456179233E+02  0.51100000000E-03 0.  1.
        -12    1    3    3    0    0 -0.28127451526E+02  0.32042386571E+01  0.66477668109E+00  0.28317178580E+02  0.00000000000E+00 0.  1.
</event>
<event>
 7    1  0.3440346E-013  0.7246157E+02  0.7816164E-02  0.1226708E+00
        -11   -1    0    0    0    0  0.00000000000E+00  0.00000000000E+00  0.45593999997E+02  0.45594000000E+02  0.51100000000E-03 0.  1.
         11   -1    0    0    0    0 -0.00000000000E+00 -0.00000000000E+00 -0.45593999997E+02  0.45594000000E+02  0.51100000000E-03 0. -1.
    9900012    2    1    2    0    0 -0.52025398073E+01 -0.17211781528E+02 -0.52313689316E+01  0.72461573093E+02  0.70000003646E+02 0.  0.
        -12    1    1    2    0    0  0.52025398073E+01  0.17211781528E+02  0.52313689316E+01  0.18726426907E+02  0.00000000000E+00 0.  1.
         11    1    3    3    0    0  0.95204738905E+01  0.22808690190E+01 -0.23958087796E+01  0.10078774060E+02  0.51100000000E-03 0. -1.
        -11    1    3    3    0    0  0.11382258464E+02  0.63474901457E+01  0.16377371726E+02  0.20929996269E+02  0.51100000000E-03 0.  1.
         12    1    3    3    0    0 -0.26105272162E+02 -0.25840140692E+02 -0.19212931878E+02  0.41452802764E+02  0.00000000000E+00 0. -1.
</event>
<event>
 7    1  0.3440346E-013  0.7246144E+02  0.7816164E-02  0.1226708E+00
        -11   -1    0    0    0    0  0.00000000000E+00  0.00000000000E+00  0.45593999997E+02  0.45594000000E+02  0.51100000000E-03 0. -1.
         11   -1    0    0    0    0 -0.00000000000E+00 -0.00000000000E+00 -0.45593999997E+02  0.45594000000E+02  0.51100000000E-03 0.  1.
    9900012    2    1    2    0    0 -0.23611600643E+01 -0.42042299970E+01  0.18095119834E+02  0.72461441627E+02  0.69999832386E+02 0.  0.
        -12    1    1    2    0    0  0.23611600643E+01  0.42042299970E+01 -0.18095119834E+02  0.18726558373E+02  0.00000000000E+00 0.  1.
         11    1    3    3    0    0  0.63048610575E+00 -0.14711862790E+02  0.59964300369E+01  0.15899484046E+02  0.51100000000E-03 0. -1.
        -11    1    3    3    0    0  0.21278923221E+02 -0.91389757241E+01  0.23854681293E+00  0.23159670886E+02  0.51100000000E-03 0.  1.
        -12    1    3    3    0    0 -0.24270569391E+02  0.19646608517E+02  0.11860142984E+02  0.33402286694E+02  0.00000000000E+00 0.  1.
</event>
<event>
 7    1  0.3440346E-013  0.7246156E+02  0.7816164E-02  0.1226708E+00
        -11   -1    0    0    0    0  0.00000000000E+00  0.00000000000E+00  0.45593999997E+02  0.45594000000E+02  0.51100000000E-03 0. -1.
         11   -1    0    0    0    0 -0.00000000000E+00 -0.00000000000E+00 -0.45593999997E+02  0.45594000000E+02  0.51100000000E-03 0.  1.
    9900012    2    1    2    0    0 -0.40938377541E+00  0.16622310054E+02  0.86145713203E+01  0.72461558116E+02  0.69999984135E+02 0.  0.
        -12    1    1    2    0    0  0.40938377541E+00 -0.16622310054E+02 -0.86145713203E+01  0.18726441884E+02  0.00000000000E+00 0.  1.
         11    1    3    3    0    0  0.12496061507E+02  0.58909640561E+01  0.11604978398E+02  0.18042464759E+02  0.51100000000E-03 0. -1.
        -11    1    3    3    0    0  0.16535587154E+02  0.15601030566E+02 -0.81202204186E+01  0.24140335067E+02  0.51100000000E-03 0.  1.
         12    1    3    3    0    0 -0.29441032436E+02 -0.48696845683E+01  0.51298133404E+01  0.30278758290E+02  0.00000000000E+00 0. -1.
</event>
<event>
 7    1  0.3440346E-013  0.7246160E+02  0.7816164E-02  0.1226708E+00
        -11   -1    0    0    0    0  0.00000000000E+00  0.00000000000E+00  0.45593999997E+02  0.45594000000E+02  0.51100000000E-03 0. -1.
         11   -1    0    0    0    0 -0.00000000000E+00 -0.00000000000E+00 -0.45593999997E+02  0.45594000000E+02  0.51100000000E-03 0.  1.
    9900012    2    1    2    0    0  0.94083375137E+00 -0.16446784646E+02 -0.89048420390E+01  0.72461598715E+02  0.70000037023E+02 0.  0.
        -12    1    1    2    0    0 -0.94083375137E+00  0.16446784646E+02  0.89048420390E+01  0.18726401285E+02  0.00000000000E+00 0.  1.
         11    1    3    3    0    0  0.17063672630E+01  0.36433720432E+01  0.82812322003E+01  0.92067722953E+01  0.51100000000E-03 0. -1.
        -11    1    3    3    0    0 -0.16453778442E+02 -0.34995552875E+02 -0.68483493297E+01  0.39272324032E+02  0.51100000000E-03 0.  1.
         12    1    3    3    0    0  0.15688244931E+02  0.14905396186E+02 -0.10337724910E+02  0.23982502388E+02  0.00000000000E+00 0. -1.
</event>
<event>
 7    1  0.3440346E-013  0.7246159E+02  0.7816164E-02  0.1226708E+00
        -11   -1    0    0    0    0  0.00000000000E+00  0.00000000000E+00  0.45593999997E+02  0.45594000000E+02  0.51100000000E-03 0.  1.
         11   -1    0    0    0    0 -0.00000000000E+00 -0.00000000000E+00 -0.45593999997E+02  0.45594000000E+02  0.51100000000E-03 0. -1.
    9900012    2    1    2    0    0  0.82098127629E+01 -0.94205681475E+01 -0.13947406814E+02  0.72461593867E+02  0.70000030708E+02 0.  0.
        -12    1    1    2    0    0 -0.82098127629E+01  0.94205681475E+01  0.13947406814E+02  0.18726406133E+02  0.00000000000E+00 0.  1.
         11    1    3    3    0    0 -0.57903665932E+01  0.54044594142E+01 -0.24984016506E+01  0.83053318966E+01  0.51100000000E-03 0. -1.
        -11    1    3    3    0    0 -0.90617676147E+01  0.19157972070E+02  0.10733829894E+01  0.21220171475E+02  0.51100000000E-03 0.  1.
         12    1    3    3    0    0  0.23061946971E+02 -0.33982999631E+02 -0.12522388153E+02  0.42936090496E+02  0.00000000000E+00 0. -1.
</event>
<event>
 7    1  0.3440346E-013  0.7246172E+02  0.7816164E-02  0.1226708E+00
        -11   -1    0    0    0    0  0.00000000000E+00  0.00000000000E+00  0.45593999997E+02  0.45594000000E+02  0.51100000000E-03 0. -1.
         11   -1    0    0    0    0 -0.00000000000E+00 -0.00000000000E+00 -0.45593999997E+02  0.45594000000E+02  0.51100000000E-03 0.  1.
    9900012    2    1    2    0    0  0.73139714989E+00  0.36250766039E+01  0.18357494956E+02  0.72461715178E+02  0.70000188738E+02 0.  0.
        -12    1    1    2    0    0 -0.73139714989E+00 -0.36250766039E+01 -0.18357494956E+02  0.18726284822E+02  0.00000000000E+00 0.  1.
         11    1    3    3    0    0  0.27822814651E+02 -0.13234171049E+02  0.19476375957E+02  0.36449712196E+02  0.51100000000E-03 0. -1.
        -11    1    3    3    0    0 -0.10681928222E+02  0.59972257899E-02  0.48692111968E+01  0.11739371553E+02  0.51100000000E-03 0.  1.
        -12    1    3    3    0    0 -0.16409489279E+02  0.16853250428E+02 -0.59880921982E+01  0.24272631430E+02  0.00000000000E+00 0.  1.
</event>
<event>
 7    1  0.3440346E-013  0.7246158E+02  0.7816164E-02  0.1226708E+00
        -11   -1    0    0    0    0  0.00000000000E+00  0.00000000000E+00  0.45593999997E+02  0.45594000000E+02  0.51100000000E-03 0.  1.
         11   -1    0    0    0    0 -0.00000000000E+00 -0.00000000000E+00 -0.45593999997E+02  0.45594000000E+02  0.51100000000E-03 0. -1.
    9900012    2    1    2    0    0 -0.59316049193E+01  0.14813212313E-01 -0.17762166741E+02  0.72461582199E+02  0.70000015507E+02 0.  0.
        -12    1    1    2    0    0  0.59316049193E+01 -0.14813212313E-01  0.17762166741E+02  0.18726417801E+02  0.00000000000E+00 0.  1.
         11    1    3    3    0    0  0.22933803618E+02  0.36500266795E+01  0.64519829855E+01  0.24102077252E+02  0.51100000000E-03 0. -1.
        -11    1    3    3    0    0 -0.20218624012E+00  0.42590787432E+01  0.50727715966E+01  0.66267369759E+01  0.51100000000E-03 0.  1.
         12    1    3    3    0    0 -0.28663222297E+02 -0.78942922104E+01 -0.29286921323E+02  0.41732767971E+02  0.00000000000E+00 0. -1.
</event>
<event>
 7    1  0.3440346E-013  0.7246231E+02  0.7816164E-02  0.1226706E+00
        -11   -1    0    0    0    0  0.00000000000E+00  0.00000000000E+00  0.45593999997E+02  0.45594000000E+02  0.51100000000E-03 0.  1.
         11   -1    0    0    0    0 -0.00000000000E+00 -0.00000000000E+00 -0.45593999997E+02  0.45594000000E+02  0.51100000000E-03 0. -1.
    9900012    2    1    2    0    0 -0.77017827078E+01 -0.13294592866E+02 -0.10704564784E+02  0.72462312735E+02  0.70000967160E+02 0.  0.
        -12    1    1    2    0    0  0.77017827078E+01  0.13294592866E+02  0.10704564784E+02  0.18725687265E+02  0.00000000000E+00 0.  1.
         11    1    3    3    0    0  0.95075436564E+01  0.73464860233E+01 -0.20449271973E+02  0.23717861787E+02  0.51100000000E-03 0. -1.
        -11    1    3    3    0    0  0.94731561419E+01 -0.13777781003E+02 -0.50580043655E+01  0.17468581656E+02  0.51100000000E-03 0.  1.
        -12    1    3    3    0    0 -0.26682482506E+02 -0.68632978859E+01  0.14802711555E+02  0.31275869291E+02  0.00000000000E+00 0.  1.
</event>
<event>
 7    1  0.3440346E-013  0.7246158E+02  0.7816164E-02  0.1226708E+00
        -11   -1    0    0    0    0  0.00000000000E+00  0.00000000000E+00  0.45593999997E+02  0.45594000000E+02  0.51100000000E-03 0. -1.
         11   -1    0    0    0    0 -0.00000000000E+00 -0.00000000000E+00 -0.45593999997E+02  0.45594000000E+02  0.51100000000E-03 0.  1.
    9900012    2    1    2    0    0 -0.15716390994E+02  0.93835743018E+01  0.39525385412E+01  0.72461575528E+02  0.70000006818E+02 0.  0.
        -12    1    1    2    0    0  0.15716390994E+02 -0.93835743018E+01 -0.39525385412E+01  0.18726424472E+02  0.00000000000E+00 0.  1.
         11    1    3    3    0    0  0.41901897867E+01  0.58975494272E+01  0.11371723734E+02  0.13477940519E+02  0.51100000000E-03 0. -1.
        -11    1    3    3    0    0 -0.28101758867E+01  0.26724678966E+02  0.54076078602E+01  0.27410723767E+02  0.51100000000E-03 0.  1.
        -12    1    3    3    0    0 -0.17096404894E+02 -0.23238654092E+02 -0.12826793053E+02  0.31572911243E+02  0.00000000000E+00 0.  1.
</event>
<event>
 7    1  0.3440346E-013  0.7246156E+02  0.7816164E-02  0.1226708E+00
        -11   -1    0    0    0    0  0.00000000000E+00  0.00000000000E+00  0.45593999997E+02  0.45594000000E+02  0.51100000000E-03 0.  1.
         11   -1    0    0    0    0 -0.00000000000E+00 -0.00000000000E+00 -0.45593999997E+02  0.45594000000E+02  0.51100000000E-03 0. -1.
    9900012    2    1    2    0    0  0.95022228438E+01 -0.50640339785E+01 -0.15321317298E+02  0.72461562996E+02  0.69999990493E+02 0.  0.
        -12    1    1    2    0    0 -0.95022228438E+01  0.50640339785E+01  0.15321317298E+02  0.18726437004E+02  0.00000000000E+00 0.  1.
         11    1    3    3    0    0 -0.22059425173E+00  0.39570808670E+01 -0.71004496278E+01  0.81316379648E+01  0.51100000000E-03 0. -1.
        -11    1    3    3    0    0  0.22147710920E+02  0.21470999648E+02 -0.49506059703E+01  0.31241533647E+02  0.51100000000E-03 0.  1.
         12    1    3    3    0    0 -0.12424893824E+02 -0.30492114494E+02 -0.32702616999E+01  0.33088391385E+02  0.00000000000E+00 0. -1.
</event>
<event>
 7    1  0.3440346E-013  0.7246157E+02  0.7816164E-02  0.1226708E+00
        -11   -1    0    0    0    0  0.00000000000E+00  0.00000000000E+00  0.45593999997E+02  0.45594000000E+02  0.51100000000E-03 0. -1.
         11   -1    0    0    0    0 -0.00000000000E+00 -0.00000000000E+00 -0.45593999997E+02  0.45594000000E+02  0.51100000000E-03 0.  1.
    9900012    2    1    2    0    0  0.83972083980E+01  0.32579664986E+01  0.16418034093E+02  0.72461566862E+02  0.69999995529E+02 0.  0.
        -12    1    1    2    0    0 -0.83972083980E+01 -0.32579664986E+01 -0.16418034093E+02  0.18726433138E+02  0.00000000000E+00 0.  1.
         11    1    3    3    0    0 -0.92713252781E+01 -0.13817881394E+02  0.24525905053E+02  0.29638004952E+02  0.51100000000E-03 0. -1.
        -11    1    3    3    0    0  0.13015619948E+02  0.10334592207E+02  0.12403051364E+02  0.20737546676E+02  0.51100000000E-03 0.  1.
        -12    1    3    3    0    0  0.46529137278E+01  0.67412556856E+01 -0.20510922323E+02  0.22086015234E+02  0.00000000000E+00 0.  1.
</event>
<event>
 7    1  0.3440346E-013  0.7246158E+02  0.7816164E-02  0.1226708E+00
        -11   -1    0    0    0    0  0.00000000000E+00  0.00000000000E+00  0.45593999997E+02  0.45594000000E+02  0.51100000000E-03 0.  1.
         11   -1    0    0    0    0 -0.00000000000E+00 -0.00000000000E+00 -0.45593999997E+02  0.45594000000E+02  0.51100000000E-03 0. -1.
    9900012    2    1    2    0    0  0.18271879341E+02  0.39715534672E+01 -0.10218353568E+01  0.72461575913E+02  0.70000007320E+02 0.  0.
        -12    1    1    2    0    0 -0.18271879341E+02 -0.39715534672E+01  0.10218353568E+01  0.18726424087E+02  0.00000000000E+00 0.  1.
         11    1    3    3    0    0  0.24193403790E+02  0.19395876315E+02  0.45353361200E+01  0.31338316466E+02  0.51100000000E-03 0. -1.
        -11    1    3    3    0    0 -0.10223662976E+02  0.82145861648E+01  0.60454831617E+01  0.14441280325E+02  0.51100000000E-03 0.  1.
         12    1    3    3    0    0  0.43021385266E+01 -0.23638909012E+02 -0.11602654638E+02  0.26681979122E+02  0.00000000000E+00 0. -1.
</event>
<event>
 7    1  0.3440346E-013  0.7246160E+02  0.7816164E-02  0.1226708E+00
        -11   -1    0    0    0    0  0.00000000000E+00  0.00000000000E+00  0.45593999997E+02  0.45594000000E+02  0.51100000000E-03 0.  1.
         11   -1    0    0    0    0 -0.00000000000E+00 -0.00000000000E+00 -0.45593999997E+02  0.45594000000E+02  0.51100000000E-03 0. -1.
    9900012    2    1    2    0    0 -0.10808727250E+02  0.11871157721E+02  0.96397599579E+01  0.72461603058E+02  0.70000042681E+02 0.  0.
        -12    1    1    2    0    0  0.10808727250E+02 -0.11871157721E+02 -0.96397599579E+01  0.18726396942E+02  0.00000000000E+00 0.  1.
         11    1    3    3    0    0  0.24244632003E+01 -0.91111932803E+01  0.36511172408E+01  0.10110515425E+02  0.51100000000E-03 0. -1.
        -11    1    3    3    0    0  0.40076075543E+01  0.19811608887E+02  0.27895630516E+02  0.34448903715E+02  0.51100000000E-03 0.  1.
         12    1    3    3    0    0 -0.17240798004E+02  0.11707421142E+01 -0.21906987799E+02  0.27902183918E+02  0.00000000000E+00 0. -1.
</event>
<event>
 7    1  0.3440346E-013  0.7246147E+02  0.7816164E-02  0.1226708E+00
        -11   -1    0    0    0    0  0.00000000000E+00  0.00000000000E+00  0.45593999997E+02  0.45594000000E+02  0.51100000000E-03 0. -1.
         11   -1    0    0    0    0 -0.00000000000E+00 -0.00000000000E+00 -0.45593999997E+02  0.45594000000E+02  0.51100000000E-03 0.  1.
    9900012    2    1    2    0    0  0.14377273351E+02 -0.64769740645E+01  0.10100777207E+02  0.72461471164E+02  0.69999870865E+02 0.  0.
        -12    1    1    2    0    0 -0.14377273351E+02  0.64769740645E+01 -0.10100777207E+02  0.18726528836E+02  0.00000000000E+00 0.  1.
         11    1    3    3    0    0  0.24118268631E+01  0.63396386001E+01 -0.17523973004E+02  0.18790890253E+02  0.51100000000E-03 0. -1.
        -11    1    3    3    0    0 -0.11153534887E+02 -0.12434267688E+02 -0.11661389443E+01  0.16744319446E+02  0.51100000000E-03 0.  1.
         12    1    3    3    0    0  0.23118981375E+02 -0.38234497701E+00  0.28790889155E+02  0.36926261466E+02  0.00000000000E+00 0. -1.
</event>
<event>
 7    1  0.3440346E-013  0.7246136E+02  0.7816164E-02  0.1226709E+00
        -11   -1    0    0    0    0  0.00000000000E+00  0.00000000000E+00  0.45593999997E+02  0.45594000000E+02  0.51100000000E-03 0. -1.
         11   -1    0    0    0    0 -0.00000000000E+00 -0.00000000000E+00 -0.45593999997E+02  0.45594000000E+02  0.51100000000E-03 0.  1.
    9900012    2    1    2    0    0 -0.73001172444E+01  0.15271303219E+02  0.80114038021E+01  0.72461361095E+02  0.69999727479E+02 0.  0.
        -12    1    1    2    0    0  0.73001172444E+01 -0.15271303219E+02 -0.80114038021E+01  0.18726638905E+02  0.00000000000E+00 0.  1.
         11    1    3    3    0    0 -0.11590903085E+02  0.79945683437E+01  0.31007981030E+02  0.34055205845E+02  0.51100000000E-03 0. -1.
        -11    1    3    3    0    0 -0.10818418562E+02 -0.39561672126E+01 -0.57537287413E+01  0.12876134276E+02  0.51100000000E-03 0.  1.
        -12    1    3    3    0    0  0.15109204402E+02  0.11232902088E+02 -0.17242848487E+02  0.25530020974E+02  0.00000000000E+00 0.  1.
</event>
<event>
 7    1  0.3440346E-013  0.7246156E+02  0.7816164E-02  0.1226708E+00
        -11   -1    0    0    0    0  0.00000000000E+00  0.00000000000E+00  0.45593999997E+02  0.45594000000E+02  0.51100000000E-03 0.  1.
         11   -1    0    0    0    0 -0.00000000000E+00 -0.00000000000E+00 -0.45593999997E+02  0.45594000000E+02  0.51100000000E-03 0. -1.
    9900012    2    1    2    0    0 -0.15885226631E+02 -0.53803744145E+00 -0.99020003022E+01  0.72461560953E+02  0.69999987831E+02 0.  0.
        -12    1    1    2    0    0  0.15885226631E+02  0.53803744145E+00  0.99020003022E+01  0.18726439047E+02  0.00000000000E+00 0.  1.
         11    1    3    3    0    0 -0.24552520883E+01 -0.17273407933E+02 -0.10610257130E+02  0.20420001005E+02  0.51100000000E-03 0. -1.
        -11    1    3    3    0    0 -0.89443873024E+01  0.10539189496E+01 -0.22178625471E+02  0.23937506917E+02  0.51100000000E-03 0.  1.
        -12    1    3    3    0    0 -0.44855872399E+01  0.15681451542E+02  0.22886882299E+02  0.28104053030E+02  0.00000000000E+00 0.  1.
</event>
<event>
 7    1  0.3440346E-013  0.7246156E+02  0.7816164E-02  0.1226708E+00
        -11   -1    0    0    0    0  0.00000000000E+00  0.00000000000E+00  0.45593999997E+02  0.45594000000E+02  0.51100000000E-03 0.  1.
         11   -1    0    0    0    0 -0.00000000000E+00 -0.00000000000E+00 -0.45593999997E+02  0.45594000000E+02  0.51100000000E-03 0. -1.
    9900012    2    1    2    0    0 -0.65830707931E+01 -0.63585021478E+01 -0.16337443818E+02  0.72461563043E+02  0.69999990553E+02 0.  0.
        -12    1    1    2    0    0  0.65830707931E+01  0.63585021478E+01  0.16337443818E+02  0.18726436957E+02  0.00000000000E+00 0.  1.
         11    1    3    3    0    0 -0.11541495657E+02 -0.50192087787E+01 -0.65542924344E+01  0.14190043282E+02  0.51100000000E-03 0. -1.
        -11    1    3    3    0    0 -0.22761582659E+02  0.12278286081E+02  0.42011452880E-01  0.25862090393E+02  0.51100000000E-03 0.  1.
         12    1    3    3    0    0  0.27720007524E+02 -0.13617579450E+02 -0.98251628360E+01  0.32409429368E+02  0.00000000000E+00 0. -1.
</event>
<event>
 7    1  0.3440346E-013  0.7246158E+02  0.7816164E-02  0.1226708E+00
        -11   -1    0    0    0    0  0.00000000000E+00  0.00000000000E+00  0.45593999997E+02  0.45594000000E+02  0.51100000000E-03 0. -1.
         11   -1    0    0    0    0 -0.00000000000E+00 -0.00000000000E+00 -0.45593999997E+02  0.45594000000E+02  0.51100000000E-03 0.  1.
    9900012    2    1    2    0    0  0.12789622759E+02 -0.62559504546E+01  0.12164184682E+02  0.72461581352E+02  0.70000014404E+02 0.  0.
        -12    1    1    2    0    0 -0.12789622759E+02  0.62559504546E+01 -0.12164184682E+02  0.18726418648E+02  0.00000000000E+00 0.  1.
         11    1    3    3    0    0  0.73424731106E+01 -0.24473402090E+01  0.13719832995E+02  0.15752307867E+02  0.51100000000E-03 0. -1.
        -11    1    3    3    0    0  0.18573173280E+02  0.20991971152E+02 -0.48883515801E+01  0.28452093068E+02  0.51100000000E-03 0.  1.
         12    1    3    3    0    0 -0.13126023632E+02 -0.24800581398E+02  0.33327032678E+01  0.28257180417E+02  0.00000000000E+00 0. -1.
</event>
<event>
 7    1  0.3440346E-013  0.7246160E+02  0.7816164E-02  0.1226708E+00
        -11   -1    0    0    0    0  0.00000000000E+00  0.00000000000E+00  0.45593999997E+02  0.45594000000E+02  0.51100000000E-03 0.  1.
         11   -1    0    0    0    0 -0.00000000000E+00 -0.00000000000E+00 -0.45593999997E+02  0.45594000000E+02  0.51100000000E-03 0. -1.
    9900012    2    1    2    0    0 -0.32474831033E+01  0.15816616615E+01 -0.18374721084E+02  0.72461596847E+02  0.70000034590E+02 0.  0.
        -12    1    1    2    0    0  0.32474831033E+01 -0.15816616615E+01  0.18374721084E+02  0.18726403153E+02  0.00000000000E+00 0.  1.
         11    1    3    3    0    0 -0.39829358684E+01 -0.36682939380E+01 -0.11932565360E+02  0.13103674098E+02  0.51100000000E-03 0. -1.
        -11    1    3    3    0    0 -0.20624350508E+02 -0.14235336171E+02 -0.14999275718E+02  0.29205939500E+02  0.51100000000E-03 0.  1.
         12    1    3    3    0    0  0.21359803273E+02  0.19485291770E+02  0.85571199931E+01  0.30151983249E+02  0.00000000000E+00 0. -1.
</event>
<event>
 7    1  0.3440346E-013  0.7246158E+02  0.7816164E-02  0.1226708E+00
        -11   -1    0    0    0    0  0.00000000000E+00  0.00000000000E+00  0.45593999997E+02  0.45594000000E+02  0.51100000000E-03 0. -1.
         11   -1    0    0    0    0 -0.00000000000E+00 -0.00000000000E+00 -0.45593999997E+02  0.45594000000E+02  0.51100000000E-03 0.  1.
    9900012    2    1    2    0    0  0.20334200638E+01  0.57118400840E+01  0.17717753942E+02  0.72461582322E+02  0.70000015668E+02 0.  0.
        -12    1    1    2    0    0 -0.20334200638E+01 -0.57118400840E+01 -0.17717753942E+02  0.18726417678E+02  0.00000000000E+00 0.  1.
         11    1    3    3    0    0 -0.27420575248E+01  0.97929261129E+01  0.16114588677E+02  0.19055189577E+02  0.51100000000E-03 0. -1.
        -11    1    3    3    0    0 -0.57761522406E+01  0.18982473359E+02 -0.13395918987E+02  0.23940527883E+02  0.51100000000E-03 0.  1.
        -12    1    3    3    0    0  0.10551629829E+02 -0.23063559388E+02  0.14999084252E+02  0.29465864863E+02  0.00000000000E+00 0.  1.
</event>
<event>
 7    1  0.3440346E-013  0.7246163E+02  0.7816164E-02  0.1226708E+00
        -11   -1    0    0    0    0  0.00000000000E+00  0.00000000000E+00  0.45593999997E+02  0.45594000000E+02  0.51100000000E-03 0.  1.
         11   -1    0    0    0    0 -0.00000000000E+00 -0.00000000000E+00 -0.45593999997E+02  0.45594000000E+02  0.51100000000E-03 0. -1.
    9900012    2    1    2    0    0  0.66666598341E+01 -0.57774598724E+01  0.16518275495E+02  0.72461632994E+02  0.70000081677E+02 0.  0.
        -12    1    1    2    0    0 -0.66666598341E+01  0.57774598724E+01 -0.16518275495E+02  0.18726367006E+02  0.00000000000E+00 0.  1.
         11    1    3    3    0    0 -0.59356365010E+01 -0.27200538764E+02  0.22259672732E+02  0.35645394094E+02  0.51100000000E-03 0. -1.
        -11    1    3    3    0    0  0.13374583382E+02  0.73019119712E+00  0.39336951637E+01  0.13960179717E+02  0.51100000000E-03 0.  1.
        -12    1    3    3    0    0 -0.77228704665E+00  0.20692887694E+02 -0.96750924005E+01  0.22856059183E+02  0.00000000000E+00 0.  1.
</event>
<event>
 7    1  0.3440346E-013  0.7246155E+02  0.7816164E-02  0.1226708E+00
        -11   -1    0    0    0    0  0.00000000000E+00  0.00000000000E+00  0.45593999997E+02  0.45594000000E+02  0.51100000000E-03 0.  1.
         11   -1    0    0    0    0 -0.00000000000E+00 -0.00000000000E+00 -0.45593999997E+02  0.45594000000E+02  0.51100000000E-03 0. -1.
    9900012    2    1    2    0    0 -0.93890399856E+01  0.74427717273E+01 -0.14392042733E+02  0.72461553010E+02  0.69999977484E+02 0.  0.
        -12    1    1    2    0    0  0.93890399856E+01 -0.74427717273E+01  0.14392042733E+02  0.18726446990E+02  0.00000000000E+00 0.  1.
         11    1    3    3    0    0 -0.62481093031E+01 -0.63618451576E+01  0.42059597586E+01  0.98591095655E+01  0.51100000000E-03 0. -1.
        -11    1    3    3    0    0 -0.10280244915E+02 -0.39624075786E+00  0.19097883369E+02  0.21692616064E+02  0.51100000000E-03 0.  1.
         12    1    3    3    0    0  0.71393142326E+01  0.14200857643E+02 -0.37695885861E+02  0.40909827381E+02  0.00000000000E+00 0. -1.
</event>
<event>
 7    1  0.3440346E-013  0.7246157E+02  0.7816164E-02  0.1226708E+00
        -11   -1    0    0    0    0  0.00000000000E+00  0.00000000000E+00  0.45593999997E+02  0.45594000000E+02  0.51100000000E-03 0. -1.
         11   -1    0    0    0    0 -0.00000000000E+00 -0.00000000000E+00 -0.45593999997E+02  0.45594000000E+02  0.51100000000E-03 0.  1.
    9900012    2    1    2    0    0  0.20283246661E+01  0.22231551857E+01  0.18483037473E+02  0.72461569636E+02  0.69999999143E+02 0.  0.
        -12    1    1    2    0    0 -0.20283246661E+01 -0.22231551857E+01 -0.18483037473E+02  0.18726430364E+02  0.00000000000E+00 0.  1.
         11    1    3    3    0    0  0.12961400008E+01 -0.62206993992E+01 -0.26858488030E+01  0.68986131918E+01  0.51100000000E-03 0. -1.
        -11    1    3    3    0    0 -0.15301809553E+02  0.17020424424E+01 -0.17411885069E+02  0.23242548612E+02  0.51100000000E-03 0.  1.
         12    1    3    3    0    0  0.16033994218E+02  0.67418121424E+01  0.38580771345E+02  0.42320407833E+02  0.00000000000E+00 0. -1.
</event>
<event>
 7    1  0.3440346E-013  0.7246162E+02  0.7816164E-02  0.1226708E+00
        -11   -1    0    0    0    0  0.00000000000E+00  0.00000000000E+00  0.45593999997E+02  0.45594000000E+02  0.51100000000E-03 0. -1.
         11   -1    0    0    0    0 -0.00000000000E+00 -0.00000000000E+00 -0.45593999997E+02  0.45594000000E+02  0.51100000000E-03 0.  1.
    9900012    2    1    2    0    0  0.71057764076E+01 -0.87458342303E+01  0.14956464156E+02  0.72461615010E+02  0.70000058251E+02 0.  0.
        -12    1    1    2    0    0 -0.71057764076E+01  0.87458342303E+01 -0.14956464156E+02  0.18726384990E+02  0.00000000000E+00 0.  1.
         11    1    3    3    0    0  0.64411456550E+01  0.13285486656E+02 -0.65937573997E+01  0.16170038650E+02  0.51100000000E-03 0. -1.
        -11    1    3    3    0    0 -0.37229420587E+01 -0.24955152854E+02 -0.78484703184E+01  0.26423823307E+02  0.51100000000E-03 0.  1.
         12    1    3    3    0    0  0.43875728113E+01  0.29238319677E+01  0.29398691874E+02  0.29867753054E+02  0.00000000000E+00 0. -1.
</event>
<event>
 7    1  0.3440346E-013  0.7246158E+02  0.7816164E-02  0.1226708E+00
        -11   -1    0    0    0    0  0.00000000000E+00  0.00000000000E+00  0.45593999997E+02  0.45594000000E+02  0.51100000000E-03 0.  1.
         11   -1    0    0    0    0 -0.00000000000E+00 -0.00000000000E+00 -0.45593999997E+02  0.45594000000E+02  0.51100000000E-03 0. -1.
    9900012    2    1    2    0    0 -0.10373160199E+02 -0.22201969770E+01 -0.15432011257E+02  0.72461582869E+02  0.70000016380E+02 0.  0.
        -12    1    1    2    0    0  0.10373160199E+02  0.22201969770E+01  0.15432011257E+02  0.18726417131E+02  0.00000000000E+00 0.  1.
         11    1    3    3    0    0 -0.39501567194E+01 -0.56366614333E+01 -0.54223118965E+01  0.87622575165E+01  0.51100000000E-03 0. -1.
        -11    1    3    3    0    0  0.13875128852E+02  0.14279872032E+02 -0.28086660390E+02  0.34428105351E+02  0.51100000000E-03 0.  1.
         12    1    3    3    0    0 -0.20298132332E+02 -0.10863407576E+02  0.18076961029E+02  0.29271220001E+02  0.00000000000E+00 0. -1.
</event>
<event>
 7    1  0.3440346E-013  0.7246156E+02  0.7816164E-02  0.1226708E+00
        -11   -1    0    0    0    0  0.00000000000E+00  0.00000000000E+00  0.45593999997E+02  0.45594000000E+02  0.51100000000E-03 0. -1.
         11   -1    0    0    0    0 -0.00000000000E+00 -0.00000000000E+00 -0.45593999997E+02  0.45594000000E+02  0.51100000000E-03 0.  1.
    9900012    2    1    2    0    0 -0.80847799558E+00 -0.75155291961E+01  0.17133087959E+02  0.72461560969E+02  0.69999987852E+02 0.  0.
        -12    1    1    2    0    0  0.80847799558E+00  0.75155291961E+01 -0.17133087959E+02  0.18726439031E+02  0.00000000000E+00 0.  1.
         11    1    3    3    0    0  0.14500974192E+02  0.43062370863E+01  0.29220701451E+01  0.15406505917E+02  0.51100000000E-03 0. -1.
        -11    1    3    3    0    0  0.92561598274E+01  0.13653975159E+02 -0.43958215023E+01  0.17071343806E+02  0.51100000000E-03 0.  1.
        -12    1    3    3    0    0 -0.24565612015E+02 -0.25475741442E+02  0.18606839316E+02  0.39983711246E+02  0.00000000000E+00 0.  1.
</event>
<event>
 7    1  0.3440346E-013  0.7246159E+02  0.7816164E-02  0.1226708E+00
        -11   -1    0    0    0    0  0.00000000000E+00  0.00000000000E+00  0.45593999997E+02  0.45594000000E+02  0.51100000000E-03 0. -1.
         11   -1    0    0    0    0 -0.00000000000E+00 -0.00000000000E+00 -0.45593999997E+02  0.45594000000E+02  0.51100000000E-03 0.  1.
    9900012    2    1    2    0    0  0.10481693941E+01  0.18584281071E+02  0.20504099320E+01  0.72461592365E+02  0.70000028752E+02 0.  0.
        -12    1    1    2    0    0 -0.10481693941E+01 -0.18584281071E+02 -0.20504099320E+01  0.18726407635E+02  0.00000000000E+00 0.  1.
         11    1    3    3    0    0 -0.63646727508E+01  0.20312951587E+02  0.14344251455E+02  0.25668708801E+02  0.51100000000E-03 0. -1.
        -11    1    3    3    0    0 -0.12339207665E+02 -0.23066101704E+00  0.10777190886E+02  0.16384660325E+02  0.51100000000E-03 0.  1.
        -12    1    3    3    0    0  0.19752049810E+02 -0.14980094994E+01 -0.23071032410E+02  0.30408223240E+02  0.00000000000E+00 0.  1.
</event>
<event>
 7    1  0.3440346E-013  0.7246167E+02  0.7816164E-02  0.1226708E+00
        -11   -1    0    0    0    0  0.00000000000E+00  0.00000000000E+00  0.45593999997E+02  0.45594000000E+02  0.51100000000E-03 0.  1.
         11   -1    0    0    0    0 -0.00000000000E+00 -0.00000000000E+00 -0.45593999997E+02  0.45594000000E+02  0.51100000000E-03 0. -1.
    9900012    2    1    2    0    0  0.17482597470E+02  0.76744730796E+00  0.66667368249E+01  0.72461666414E+02  0.70000125214E+02 0.  0.
        -12    1    1    2    0    0 -0.17482597470E+02 -0.76744730796E+00 -0.66667368249E+01  0.18726333586E+02  0.00000000000E+00 0.  1.
         11    1    3    3    0    0  0.68238348320E+01  0.94656524713E-01 -0.10408815643E+01  0.69034133850E+01  0.51100000000E-03 0. -1.
        -11    1    3    3    0    0  0.26716447734E+02  0.24559727441E+02  0.53067545270E+01  0.36675747237E+02  0.51100000000E-03 0.  1.
         12    1    3    3    0    0 -0.16057685096E+02 -0.23886936658E+02  0.24008638622E+01  0.28882505792E+02  0.00000000000E+00 0. -1.
</event>
<event>
 7    1  0.3440346E-013  0.7246155E+02  0.7816164E-02  0.1226708E+00
        -11   -1    0    0    0    0  0.00000000000E+00  0.00000000000E+00  0.45593999997E+02  0.45594000000E+02  0.51100000000E-03 0.  1.
         11   -1    0    0    0    0 -0.00000000000E+00 -0.00000000000E+00 -0.45593999997E+02  0.45594000000E+02  0.51100000000E-03 0. -1.
    9900012    2    1    2    0    0 -0.87576823920E+01 -0.16312753734E+02  0.28066259531E+01  0.72461545864E+02  0.69999968175E+02 0.  0.
        -12    1    1    2    0    0  0.87576823920E+01  0.16312753734E+02 -0.28066259531E+01  0.18726454136E+02  0.00000000000E+00 0.  1.
         11    1    3    3    0    0 -0.18824891637E+01  0.56680037024E+01 -0.47579000352E+01  0.76359442394E+01  0.51100000000E-03 0. -1.
        -11    1    3    3    0    0  0.21040595811E+02  0.86762185007E+01  0.48779624372E+01  0.23276124191E+02  0.51100000000E-03 0.  1.
         12    1    3    3    0    0 -0.27915789039E+02 -0.30656975937E+02  0.26865635510E+01  0.41549477434E+02  0.00000000000E+00 0. -1.
</event>
<event>
 7    1  0.3440346E-013  0.7246176E+02  0.7816164E-02  0.1226707E+00
        -11   -1    0    0    0    0  0.00000000000E+00  0.00000000000E+00  0.45593999997E+02  0.45594000000E+02  0.51100000000E-03 0.  1.
         11   -1    0    0    0    0 -0.00000000000E+00 -0.00000000000E+00 -0.45593999997E+02  0.45594000000E+02  0.51100000000E-03 0. -1.
    9900012    2    1    2    0    0 -0.11588254769E+02  0.65578616986E+01 -0.13167335649E+02  0.72461763679E+02  0.70000251919E+02 0.  0.
        -12    1    1    2    0    0  0.11588254769E+02 -0.65578616986E+01  0.13167335649E+02  0.18726236321E+02  0.00000000000E+00 0.  1.
         11    1    3    3    0    0 -0.24909976929E+02  0.10574288866E+02  0.78346457542E+01  0.28172756520E+02  0.51100000000E-03 0. -1.
        -11    1    3    3    0    0 -0.68256220253E+00  0.12658816523E+02  0.17478470043E+01  0.12797128441E+02  0.51100000000E-03 0.  1.
        -12    1    3    3    0    0  0.14004284362E+02 -0.16675243690E+02 -0.22749828408E+02  0.31491878718E+02  0.00000000000E+00 0.  1.
</event>
<event>
 7    1  0.3440346E-013  0.7246163E+02  0.7816164E-02  0.1226708E+00
        -11   -1    0    0    0    0  0.00000000000E+00  0.00000000000E+00  0.45593999997E+02  0.45594000000E+02  0.51100000000E-03 0.  1.
         11   -1    0    0    0    0 -0.00000000000E+00 -0.00000000000E+00 -0.45593999997E+02  0.45594000000E+02  0.51100000000E-03 0. -1.
    9900012    2    1    2    0    0  0.18204708851E+02 -0.59286024298E+00 -0.43490212245E+01  0.72461631072E+02  0.70000079174E+02 0.  0.
        -12    1    1    2    0    0 -0.18204708851E+02  0.59286024298E+00  0.43490212245E+01  0.18726368928E+02  0.00000000000E+00 0.  1.
         11    1    3    3    0    0  0.20985410145E+02 -0.62385897732E+01 -0.59866635945E+01  0.22696862836E+02  0.51100000000E-03 0. -1.
        -11    1    3    3    0    0  0.12771418940E+02 -0.17100984228E+02 -0.37972562215E+01  0.21678836647E+02  0.51100000000E-03 0.  1.
         12    1    3    3    0    0 -0.15552120234E+02  0.22746713758E+02  0.54348985915E+01  0.28085931589E+02  0.00000000000E+00 0. -1.
</event>
<event>
 7    1  0.3440346E-013  0.7246143E+02  0.7816164E-02  0.1226708E+00
        -11   -1    0    0    0    0  0.00000000000E+00  0.00000000000E+00  0.45593999997E+02  0.45594000000E+02  0.51100000000E-03 0. -1.
         11   -1    0    0    0    0 -0.00000000000E+00 -0.00000000000E+00 -0.45593999997E+02  0.45594000000E+02  0.51100000000E-03 0.  1.
    9900012    2    1    2    0    0  0.55729041701E+00  0.17168789588E+02  0.74569871565E+01  0.72461426209E+02  0.69999812301E+02 0.  0.
        -12    1    1    2    0    0 -0.55729041701E+00 -0.17168789588E+02 -0.74569871565E+01  0.18726573791E+02  0.00000000000E+00 0.  1.
         11    1    3    3    0    0 -0.70097230107E+01  0.78591321903E+01  0.19848392910E+02  0.22469109392E+02  0.51100000000E-03 0. -1.
        -11    1    3    3    0    0 -0.80939587348E+01 -0.41831797359E+01 -0.24427843205E+02  0.26071645223E+02  0.51100000000E-03 0.  1.
         12    1    3    3    0    0  0.15660972163E+02  0.13492837133E+02  0.12036437451E+02  0.23920671594E+02  0.00000000000E+00 0. -1.
</event>
<event>
 7    1  0.3440346E-013  0.7246159E+02  0.7816164E-02  0.1226708E+00
        -11   -1    0    0    0    0  0.00000000000E+00  0.00000000000E+00  0.45593999997E+02  0.45594000000E+02  0.51100000000E-03 0.  1.
         11   -1    0    0    0    0 -0.00000000000E+00 -0.00000000000E+00 -0.45593999997E+02  0.45594000000E+02  0.51100000000E-03 0. -1.
    9900012    2    1    2    0    0 -0.15938374203E+02  0.39832368212E+01  0.89877878999E+01  0.72461594067E+02  0.70000030969E+02 0.  0.
        -12    1    1    2    0    0  0.15938374203E+02 -0.39832368212E+01 -0.89877878999E+01  0.18726405933E+02  0.00000000000E+00 0.  1.
         11    1    3    3    0    0  0.31297677319E+01 -0.23471980374E+02 -0.37377667652E+00  0.23682673371E+02  0.51100000000E-03 0.  1.
        -11    1    3    3    0    0 -0.15327962258E+02 -0.19861860721E+01  0.11132760768E+02  0.19048089790E+02  0.51100000000E-03 0. -1.
         12    1    3    3    0    0 -0.37401796776E+01  0.29441403268E+02 -0.17711961914E+01  0.29730830906E+02  0.00000000000E+00 0. -1.
</event>
<event>
 7    1  0.3440346E-013  0.7246165E+02  0.7816164E-02  0.1226708E+00
        -11   -1    0    0    0    0  0.00000000000E+00  0.00000000000E+00  0.45593999997E+02  0.45594000000E+02  0.51100000000E-03 0.  1.
         11   -1    0    0    0    0 -0.00000000000E+00 -0.00000000000E+00 -0.45593999997E+02  0.45594000000E+02  0.51100000000E-03 0. -1.
    9900012    2    1    2    0    0 -0.58834490898E+01  0.99934785292E+00 -0.17749999323E+02  0.72461651042E+02  0.70000105188E+02 0.  0.
        -12    1    1    2    0    0  0.58834490898E+01 -0.99934785292E+00  0.17749999323E+02  0.18726348958E+02  0.00000000000E+00 0.  1.
         11    1    3    3    0    0  0.16090739842E+02 -0.38748628937E+01 -0.25588553894E+02  0.30474588787E+02  0.51100000000E-03 0. -1.
        -11    1    3    3    0    0 -0.14861581218E+02 -0.13420595897E+02  0.97377218197E+01  0.22266616649E+02  0.51100000000E-03 0.  1.
         12    1    3    3    0    0 -0.71126077145E+01  0.18294806644E+02 -0.18991672497E+01  0.19720445605E+02  0.00000000000E+00 0. -1.
</event>
<event>
 7    1  0.3440346E-013  0.7246157E+02  0.7816164E-02  0.1226708E+00
        -11   -1    0    0    0    0  0.00000000000E+00  0.00000000000E+00  0.45593999997E+02  0.45594000000E+02  0.51100000000E-03 0. -1.
         11   -1    0    0    0    0 -0.00000000000E+00 -0.00000000000E+00 -0.45593999997E+02  0.45594000000E+02  0.51100000000E-03 0.  1.
    9900012    2    1    2    0    0 -0.16771246804E+02 -0.36613479117E+01  0.74832541823E+01  0.72461567317E+02  0.69999996121E+02 0.  0.
        -12    1    1    2    0    0  0.16771246804E+02  0.36613479117E+01 -0.74832541823E+01  0.18726432683E+02  0.00000000000E+00 0.  1.
         11    1    3    3    0    0  0.65637518995E+01  0.64509329819E+01  0.14537208744E+01  0.93172249075E+01  0.51100000000E-03 0. -1.
        -11    1    3    3    0    0  0.26137500108E+01 -0.21251163369E+02 -0.16490535618E+02  0.27025569354E+02  0.51100000000E-03 0.  1.
         12    1    3    3    0    0 -0.25948748714E+02  0.11138882475E+02  0.22520068926E+02  0.36118773056E+02  0.00000000000E+00 0. -1.
</event>
<event>
 7    1  0.3440346E-013  0.7246159E+02  0.7816164E-02  0.1226708E+00
        -11   -1    0    0    0    0  0.00000000000E+00  0.00000000000E+00  0.45593999997E+02  0.45594000000E+02  0.51100000000E-03 0.  1.
         11   -1    0    0    0    0 -0.00000000000E+00 -0.00000000000E+00 -0.45593999997E+02  0.45594000000E+02  0.51100000000E-03 0. -1.
    9900012    2    1    2    0    0 -0.17558549054E+01  0.17150393891E+02 -0.73115864689E+01  0.72461592610E+02  0.70000029070E+02 0.  0.
        -12    1    1    2    0    0  0.17558549054E+01 -0.17150393891E+02  0.73115864689E+01  0.18726407390E+02  0.00000000000E+00 0.  1.
         11    1    3    3    0    0 -0.25220093790E+02 -0.85960649135E+01 -0.10232459242E+02  0.28542051173E+02  0.51100000000E-03 0. -1.
        -11    1    3    3    0    0 -0.41195422080E+01  0.20321220779E+01  0.58356704675E+01  0.74266545772E+01  0.51100000000E-03 0.  1.
        -12    1    3    3    0    0  0.27583781092E+02  0.23714336726E+02 -0.29147976940E+01  0.36492886859E+02  0.00000000000E+00 0.  1.
</event>
<event>
 7    1  0.3440346E-013  0.7246156E+02  0.7816164E-02  0.1226708E+00
        -11   -1    0    0    0    0  0.00000000000E+00  0.00000000000E+00  0.45593999997E+02  0.45594000000E+02  0.51100000000E-03 0.  1.
         11   -1    0    0    0    0 -0.00000000000E+00 -0.00000000000E+00 -0.45593999997E+02  0.45594000000E+02  0.51100000000E-03 0. -1.
    9900012    2    1    2    0    0  0.11708069438E+01 -0.30948522400E+01 -0.18431780320E+02  0.72461563471E+02  0.69999991112E+02 0.  0.
        -12    1    1    2    0    0 -0.11708069438E+01  0.30948522400E+01  0.18431780320E+02  0.18726436529E+02  0.00000000000E+00 0.  1.
         11    1    3    3    0    0 -0.73172432831E+01 -0.45587189764E+01 -0.23110228034E+02  0.24665899700E+02  0.51100000000E-03 0. -1.
        -11    1    3    3    0    0 -0.14616570816E+01 -0.20068406041E+02 -0.70676173515E+01  0.21326710430E+02  0.51100000000E-03 0.  1.
        -12    1    3    3    0    0  0.99497073085E+01  0.21532272778E+02  0.11746065065E+02  0.26468953342E+02  0.00000000000E+00 0.  1.
</event>
<event>
 7    1  0.3440346E-013  0.7246191E+02  0.7816164E-02  0.1226707E+00
        -11   -1    0    0    0    0  0.00000000000E+00  0.00000000000E+00  0.45593999997E+02  0.45594000000E+02  0.51100000000E-03 0.  1.
         11   -1    0    0    0    0 -0.00000000000E+00 -0.00000000000E+00 -0.45593999997E+02  0.45594000000E+02  0.51100000000E-03 0. -1.
    9900012    2    1    2    0    0  0.12329419624E+02  0.85571790568E+01 -0.11199402050E+02  0.72461908364E+02  0.70000440397E+02 0.  0.
        -12    1    1    2    0    0 -0.12329419624E+02 -0.85571790568E+01  0.11199402050E+02  0.18726091636E+02  0.00000000000E+00 0.  1.
         11    1    3    3    0    0 -0.16036799806E+02 -0.96143141507E+01 -0.23512660199E+02  0.30040958282E+02  0.51100000000E-03 0. -1.
        -11    1    3    3    0    0 -0.90888428643E+00 -0.17175330027E+01  0.62093305241E+01  0.65062874268E+01  0.51100000000E-03 0.  1.
        -12    1    3    3    0    0  0.29275103716E+02  0.19889026210E+02  0.61039276254E+01  0.35914662655E+02  0.00000000000E+00 0.  1.
</event>
<event>
 7    1  0.3440346E-013  0.7246155E+02  0.7816164E-02  0.1226708E+00
        -11   -1    0    0    0    0  0.00000000000E+00  0.00000000000E+00  0.45593999997E+02  0.45594000000E+02  0.51100000000E-03 0.  1.
         11   -1    0    0    0    0 -0.00000000000E+00 -0.00000000000E+00 -0.45593999997E+02  0.45594000000E+02  0.51100000000E-03 0. -1.
    9900012    2    1    2    0    0 -0.13170931665E+02 -0.12143325388E+02 -0.54540034664E+01  0.72461549557E+02  0.69999972986E+02 0.  0.
        -12    1    1    2    0    0  0.13170931665E+02  0.12143325388E+02  0.54540034664E+01  0.18726450443E+02  0.00000000000E+00 0.  1.
         11    1    3    3    0    0 -0.26260929485E+02  0.13873902393E+02 -0.27111431024E+01  0.29824015193E+02  0.51100000000E-03 0. -1.
        -11    1    3    3    0    0  0.20377790182E+01  0.72007207375E+01 -0.13294162753E+01  0.76006756516E+01  0.51100000000E-03 0.  1.
        -12    1    3    3    0    0  0.11052218803E+02 -0.33217948518E+02 -0.14134440887E+01  0.35036858712E+02  0.00000000000E+00 0.  1.
</event>
<event>
 7    1  0.3440346E-013  0.7246158E+02  0.7816164E-02  0.1226708E+00
        -11   -1    0    0    0    0  0.00000000000E+00  0.00000000000E+00  0.45593999997E+02  0.45594000000E+02  0.51100000000E-03 0. -1.
         11   -1    0    0    0    0 -0.00000000000E+00 -0.00000000000E+00 -0.45593999997E+02  0.45594000000E+02  0.51100000000E-03 0.  1.
    9900012    2    1    2    0    0  0.17172037732E+02  0.30119796099E+01  0.68357839264E+01  0.72461579014E+02  0.70000011359E+02 0.  0.
        -12    1    1    2    0    0 -0.17172037732E+02 -0.30119796099E+01 -0.68357839264E+01  0.18726420986E+02  0.00000000000E+00 0.  1.
         11    1    3    3    0    0 -0.22507118083E+01 -0.92422902083E+01 -0.70641614881E+01  0.11848544625E+02  0.51100000000E-03 0. -1.
        -11    1    3    3    0    0 -0.16338792375E+02  0.80852786833E+01 -0.63514026050E+01  0.19304615588E+02  0.51100000000E-03 0.  1.
         12    1    3    3    0    0  0.35761541916E+02  0.41689911349E+01  0.20251348019E+02  0.41308418802E+02  0.00000000000E+00 0. -1.
</event>
<event>
 7    1  0.3440346E-013  0.7246141E+02  0.7816164E-02  0.1226708E+00
        -11   -1    0    0    0    0  0.00000000000E+00  0.00000000000E+00  0.45593999997E+02  0.45594000000E+02  0.51100000000E-03 0.  1.
         11   -1    0    0    0    0 -0.00000000000E+00 -0.00000000000E+00 -0.45593999997E+02  0.45594000000E+02  0.51100000000E-03 0. -1.
    9900012    2    1    2    0    0  0.15366817101E+02  0.80471328112E+01 -0.70561881666E+01  0.72461409127E+02  0.69999790049E+02 0.  0.
        -12    1    1    2    0    0 -0.15366817101E+02 -0.80471328112E+01  0.70561881666E+01  0.18726590873E+02  0.00000000000E+00 0.  1.
         11    1    3    3    0    0 -0.10217908104E+02 -0.84465847669E+01 -0.17508894875E+02  0.21961599219E+02  0.51100000000E-03 0. -1.
        -11    1    3    3    0    0 -0.80944748396E+00 -0.62436168935E+01  0.14129794505E+02  0.15468970559E+02  0.51100000000E-03 0.  1.
         12    1    3    3    0    0  0.26394172689E+02  0.22737334472E+02 -0.36770877961E+01  0.35030839349E+02  0.00000000000E+00 0. -1.
</event>
<event>
 7    1  0.3440346E-013  0.7246159E+02  0.7816164E-02  0.1226708E+00
        -11   -1    0    0    0    0  0.00000000000E+00  0.00000000000E+00  0.45593999997E+02  0.45594000000E+02  0.51100000000E-03 0. -1.
         11   -1    0    0    0    0 -0.00000000000E+00 -0.00000000000E+00 -0.45593999997E+02  0.45594000000E+02  0.51100000000E-03 0.  1.
    9900012    2    1    2    0    0  0.59696936041E+01  0.16053459608E+02 -0.75715102903E+01  0.72461586163E+02  0.70000020672E+02 0.  0.
        -12    1    1    2    0    0 -0.59696936041E+01 -0.16053459608E+02  0.75715102903E+01  0.18726413837E+02  0.00000000000E+00 0.  1.
         11    1    3    3    0    0  0.18317900384E+01  0.16188839974E+02  0.16408722633E+02  0.23123152319E+02  0.51100000000E-03 0. -1.
        -11    1    3    3    0    0 -0.16744881804E+02 -0.10150517757E+02 -0.77581367133E+01  0.21062116771E+02  0.51100000000E-03 0.  1.
        -12    1    3    3    0    0  0.20882785370E+02  0.10015137391E+02 -0.16222096210E+02  0.28276317073E+02  0.00000000000E+00 0.  1.
</event>
<event>
 7    1  0.3440346E-013  0.7246159E+02  0.7816164E-02  0.1226708E+00
        -11   -1    0    0    0    0  0.00000000000E+00  0.00000000000E+00  0.45593999997E+02  0.45594000000E+02  0.51100000000E-03 0.  1.
         11   -1    0    0    0    0 -0.00000000000E+00 -0.00000000000E+00 -0.45593999997E+02  0.45594000000E+02  0.51100000000E-03 0. -1.
    9900012    2    1    2    0    0 -0.36808303579E+01 -0.84510057460E+01 -0.16300623344E+02  0.72461592666E+02  0.70000029143E+02 0.  0.
        -12    1    1    2    0    0  0.36808303579E+01  0.84510057460E+01  0.16300623344E+02  0.18726407334E+02  0.00000000000E+00 0.  1.
         11    1    3    3    0    0  0.16702692575E+01 -0.22221123816E+01  0.44505539226E+01  0.52473815669E+01  0.51100000000E-03 0. -1.
        -11    1    3    3    0    0  0.13451804635E+02 -0.16860420513E+02  0.14415942992E+02  0.25943096200E+02  0.51100000000E-03 0.  1.
         12    1    3    3    0    0 -0.18802904251E+02  0.10631527149E+02 -0.35167120258E+02  0.41271114899E+02  0.00000000000E+00 0. -1.
</event>
<event>
 7    1  0.3440346E-013  0.7246149E+02  0.7816164E-02  0.1226708E+00
        -11   -1    0    0    0    0  0.00000000000E+00  0.00000000000E+00  0.45593999997E+02  0.45594000000E+02  0.51100000000E-03 0.  1.
         11   -1    0    0    0    0 -0.00000000000E+00 -0.00000000000E+00 -0.45593999997E+02  0.45594000000E+02  0.51100000000E-03 0. -1.
    9900012    2    1    2    0    0 -0.15329077989E+02  0.71673441925E+01 -0.80206338001E+01  0.72461494151E+02  0.69999900809E+02 0.  0.
        -12    1    1    2    0    0  0.15329077989E+02 -0.71673441925E+01  0.80206338001E+01  0.18726505849E+02  0.00000000000E+00 0.  1.
         11    1    3    3    0    0  0.12078483708E+02  0.13431595256E+02 -0.90861042236E+01  0.20220158506E+02  0.51100000000E-03 0. -1.
        -11    1    3    3    0    0 -0.12902096736E+02  0.18791718569E+02  0.39936322222E+01  0.23141777925E+02  0.51100000000E-03 0.  1.
        -12    1    3    3    0    0 -0.14505464961E+02 -0.25055969632E+02 -0.29281617987E+01  0.29099557719E+02  0.00000000000E+00 0.  1.
</event>
<event>
 7    1  0.3440346E-013  0.7246192E+02  0.7816164E-02  0.1226707E+00
        -11   -1    0    0    0    0  0.00000000000E+00  0.00000000000E+00  0.45593999997E+02  0.45594000000E+02  0.51100000000E-03 0.  1.
         11   -1    0    0    0    0 -0.00000000000E+00 -0.00000000000E+00 -0.45593999997E+02  0.45594000000E+02  0.51100000000E-03 0. -1.
    9900012    2    1    2    0    0  0.95440918378E+01  0.33777433522E+01 -0.15753324983E+02  0.72461919599E+02  0.70000455032E+02 0.  0.
        -12    1    1    2    0    0 -0.95440918378E+01 -0.33777433522E+01  0.15753324983E+02  0.18726080401E+02  0.00000000000E+00 0.  1.
         11    1    3    3    0    0  0.25295142075E+02  0.16931471217E+02  0.26058585611E+01  0.30550113409E+02  0.51100000000E-03 0. -1.
        -11    1    3    3    0    0  0.12031940824E+01  0.50221379278E+01  0.52876006173E+01  0.73910936887E+01  0.51100000000E-03 0.  1.
        -12    1    3    3    0    0 -0.16954244320E+02 -0.18575865793E+02 -0.23646784162E+02  0.34520712501E+02  0.00000000000E+00 0.  1.
</event>
<event>
 7    1  0.3440346E-013  0.7246159E+02  0.7816164E-02  0.1226708E+00
        -11   -1    0    0    0    0  0.00000000000E+00  0.00000000000E+00  0.45593999997E+02  0.45594000000E+02  0.51100000000E-03 0. -1.
         11   -1    0    0    0    0 -0.00000000000E+00 -0.00000000000E+00 -0.45593999997E+02  0.45594000000E+02  0.51100000000E-03 0.  1.
    9900012    2    1    2    0    0 -0.29081679633E+01 -0.15681384488E+02  0.98140270899E+01  0.72461591159E+02  0.70000027180E+02 0.  0.
        -12    1    1    2    0    0  0.29081679633E+01  0.15681384488E+02 -0.98140270899E+01  0.18726408841E+02  0.00000000000E+00 0.  1.
         11    1    3    3    0    0  0.13908748793E+02  0.20675706808E+02  0.27496304573E+01  0.25069874609E+02  0.51100000000E-03 0. -1.
        -11    1    3    3    0    0 -0.52605030441E+00 -0.57878586143E+01 -0.77756296432E+01  0.97075461817E+01  0.51100000000E-03 0.  1.
        -12    1    3    3    0    0 -0.16290866451E+02 -0.30569232682E+02  0.14840026276E+02  0.37684170368E+02  0.00000000000E+00 0.  1.
</event>
<event>
 7    1  0.3440346E-013  0.7246155E+02  0.7816164E-02  0.1226708E+00
        -11   -1    0    0    0    0  0.00000000000E+00  0.00000000000E+00  0.45593999997E+02  0.45594000000E+02  0.51100000000E-03 0.  1.
         11   -1    0    0    0    0 -0.00000000000E+00 -0.00000000000E+00 -0.45593999997E+02  0.45594000000E+02  0.51100000000E-03 0. -1.
    9900012    2    1    2    0    0 -0.14899866618E+02 -0.16696252512E+01 -0.11219906785E+02  0.72461548602E+02  0.69999971742E+02 0.  0.
        -12    1    1    2    0    0  0.14899866618E+02  0.16696252512E+01  0.11219906785E+02  0.18726451398E+02  0.00000000000E+00 0.  1.
         11    1    3    3    0    0 -0.21657711009E+01  0.10430984134E+01 -0.31002539955E+00  0.24237852155E+01  0.51100000000E-03 0. -1.
        -11    1    3    3    0    0  0.20312935649E+02  0.10475203600E+01  0.17085610182E+02  0.26563710756E+02  0.51100000000E-03 0.  1.
         12    1    3    3    0    0 -0.33047031166E+02 -0.37602440245E+01 -0.27995491567E+02  0.43474052630E+02  0.00000000000E+00 0. -1.
</event>
<event>
 7    1  0.3440346E-013  0.7246153E+02  0.7816164E-02  0.1226708E+00
        -11   -1    0    0    0    0  0.00000000000E+00  0.00000000000E+00  0.45593999997E+02  0.45594000000E+02  0.51100000000E-03 0.  1.
         11   -1    0    0    0    0 -0.00000000000E+00 -0.00000000000E+00 -0.45593999997E+02  0.45594000000E+02  0.51100000000E-03 0. -1.
    9900012    2    1    2    0    0 -0.16296456877E+01  0.18525024247E+02 -0.22018844495E+01  0.72461533074E+02  0.69999951513E+02 0.  0.
        -12    1    1    2    0    0  0.16296456877E+01 -0.18525024247E+02  0.22018844495E+01  0.18726466926E+02  0.00000000000E+00 0.  1.
         11    1    3    3    0    0  0.37582924513E+01 -0.43486411459E+01 -0.60528735165E+01  0.83470186314E+01  0.51100000000E-03 0. -1.
        -11    1    3    3    0    0 -0.18638907156E+02 -0.84015428477E+01 -0.14916466231E+02  0.25308017451E+02  0.51100000000E-03 0.  1.
         12    1    3    3    0    0  0.13250969017E+02  0.31275208240E+02  0.18767455298E+02  0.38806496991E+02  0.00000000000E+00 0. -1.
</event>
<event>
 7    1  0.3440346E-013  0.7246154E+02  0.7816164E-02  0.1226708E+00
        -11   -1    0    0    0    0  0.00000000000E+00  0.00000000000E+00  0.45593999997E+02  0.45594000000E+02  0.51100000000E-03 0.  1.
         11   -1    0    0    0    0 -0.00000000000E+00 -0.00000000000E+00 -0.45593999997E+02  0.45594000000E+02  0.51100000000E-03 0. -1.
    9900012    2    1    2    0    0 -0.18684283820E+02 -0.95235430152E+00 -0.81897695233E+00  0.72461543746E+02  0.69999965416E+02 0.  0.
        -12    1    1    2    0    0  0.18684283820E+02  0.95235430152E+00  0.81897695233E+00  0.18726456254E+02  0.00000000000E+00 0.  1.
         11    1    3    3    0    0  0.89241273316E+01 -0.83104329211E+01 -0.22996541301E+02  0.26029680290E+02  0.51100000000E-03 0. -1.
        -11    1    3    3    0    0 -0.49827980172E+01  0.66700581680E+01 -0.60188374521E+01  0.10273478310E+02  0.51100000000E-03 0.  1.
        -12    1    3    3    0    0 -0.22625613135E+02  0.68802045157E+00  0.28196401800E+02  0.36158385146E+02  0.00000000000E+00 0.  1.
</event>
<event>
 7    1  0.3440346E-013  0.7246159E+02  0.7816164E-02  0.1226708E+00
        -11   -1    0    0    0    0  0.00000000000E+00  0.00000000000E+00  0.45593999997E+02  0.45594000000E+02  0.51100000000E-03 0. -1.
         11   -1    0    0    0    0 -0.00000000000E+00 -0.00000000000E+00 -0.45593999997E+02  0.45594000000E+02  0.51100000000E-03 0.  1.
    9900012    2    1    2    0    0 -0.19122372333E+01  0.11658251358E+02  0.14529517746E+02  0.72461591858E+02  0.70000028091E+02 0.  0.
        -12    1    1    2    0    0  0.19122372333E+01 -0.11658251358E+02 -0.14529517746E+02  0.18726408142E+02  0.00000000000E+00 0.  1.
         11    1    3    3    0    0  0.18085599952E+02  0.14073939078E+02  0.21632144178E+02  0.31513716836E+02  0.51100000000E-03 0. -1.
        -11    1    3    3    0    0  0.34635080706E+01  0.10306639192E+02 -0.91081380015E+01  0.14183824509E+02  0.51100000000E-03 0.  1.
        -12    1    3    3    0    0 -0.23461345256E+02 -0.12722326912E+02  0.20055115694E+01  0.26764050514E+02  0.00000000000E+00 0.  1.
</event>
<event>
 7    1  0.3440346E-013  0.7246166E+02  0.7816164E-02  0.1226708E+00
        -11   -1    0    0    0    0  0.00000000000E+00  0.00000000000E+00  0.45593999997E+02  0.45594000000E+02  0.51100000000E-03 0.  1.
         11   -1    0    0    0    0 -0.00000000000E+00 -0.00000000000E+00 -0.45593999997E+02  0.45594000000E+02  0.51100000000E-03 0. -1.
    9900012    2    1    2    0    0  0.82812312509E+01  0.10349967425E+02 -0.13227812576E+02  0.72461664473E+02  0.70000122685E+02 0.  0.
        -12    1    1    2    0    0 -0.82812312509E+01 -0.10349967425E+02  0.13227812576E+02  0.18726335527E+02  0.00000000000E+00 0.  1.
         11    1    3    3    0    0 -0.10264552942E+02  0.11426430503E+02 -0.36256351128E+02  0.39375720419E+02  0.51100000000E-03 0. -1.
        -11    1    3    3    0    0 -0.22843972062E+01  0.11377106186E+01  0.42297931764E+01  0.49400411561E+01  0.51100000000E-03 0.  1.
        -12    1    3    3    0    0  0.20830181399E+02 -0.22141736966E+01  0.18798745375E+02  0.28145902898E+02  0.00000000000E+00 0.  1.
</event>
<event>
 7    1  0.3440346E-013  0.7246152E+02  0.7816164E-02  0.1226708E+00
        -11   -1    0    0    0    0  0.00000000000E+00  0.00000000000E+00  0.45593999997E+02  0.45594000000E+02  0.51100000000E-03 0.  1.
         11   -1    0    0    0    0 -0.00000000000E+00 -0.00000000000E+00 -0.45593999997E+02  0.45594000000E+02  0.51100000000E-03 0. -1.
    9900012    2    1    2    0    0  0.33859179687E+01 -0.61546748585E+01 -0.17359052006E+02  0.72461517424E+02  0.69999931127E+02 0.  0.
        -12    1    1    2    0    0 -0.33859179687E+01  0.61546748585E+01  0.17359052006E+02  0.18726482576E+02  0.00000000000E+00 0.  1.
         11    1    3    3    0    0  0.14458939634E+02 -0.63957242286E+01 -0.51873731476E+01  0.16639563221E+02  0.51100000000E-03 0. -1.
        -11    1    3    3    0    0  0.21916989878E+01 -0.18304739409E+02  0.12464290693E+02  0.22253664238E+02  0.51100000000E-03 0.  1.
         12    1    3    3    0    0 -0.13264720653E+02  0.18545788779E+02 -0.24635969552E+02  0.33568289965E+02  0.00000000000E+00 0. -1.
</event>
<event>
 7    1  0.3440346E-013  0.7246157E+02  0.7816164E-02  0.1226708E+00
        -11   -1    0    0    0    0  0.00000000000E+00  0.00000000000E+00  0.45593999997E+02  0.45594000000E+02  0.51100000000E-03 0.  1.
         11   -1    0    0    0    0 -0.00000000000E+00 -0.00000000000E+00 -0.45593999997E+02  0.45594000000E+02  0.51100000000E-03 0. -1.
    9900012    2    1    2    0    0  0.12016991411E+01 -0.15655072225E+02 -0.10205583330E+02  0.72461566856E+02  0.69999995521E+02 0.  0.
        -12    1    1    2    0    0 -0.12016991411E+01  0.15655072225E+02  0.10205583330E+02  0.18726433144E+02  0.00000000000E+00 0.  1.
         11    1    3    3    0    0  0.17817536690E+01 -0.14216265896E+02 -0.68210845334E+01  0.15868335030E+02  0.51100000000E-03 0. -1.
        -11    1    3    3    0    0 -0.12326481588E+02  0.42045513153E+01  0.23414951512E+02  0.26793289359E+02  0.51100000000E-03 0.  1.
         12    1    3    3    0    0  0.11746427060E+02 -0.56433576444E+01 -0.26799450309E+02  0.29799942467E+02  0.00000000000E+00 0. -1.
</event>
<event>
 7    1  0.3440346E-013  0.7246157E+02  0.7816164E-02  0.1226708E+00
        -11   -1    0    0    0    0  0.00000000000E+00  0.00000000000E+00  0.45593999997E+02  0.45594000000E+02  0.51100000000E-03 0. -1.
         11   -1    0    0    0    0 -0.00000000000E+00 -0.00000000000E+00 -0.45593999997E+02  0.45594000000E+02  0.51100000000E-03 0.  1.
    9900012    2    1    2    0    0 -0.94887762303E+00  0.73983057410E+01  0.17176843689E+02  0.72461567994E+02  0.69999997003E+02 0.  0.
        -12    1    1    2    0    0  0.94887762303E+00 -0.73983057410E+01 -0.17176843689E+02  0.18726432006E+02  0.00000000000E+00 0.  1.
         11    1    3    3    0    0 -0.60148871560E+01 -0.15622113995E+02 -0.26285055917E+01  0.16945157275E+02  0.51100000000E-03 0. -1.
        -11    1    3    3    0    0 -0.93678783679E+01 -0.14156437901E+00 -0.10941455244E+02  0.14404604427E+02  0.51100000000E-03 0.  1.
         12    1    3    3    0    0  0.14433887901E+02  0.23161984115E+02  0.30746804524E+02  0.41111806291E+02  0.00000000000E+00 0. -1.
</event>
<event>
 7    1  0.3440346E-013  0.7246129E+02  0.7816164E-02  0.1226709E+00
        -11   -1    0    0    0    0  0.00000000000E+00  0.00000000000E+00  0.45593999997E+02  0.45594000000E+02  0.51100000000E-03 0.  1.
         11   -1    0    0    0    0 -0.00000000000E+00 -0.00000000000E+00 -0.45593999997E+02  0.45594000000E+02  0.51100000000E-03 0. -1.
    9900012    2    1    2    0    0 -0.12384943997E+02  0.73617138683E+01 -0.11962768844E+02  0.72461294275E+02  0.69999640433E+02 0.  0.
        -12    1    1    2    0    0  0.12384943997E+02 -0.73617138683E+01  0.11962768844E+02  0.18726705725E+02  0.00000000000E+00 0.  1.
         11    1    3    3    0    0  0.54656526005E+01  0.86190932229E+00  0.48395693783E+01  0.73510324484E+01  0.51100000000E-03 0. -1.
        -11    1    3    3    0    0  0.17670557094E+02  0.13873924296E+02 -0.18036782189E+02  0.28810759715E+02  0.51100000000E-03 0.  1.
         12    1    3    3    0    0 -0.35521153691E+02 -0.73741197497E+01  0.12344439670E+01  0.36299502112E+02  0.00000000000E+00 0. -1.
</event>
<event>
 7    1  0.3440346E-013  0.7246154E+02  0.7816164E-02  0.1226708E+00
        -11   -1    0    0    0    0  0.00000000000E+00  0.00000000000E+00  0.45593999997E+02  0.45594000000E+02  0.51100000000E-03 0. -1.
         11   -1    0    0    0    0 -0.00000000000E+00 -0.00000000000E+00 -0.45593999997E+02  0.45594000000E+02  0.51100000000E-03 0.  1.
    9900012    2    1    2    0    0 -0.12249513615E+02 -0.13760683036E+02 -0.33575766357E+01  0.72461540049E+02  0.69999960600E+02 0.  0.
        -12    1    1    2    0    0  0.12249513615E+02  0.13760683036E+02  0.33575766357E+01  0.18726459951E+02  0.00000000000E+00 0.  1.
         11    1    3    3    0    0  0.28231395311E+01 -0.12893451603E+02  0.41827954843E+01  0.13845829314E+02  0.51100000000E-03 0. -1.
        -11    1    3    3    0    0  0.18601087499E+02 -0.57538517912E+01  0.81975126977E+01  0.21125966990E+02  0.51100000000E-03 0.  1.
         12    1    3    3    0    0 -0.33673740645E+02  0.48866203584E+01 -0.15737884818E+02  0.37489743745E+02  0.00000000000E+00 0. -1.
</event>
<event>
 7    1  0.3440346E-013  0.7246156E+02  0.7816164E-02  0.1226708E+00
        -11   -1    0    0    0    0  0.00000000000E+00  0.00000000000E+00  0.45593999997E+02  0.45594000000E+02  0.51100000000E-03 0.  1.
         11   -1    0    0    0    0 -0.00000000000E+00 -0.00000000000E+00 -0.45593999997E+02  0.45594000000E+02  0.51100000000E-03 0. -1.
    9900012    2    1    2    0    0  0.57006829212E+01 -0.14170008942E+02 -0.10834791083E+02  0.72461557812E+02  0.69999983740E+02 0.  0.
        -12    1    1    2    0    0 -0.57006829212E+01  0.14170008942E+02  0.10834791083E+02  0.18726442188E+02  0.00000000000E+00 0.  1.
         11    1    3    3    0    0 -0.13113079967E+01  0.15727599169E+02 -0.24320900378E+02  0.28992811173E+02  0.51100000000E-03 0. -1.
        -11    1    3    3    0    0  0.61103390169E+01  0.40286685981E+01  0.14626811655E+01  0.74636351751E+01  0.51100000000E-03 0.  1.
         12    1    3    3    0    0  0.90165190092E+00 -0.33926276710E+02  0.12023428129E+02  0.36005111464E+02  0.00000000000E+00 0. -1.
</event>
<event>
 7    1  0.3440346E-013  0.7246191E+02  0.7816164E-02  0.1226707E+00
        -11   -1    0    0    0    0  0.00000000000E+00  0.00000000000E+00  0.45593999997E+02  0.45594000000E+02  0.51100000000E-03 0. -1.
         11   -1    0    0    0    0 -0.00000000000E+00 -0.00000000000E+00 -0.45593999997E+02  0.45594000000E+02  0.51100000000E-03 0.  1.
    9900012    2    1    2    0    0  0.66134449307E+01  0.12817653625E+02  0.11943047244E+02  0.72461914563E+02  0.70000448473E+02 0.  0.
        -12    1    1    2    0    0 -0.66134449307E+01 -0.12817653625E+02 -0.11943047244E+02  0.18726085437E+02  0.00000000000E+00 0.  1.
         11    1    3    3    0    0  0.53176077456E+01 -0.17201095290E+02  0.12243464319E+02  0.21772851217E+02  0.51100000000E-03 0. -1.
        -11    1    3    3    0    0 -0.59821477523E+01  0.94327157987E+01  0.18675496722E+02  0.21760891460E+02  0.51100000000E-03 0.  1.
        -12    1    3    3    0    0  0.72779849373E+01  0.20586033116E+02 -0.18975913798E+02  0.28928171886E+02  0.00000000000E+00 0.  1.
</event>
<event>
 7    1  0.3440346E-013  0.7246160E+02  0.7816164E-02  0.1226708E+00
        -11   -1    0    0    0    0  0.00000000000E+00  0.00000000000E+00  0.45593999997E+02  0.45594000000E+02  0.51100000000E-03 0. -1.
         11   -1    0    0    0    0 -0.00000000000E+00 -0.00000000000E+00 -0.45593999997E+02  0.45594000000E+02  0.51100000000E-03 0.  1.
    9900012    2    1    2    0    0  0.16382326650E+02 -0.88582084323E+01  0.19569305813E+01  0.72461599908E+02  0.70000038578E+02 0.  0.
        -12    1    1    2    0    0 -0.16382326650E+02  0.88582084323E+01 -0.19569305813E+01  0.18726400092E+02  0.00000000000E+00 0.  1.
         11    1    3    3    0    0  0.42958581160E+01 -0.82520358698E+01 -0.13593289928E+02  0.16472037648E+02  0.51100000000E-03 0. -1.
        -11    1    3    3    0    0 -0.20499710519E+02  0.39195660522E+01  0.53550331781E+01  0.21547099805E+02  0.51100000000E-03 0.  1.
         12    1    3    3    0    0  0.32586179053E+02 -0.45257386147E+01  0.10195187331E+02  0.34442462456E+02  0.00000000000E+00 0. -1.
</event>
<event>
 7    1  0.3440346E-013  0.7246157E+02  0.7816164E-02  0.1226708E+00
        -11   -1    0    0    0    0  0.00000000000E+00  0.00000000000E+00  0.45593999997E+02  0.45594000000E+02  0.51100000000E-03 0.  1.
         11   -1    0    0    0    0 -0.00000000000E+00 -0.00000000000E+00 -0.45593999997E+02  0.45594000000E+02  0.51100000000E-03 0. -1.
    9900012    2    1    2    0    0 -0.10285608158E+02  0.11582514664E+02  0.10522866383E+02  0.72461572203E+02  0.70000002487E+02 0.  0.
        -12    1    1    2    0    0  0.10285608158E+02 -0.11582514664E+02 -0.10522866383E+02  0.18726427797E+02  0.00000000000E+00 0.  1.
         11    1    3    3    0    0  0.86130857599E+01  0.71901096585E+01 -0.18158568709E+01  0.11365749410E+02  0.51100000000E-03 0. -1.
        -11    1    3    3    0    0  0.18415907185E+02 -0.85452070089E+01  0.52657348432E+01  0.20973654044E+02  0.51100000000E-03 0.  1.
        -12    1    3    3    0    0 -0.37314601103E+02  0.12937612014E+02  0.70729884102E+01  0.40122168749E+02  0.00000000000E+00 0.  1.
</event>
<event>
 7    1  0.3440346E-013  0.7246152E+02  0.7816164E-02  0.1226708E+00
        -11   -1    0    0    0    0  0.00000000000E+00  0.00000000000E+00  0.45593999997E+02  0.45594000000E+02  0.51100000000E-03 0. -1.
         11   -1    0    0    0    0 -0.00000000000E+00 -0.00000000000E+00 -0.45593999997E+02  0.45594000000E+02  0.51100000000E-03 0.  1.
    9900012    2    1    2    0    0 -0.60466164730E+01 -0.15803256964E+02  0.80235072892E+01  0.72461516864E+02  0.69999930397E+02 0.  0.
        -12    1    1    2    0    0  0.60466164730E+01  0.15803256964E+02 -0.80235072892E+01  0.18726483136E+02  0.00000000000E+00 0.  1.
         11    1    3    3    0    0  0.45798334244E+01  0.15193002714E+01 -0.62497934410E+01  0.78957625234E+01  0.51100000000E-03 0. -1.
        -11    1    3    3    0    0  0.10834979577E+02 -0.33696332437E+02  0.12407066017E+02  0.37506997875E+02  0.51100000000E-03 0.  1.
         12    1    3    3    0    0 -0.21461429474E+02  0.16373775202E+02  0.18662347132E+01  0.27058756466E+02  0.00000000000E+00 0. -1.
</event>
<event>
 7    1  0.3440346E-013  0.7246156E+02  0.7816164E-02  0.1226708E+00
        -11   -1    0    0    0    0  0.00000000000E+00  0.00000000000E+00  0.45593999997E+02  0.45594000000E+02  0.51100000000E-03 0. -1.
         11   -1    0    0    0    0 -0.00000000000E+00 -0.00000000000E+00 -0.45593999997E+02  0.45594000000E+02  0.51100000000E-03 0.  1.
    9900012    2    1    2    0    0 -0.57140164678E+01  0.12388131953E+02 -0.12828243446E+02  0.72461558069E+02  0.69999984074E+02 0.  0.
        -12    1    1    2    0    0  0.57140164678E+01 -0.12388131953E+02  0.12828243446E+02  0.18726441931E+02  0.00000000000E+00 0.  1.
         11    1    3    3    0    0  0.17395102938E+01  0.10030494310E+02 -0.12583927274E+02  0.16186165020E+02  0.51100000000E-03 0. -1.
        -11    1    3    3    0    0  0.11104678519E+02  0.24495443217E+02 -0.38294123707E+01  0.27166247860E+02  0.51100000000E-03 0.  1.
        -12    1    3    3    0    0 -0.18558205281E+02 -0.22137805574E+02  0.35850961989E+01  0.29109145189E+02  0.00000000000E+00 0.  1.
</event>
<event>
 7    1  0.3440346E-013  0.7246157E+02  0.7816164E-02  0.1226708E+00
        -11   -1    0    0    0    0  0.00000000000E+00  0.00000000000E+00  0.45593999997E+02  0.45594000000E+02  0.51100000000E-03 0.  1.
         11   -1    0    0    0    0 -0.00000000000E+00 -0.00000000000E+00 -0.45593999997E+02  0.45594000000E+02  0.51100000000E-03 0. -1.
    9900012    2    1    2    0    0  0.35612098639E+01  0.12759480274E+02 -0.13236041896E+02  0.72461565272E+02  0.69999993457E+02 0.  0.
        -12    1    1    2    0    0 -0.35612098639E+01 -0.12759480274E+02  0.13236041896E+02  0.18726434728E+02  0.00000000000E+00 0.  1.
         11    1    3    3    0    0  0.18131770094E+02  0.12648667850E+01  0.16040578009E+01  0.18246478466E+02  0.51100000000E-03 0. -1.
        -11    1    3    3    0    0 -0.70259319235E+01 -0.54820084172E+01  0.15940680427E+02  0.18262569053E+02  0.51100000000E-03 0.  1.
        -12    1    3    3    0    0 -0.75446283068E+01  0.16976621906E+02 -0.30780780124E+02  0.35952517752E+02  0.00000000000E+00 0.  1.
</event>
<event>
 7    1  0.3440346E-013  0.7246167E+02  0.7816164E-02  0.1226708E+00
        -11   -1    0    0    0    0  0.00000000000E+00  0.00000000000E+00  0.45593999997E+02  0.45594000000E+02  0.51100000000E-03 0. -1.
         11   -1    0    0    0    0 -0.00000000000E+00 -0.00000000000E+00 -0.45593999997E+02  0.45594000000E+02  0.51100000000E-03 0.  1.
    9900012    2    1    2    0    0  0.14537784867E+02 -0.83815384795E+00  0.11773947261E+02  0.72461667609E+02  0.70000126770E+02 0.  0.
        -12    1    1    2    0    0 -0.14537784867E+02  0.83815384795E+00 -0.11773947261E+02  0.18726332391E+02  0.00000000000E+00 0.  1.
         11    1    3    3    0    0  0.24697565615E+02 -0.70186413449E+01  0.11314431388E+02  0.28057929922E+02  0.51100000000E-03 0. -1.
        -11    1    3    3    0    0  0.16352855915E+02  0.35505026968E+01  0.48024130322E+01  0.17409340515E+02  0.51100000000E-03 0.  1.
        -12    1    3    3    0    0 -0.26512636664E+02  0.26299848002E+01 -0.43428971586E+01  0.26994397171E+02  0.00000000000E+00 0.  1.
</event>
<event>
 7    1  0.3440346E-013  0.7246186E+02  0.7816164E-02  0.1226707E+00
        -11   -1    0    0    0    0  0.00000000000E+00  0.00000000000E+00  0.45593999997E+02  0.45594000000E+02  0.51100000000E-03 0.  1.
         11   -1    0    0    0    0 -0.00000000000E+00 -0.00000000000E+00 -0.45593999997E+02  0.45594000000E+02  0.51100000000E-03 0. -1.
    9900012    2    1    2    0    0 -0.17561429772E+02 -0.23597404761E+01 -0.60577380585E+01  0.72461858349E+02  0.70000375243E+02 0.  0.
        -12    1    1    2    0    0  0.17561429772E+02  0.23597404761E+01  0.60577380585E+01  0.18726141651E+02  0.00000000000E+00 0.  1.
         11    1    3    3    0    0  0.40715179159E+00  0.23231320365E+02 -0.13532378205E+02  0.26888385571E+02  0.51100000000E-03 0. -1.
        -11    1    3    3    0    0  0.79113496306E+01  0.80477505824E+00  0.20409469006E+01  0.82099074528E+01  0.51100000000E-03 0.  1.
        -12    1    3    3    0    0 -0.25879931194E+02 -0.26395835900E+02  0.54336932461E+01  0.37363565324E+02  0.00000000000E+00 0.  1.
</event>
<event>
 7    1  0.3440346E-013  0.7246152E+02  0.7816164E-02  0.1226708E+00
        -11   -1    0    0    0    0  0.00000000000E+00  0.00000000000E+00  0.45593999997E+02  0.45594000000E+02  0.51100000000E-03 0.  1.
         11   -1    0    0    0    0 -0.00000000000E+00 -0.00000000000E+00 -0.45593999997E+02  0.45594000000E+02  0.51100000000E-03 0. -1.
    9900012    2    1    2    0    0 -0.45794284905E+01  0.17121473172E+02 -0.60468905895E+01  0.72461524232E+02  0.69999939995E+02 0.  0.
        -12    1    1    2    0    0  0.45794284905E+01 -0.17121473172E+02  0.60468905895E+01  0.18726475768E+02  0.00000000000E+00 0.  1.
         11    1    3    3    0    0  0.10112091142E+02  0.16106823092E+02 -0.23812075140E+02  0.30474564149E+02  0.51100000000E-03 0. -1.
        -11    1    3    3    0    0  0.71984548635E+01 -0.83235536117E+01  0.14134179279E+02  0.17912965174E+02  0.51100000000E-03 0.  1.
        -12    1    3    3    0    0 -0.21889974496E+02  0.93382036915E+01  0.36310052706E+01  0.24073994909E+02  0.00000000000E+00 0.  1.
</event>
<event>
 7    1  0.3440346E-013  0.7246154E+02  0.7816164E-02  0.1226708E+00
        -11   -1    0    0    0    0  0.00000000000E+00  0.00000000000E+00  0.45593999997E+02  0.45594000000E+02  0.51100000000E-03 0. -1.
         11   -1    0    0    0    0 -0.00000000000E+00 -0.00000000000E+00 -0.45593999997E+02  0.45594000000E+02  0.51100000000E-03 0.  1.
    9900012    2    1    2    0    0 -0.16201326820E+02 -0.57484088282E+01  0.74265052423E+01  0.72461543451E+02  0.69999965031E+02 0.  0.
        -12    1    1    2    0    0  0.16201326820E+02  0.57484088282E+01 -0.74265052423E+01  0.18726456549E+02  0.00000000000E+00 0.  1.
         11    1    3    3    0    0  0.63534086023E+01  0.47570035417E+01  0.31612698407E+02  0.32593827397E+02  0.51100000000E-03 0. -1.
        -11    1    3    3    0    0 -0.48282079834E+01 -0.48308577330E+01  0.25502771010E+01  0.72905892986E+01  0.51100000000E-03 0.  1.
        -12    1    3    3    0    0 -0.17726527439E+02 -0.56745546369E+01 -0.26736470266E+02  0.32577126755E+02  0.00000000000E+00 0.  1.
</event>
<event>
 7    1  0.3440346E-013  0.7246153E+02  0.7816164E-02  0.1226708E+00
        -11   -1    0    0    0    0  0.00000000000E+00  0.00000000000E+00  0.45593999997E+02  0.45594000000E+02  0.51100000000E-03 0. -1.
         11   -1    0    0    0    0 -0.00000000000E+00 -0.00000000000E+00 -0.45593999997E+02  0.45594000000E+02  0.51100000000E-03 0.  1.
    9900012    2    1    2    0    0 -0.65291441542E+01 -0.13659617248E+02  0.11021160582E+02  0.72461525497E+02  0.69999941643E+02 0.  0.
        -12    1    1    2    0    0  0.65291441542E+01  0.13659617248E+02 -0.11021160582E+02  0.18726474503E+02  0.00000000000E+00 0.  1.
         11    1    3    3    0    0 -0.12457717952E+01 -0.38507830451E+01  0.20753724258E+01  0.45483676625E+01  0.51100000000E-03 0. -1.
        -11    1    3    3    0    0  0.24262824497E+02  0.12340653758E+02 -0.63372220582E+01  0.27948824151E+02  0.51100000000E-03 0.  1.
         12    1    3    3    0    0 -0.29546196856E+02 -0.22149487961E+02  0.15283010214E+02  0.39964333684E+02  0.00000000000E+00 0. -1.
</event>
<event>
 7    1  0.3440346E-013  0.7246155E+02  0.7816164E-02  0.1226708E+00
        -11   -1    0    0    0    0  0.00000000000E+00  0.00000000000E+00  0.45593999997E+02  0.45594000000E+02  0.51100000000E-03 0.  1.
         11   -1    0    0    0    0 -0.00000000000E+00 -0.00000000000E+00 -0.45593999997E+02  0.45594000000E+02  0.51100000000E-03 0. -1.
    9900012    2    1    2    0    0  0.75074125536E+01 -0.15389731236E+02 -0.75812060958E+01  0.72461554618E+02  0.69999979579E+02 0.  0.
        -12    1    1    2    0    0 -0.75074125536E+01  0.15389731236E+02  0.75812060958E+01  0.18726445382E+02  0.00000000000E+00 0.  1.
         11    1    3    3    0    0  0.29955910413E+01 -0.70857122562E+01  0.66277341622E+01  0.10154198356E+02  0.51100000000E-03 0. -1.
        -11    1    3    3    0    0  0.15216974512E+02 -0.95911476680E+01  0.19728916291E+02  0.26697875668E+02  0.51100000000E-03 0.  1.
         12    1    3    3    0    0 -0.10705153000E+02  0.12871286878E+01 -0.33937856549E+02  0.35609480594E+02  0.00000000000E+00 0. -1.
</event>
<event>
 7    1  0.3440346E-013  0.7246156E+02  0.7816164E-02  0.1226708E+00
        -11   -1    0    0    0    0  0.00000000000E+00  0.00000000000E+00  0.45593999997E+02  0.45594000000E+02  0.51100000000E-03 0.  1.
         11   -1    0    0    0    0 -0.00000000000E+00 -0.00000000000E+00 -0.45593999997E+02  0.45594000000E+02  0.51100000000E-03 0. -1.
    9900012    2    1    2    0    0  0.10339129753E+02  0.13883454872E+02 -0.71436374472E+01  0.72461562025E+02  0.69999989228E+02 0.  0.
        -12    1    1    2    0    0 -0.10339129753E+02 -0.13883454872E+02  0.71436374472E+01  0.18726437975E+02  0.00000000000E+00 0.  1.
         11    1    3    3    0    0 -0.92145962613E+01 -0.14288344211E+02 -0.23113624277E+02  0.28693295245E+02  0.51100000000E-03 0. -1.
        -11    1    3    3    0    0  0.41331560886E+00  0.15596009128E+01 -0.47309594095E+01  0.49985159793E+01  0.51100000000E-03 0.  1.
        -12    1    3    3    0    0  0.19140410405E+02  0.26612198170E+02  0.20700946240E+02  0.38769750801E+02  0.00000000000E+00 0.  1.
</event>
<event>
 7    1  0.3440346E-013  0.7246159E+02  0.7816164E-02  0.1226708E+00
        -11   -1    0    0    0    0  0.00000000000E+00  0.00000000000E+00  0.45593999997E+02  0.45594000000E+02  0.51100000000E-03 0.  1.
         11   -1    0    0    0    0 -0.00000000000E+00 -0.00000000000E+00 -0.45593999997E+02  0.45594000000E+02  0.51100000000E-03 0. -1.
    9900012    2    1    2    0    0  0.62734432873E+01  0.90382457366E+01 -0.15153633749E+02  0.72461585702E+02  0.70000020071E+02 0.  0.
        -12    1    1    2    0    0 -0.62734432873E+01 -0.90382457366E+01  0.15153633749E+02  0.18726414298E+02  0.00000000000E+00 0.  1.
         11    1    3    3    0    0 -0.71555206281E+01 -0.68390368251E+01 -0.13671936244E+02  0.16878854851E+02  0.51100000000E-03 0. -1.
        -11    1    3    3    0    0 -0.78440823427E+01 -0.50583661454E+00  0.19811551844E+02  0.21313917641E+02  0.51100000000E-03 0.  1.
         12    1    3    3    0    0  0.21273046258E+02  0.16383119176E+02 -0.21293249349E+02  0.34268813211E+02  0.00000000000E+00 0. -1.
</event>
<event>
 7    1  0.3440346E-013  0.7246163E+02  0.7816164E-02  0.1226708E+00
        -11   -1    0    0    0    0  0.00000000000E+00  0.00000000000E+00  0.45593999997E+02  0.45594000000E+02  0.51100000000E-03 0. -1.
         11   -1    0    0    0    0 -0.00000000000E+00 -0.00000000000E+00 -0.45593999997E+02  0.45594000000E+02  0.51100000000E-03 0.  1.
    9900012    2    1    2    0    0 -0.96565781994E+01  0.10701076610E+02 -0.11954682499E+02  0.72461628841E+02  0.70000076267E+02 0.  0.
        -12    1    1    2    0    0  0.96565781994E+01 -0.10701076610E+02  0.11954682499E+02  0.18726371159E+02  0.00000000000E+00 0.  1.
         11    1    3    3    0    0 -0.19011413812E+02  0.24697596535E+02 -0.20268833145E+02  0.37178363695E+02  0.51100000000E-03 0. -1.
        -11    1    3    3    0    0 -0.45206840849E+01 -0.14680621300E+02 -0.48864591225E+01  0.16119389237E+02  0.51100000000E-03 0.  1.
         12    1    3    3    0    0  0.13875519698E+02  0.68410137579E+00  0.13200609768E+02  0.19163875908E+02  0.00000000000E+00 0. -1.
</event>
<event>
 7    1  0.3440346E-013  0.7246154E+02  0.7816164E-02  0.1226708E+00
        -11   -1    0    0    0    0  0.00000000000E+00  0.00000000000E+00  0.45593999997E+02  0.45594000000E+02  0.51100000000E-03 0. -1.
         11   -1    0    0    0    0 -0.00000000000E+00 -0.00000000000E+00 -0.45593999997E+02  0.45594000000E+02  0.51100000000E-03 0.  1.
    9900012    2    1    2    0    0  0.11718028936E+02 -0.14493970536E+02  0.18146290485E+01  0.72461541108E+02  0.69999961979E+02 0.  0.
        -12    1    1    2    0    0 -0.11718028936E+02  0.14493970536E+02 -0.18146290485E+01  0.18726458892E+02  0.00000000000E+00 0.  1.
         11    1    3    3    0    0 -0.95261747708E+01 -0.41837343372E+01 -0.38500470897E+01  0.11093894790E+02  0.51100000000E-03 0. -1.
        -11    1    3    3    0    0  0.11971003911E+02 -0.14545245865E+02 -0.23705193603E+02  0.30278793171E+02  0.51100000000E-03 0.  1.
         12    1    3    3    0    0  0.92731997959E+01  0.42350096656E+01  0.29369869741E+02  0.31088853146E+02  0.00000000000E+00 0. -1.
</event>
<event>
 7    1  0.3440346E-013  0.7246158E+02  0.7816164E-02  0.1226708E+00
        -11   -1    0    0    0    0  0.00000000000E+00  0.00000000000E+00  0.45593999997E+02  0.45594000000E+02  0.51100000000E-03 0.  1.
         11   -1    0    0    0    0 -0.00000000000E+00 -0.00000000000E+00 -0.45593999997E+02  0.45594000000E+02  0.51100000000E-03 0. -1.
    9900012    2    1    2    0    0 -0.13826600164E+01 -0.18251600532E+02 -0.39555330258E+01  0.72461577164E+02  0.70000008949E+02 0.  0.
        -12    1    1    2    0    0  0.13826600164E+01  0.18251600532E+02  0.39555330258E+01  0.18726422836E+02  0.00000000000E+00 0.  1.
         11    1    3    3    0    0  0.18794929116E+01  0.10285723914E+02 -0.25168507488E+02  0.27254034188E+02  0.51100000000E-03 0. -1.
        -11    1    3    3    0    0  0.11910965866E+02 -0.16886130130E+02  0.12811835884E+02  0.24313692389E+02  0.51100000000E-03 0.  1.
        -12    1    3    3    0    0 -0.15173118794E+02 -0.11651194317E+02  0.84011385785E+01  0.20893850587E+02  0.00000000000E+00 0.  1.
</event>
<event>
 7    1  0.3440346E-013  0.7246157E+02  0.7816164E-02  0.1226708E+00
        -11   -1    0    0    0    0  0.00000000000E+00  0.00000000000E+00  0.45593999997E+02  0.45594000000E+02  0.51100000000E-03 0.  1.
         11   -1    0    0    0    0 -0.00000000000E+00 -0.00000000000E+00 -0.45593999997E+02  0.45594000000E+02  0.51100000000E-03 0. -1.
    9900012    2    1    2    0    0  0.12819985581E+02 -0.13559471034E+02  0.15709588554E+01  0.72461569567E+02  0.69999999053E+02 0.  0.
        -12    1    1    2    0    0 -0.12819985581E+02  0.13559471034E+02 -0.15709588554E+01  0.18726430433E+02  0.00000000000E+00 0.  1.
         11    1    3    3    0    0  0.81419879605E+01  0.33971985662E+01  0.16186146090E+02  0.18434322650E+02  0.51100000000E-03 0. -1.
        -11    1    3    3    0    0  0.17685978316E+02  0.10479819582E+02 -0.55311712027E+00  0.20565174113E+02  0.51100000000E-03 0.  1.
         12    1    3    3    0    0 -0.13007980696E+02 -0.27436489183E+02 -0.14062070114E+02  0.33462072804E+02  0.00000000000E+00 0. -1.
</event>
<event>
 7    1  0.3440346E-013  0.7246159E+02  0.7816164E-02  0.1226708E+00
        -11   -1    0    0    0    0  0.00000000000E+00  0.00000000000E+00  0.45593999997E+02  0.45594000000E+02  0.51100000000E-03 0.  1.
         11   -1    0    0    0    0 -0.00000000000E+00 -0.00000000000E+00 -0.45593999997E+02  0.45594000000E+02  0.51100000000E-03 0. -1.
    9900012    2    1    2    0    0 -0.16853491256E+02  0.42893259891E+01 -0.69454913328E+01  0.72461592581E+02  0.70000029032E+02 0.  0.
        -12    1    1    2    0    0  0.16853491256E+02 -0.42893259891E+01  0.69454913328E+01  0.18726407419E+02  0.00000000000E+00 0.  1.
         11    1    3    3    0    0 -0.37555354804E+02 -0.74366409703E+01 -0.31506002169E+01  0.38413989448E+02  0.51100000000E-03 0. -1.
        -11    1    3    3    0    0 -0.53672365265E+01  0.31374137132E+01  0.61836926117E+00  0.62476374369E+01  0.51100000000E-03 0.  1.
        -12    1    3    3    0    0  0.26069100074E+02  0.85885532462E+01 -0.44132603770E+01  0.27799965696E+02  0.00000000000E+00 0.  1.
</event>
<event>
 7    1  0.3440346E-013  0.7246156E+02  0.7816164E-02  0.1226708E+00
        -11   -1    0    0    0    0  0.00000000000E+00  0.00000000000E+00  0.45593999997E+02  0.45594000000E+02  0.51100000000E-03 0.  1.
         11   -1    0    0    0    0 -0.00000000000E+00 -0.00000000000E+00 -0.45593999997E+02  0.45594000000E+02  0.51100000000E-03 0. -1.
    9900012    2    1    2    0    0 -0.87536962189E+01 -0.45645295826E+01 -0.15912804468E+02  0.72461562169E+02  0.69999989415E+02 0.  0.
        -12    1    1    2    0    0  0.87536962189E+01  0.45645295826E+01  0.15912804468E+02  0.18726437831E+02  0.00000000000E+00 0.  1.
         11    1    3    3    0    0 -0.23135859445E+02  0.14057608996E+02 -0.84550522221E+01  0.28361457495E+02  0.51100000000E-03 0. -1.
        -11    1    3    3    0    0 -0.91479827390E+01 -0.43253476633E+00 -0.10813267280E+02  0.14170371345E+02  0.51100000000E-03 0.  1.
        -12    1    3    3    0    0  0.23530145965E+02 -0.18189603812E+02  0.33555150339E+01  0.29929733328E+02  0.00000000000E+00 0.  1.
</event>
<event>
 7    1  0.3440346E-013  0.7246156E+02  0.7816164E-02  0.1226708E+00
        -11   -1    0    0    0    0  0.00000000000E+00  0.00000000000E+00  0.45593999997E+02  0.45594000000E+02  0.51100000000E-03 0.  1.
         11   -1    0    0    0    0 -0.00000000000E+00 -0.00000000000E+00 -0.45593999997E+02  0.45594000000E+02  0.51100000000E-03 0. -1.
    9900012    2    1    2    0    0 -0.10775659538E+02  0.12892346926E+02 -0.82675246199E+01  0.72461563845E+02  0.69999991599E+02 0.  0.
        -12    1    1    2    0    0  0.10775659538E+02 -0.12892346926E+02  0.82675246199E+01  0.18726436155E+02  0.00000000000E+00 0.  1.
         11    1    3    3    0    0  0.10993376545E-01 -0.18555427433E+02 -0.85536346296E+01  0.20432050159E+02  0.51100000000E-03 0. -1.
        -11    1    3    3    0    0  0.90051904030E+01  0.11190252325E+02 -0.14217896463E+02  0.20210486916E+02  0.51100000000E-03 0.  1.
        -12    1    3    3    0    0 -0.19791843317E+02  0.20257522033E+02  0.14504006473E+02  0.31819026770E+02  0.00000000000E+00 0.  1.
</event>
<event>
 7    1  0.3440346E-013  0.7246158E+02  0.7816164E-02  0.1226708E+00
        -11   -1    0    0    0    0  0.00000000000E+00  0.00000000000E+00  0.45593999997E+02  0.45594000000E+02  0.51100000000E-03 0. -1.
         11   -1    0    0    0    0 -0.00000000000E+00 -0.00000000000E+00 -0.45593999997E+02  0.45594000000E+02  0.51100000000E-03 0.  1.
    9900012    2    1    2    0    0  0.71876248337E+01  0.89724153022E+01 -0.14782175639E+02  0.72461577391E+02  0.70000009245E+02 0.  0.
        -12    1    1    2    0    0 -0.71876248337E+01 -0.89724153022E+01  0.14782175639E+02  0.18726422609E+02  0.00000000000E+00 0.  1.
         11    1    3    3    0    0  0.12334607007E+02  0.11934608249E+02 -0.43355305308E+01  0.17702379200E+02  0.51100000000E-03 0. -1.
        -11    1    3    3    0    0  0.58656263731E+01  0.15694052293E+02 -0.23951998062E+02  0.29230242242E+02  0.51100000000E-03 0.  1.
         12    1    3    3    0    0 -0.11012608547E+02 -0.18656245239E+02  0.13505352954E+02  0.25528955949E+02  0.00000000000E+00 0. -1.
</event>
<event>
 7    1  0.3440346E-013  0.7246162E+02  0.7816164E-02  0.1226708E+00
        -11   -1    0    0    0    0  0.00000000000E+00  0.00000000000E+00  0.45593999997E+02  0.45594000000E+02  0.51100000000E-03 0.  1.
         11   -1    0    0    0    0 -0.00000000000E+00 -0.00000000000E+00 -0.45593999997E+02  0.45594000000E+02  0.51100000000E-03 0. -1.
    9900012    2    1    2    0    0  0.15912779391E+02 -0.61277832684E+01  0.77402190872E+01  0.72461621086E+02  0.70000066165E+02 0.  0.
        -12    1    1    2    0    0 -0.15912779391E+02  0.61277832684E+01 -0.77402190872E+01  0.18726378914E+02  0.00000000000E+00 0.  1.
         11    1    3    3    0    0  0.58293691626E+01 -0.10155532461E+02  0.91932218950E+01  0.14887300409E+02  0.51100000000E-03 0. -1.
        -11    1    3    3    0    0  0.15928955439E+01 -0.24879743239E+02 -0.90161640873E+01  0.26510944060E+02  0.51100000000E-03 0.  1.
         12    1    3    3    0    0  0.84905146846E+01  0.28907492431E+02  0.75631612794E+01  0.31063376616E+02  0.00000000000E+00 0. -1.
</event>
<event>
 7    1  0.3440346E-013  0.7246154E+02  0.7816164E-02  0.1226708E+00
        -11   -1    0    0    0    0  0.00000000000E+00  0.00000000000E+00  0.45593999997E+02  0.45594000000E+02  0.51100000000E-03 0.  1.
         11   -1    0    0    0    0 -0.00000000000E+00 -0.00000000000E+00 -0.45593999997E+02  0.45594000000E+02  0.51100000000E-03 0. -1.
    9900012    2    1    2    0    0 -0.68174574418E+01  0.16016020280E+02 -0.69057680102E+01  0.72461541088E+02  0.69999961953E+02 0.  0.
        -12    1    1    2    0    0  0.68174574418E+01 -0.16016020280E+02  0.69057680102E+01  0.18726458912E+02  0.00000000000E+00 0.  1.
         11    1    3    3    0    0  0.18650903476E+02  0.59553525599E+01 -0.13811347073E+02  0.23959877563E+02  0.51100000000E-03 0. -1.
        -11    1    3    3    0    0 -0.12329844750E+02 -0.14926019399E+02 -0.31454580493E+00  0.19362594505E+02  0.51100000000E-03 0.  1.
        -12    1    3    3    0    0 -0.13138516168E+02  0.24986687119E+02  0.72201248678E+01  0.29139069020E+02  0.00000000000E+00 0.  1.
</event>
<event>
 7    1  0.3440346E-013  0.7246157E+02  0.7816164E-02  0.1226708E+00
        -11   -1    0    0    0    0  0.00000000000E+00  0.00000000000E+00  0.45593999997E+02  0.45594000000E+02  0.51100000000E-03 0. -1.
         11   -1    0    0    0    0 -0.00000000000E+00 -0.00000000000E+00 -0.45593999997E+02  0.45594000000E+02  0.51100000000E-03 0.  1.
    9900012    2    1    2    0    0 -0.90569393932E+01 -0.85532146767E+01  0.13981897730E+02  0.72461572241E+02  0.70000002536E+02 0.  0.
        -12    1    1    2    0    0  0.90569393932E+01  0.85532146767E+01 -0.13981897730E+02  0.18726427759E+02  0.00000000000E+00 0.  1.
         11    1    3    3    0    0 -0.27562950814E+02  0.47666662767E+01  0.23695690674E+02  0.36659557031E+02  0.51100000000E-03 0. -1.
        -11    1    3    3    0    0 -0.23748860295E+01  0.56758248302E+01 -0.82870182179E+00  0.62082057091E+01  0.51100000000E-03 0.  1.
        -12    1    3    3    0    0  0.20880897450E+02 -0.18995705784E+02 -0.88850911221E+01  0.29593809501E+02  0.00000000000E+00 0.  1.
</event>
<event>
 7    1  0.3440346E-013  0.7246160E+02  0.7816164E-02  0.1226708E+00
        -11   -1    0    0    0    0  0.00000000000E+00  0.00000000000E+00  0.45593999997E+02  0.45594000000E+02  0.51100000000E-03 0. -1.
         11   -1    0    0    0    0 -0.00000000000E+00 -0.00000000000E+00 -0.45593999997E+02  0.45594000000E+02  0.51100000000E-03 0.  1.
    9900012    2    1    2    0    0 -0.10309662820E+02  0.92356634182E+01  0.12613145288E+02  0.72461599911E+02  0.70000038581E+02 0.  0.
        -12    1    1    2    0    0  0.10309662820E+02 -0.92356634182E+01 -0.12613145288E+02  0.18726400089E+02  0.00000000000E+00 0.  1.
         11    1    3    3    0    0  0.16312947461E+02 -0.65338724148E+01  0.13381811115E+02  0.22087929115E+02  0.51100000000E-03 0. -1.
        -11    1    3    3    0    0 -0.15137038814E+02  0.77229693002E+01  0.19411723207E+02  0.25799015427E+02  0.51100000000E-03 0.  1.
        -12    1    3    3    0    0 -0.11485571468E+02  0.80465665327E+01 -0.20180389034E+02  0.24574655369E+02  0.00000000000E+00 0.  1.
</event>
<event>
 7    1  0.3440346E-013  0.7246158E+02  0.7816164E-02  0.1226708E+00
        -11   -1    0    0    0    0  0.00000000000E+00  0.00000000000E+00  0.45593999997E+02  0.45594000000E+02  0.51100000000E-03 0. -1.
         11   -1    0    0    0    0 -0.00000000000E+00 -0.00000000000E+00 -0.45593999997E+02  0.45594000000E+02  0.51100000000E-03 0.  1.
    9900012    2    1    2    0    0  0.14967007740E+02 -0.76340491641E+01  0.82697519529E+01  0.72461579501E+02  0.70000011994E+02 0.  0.
        -12    1    1    2    0    0 -0.14967007740E+02  0.76340491641E+01 -0.82697519529E+01  0.18726420499E+02  0.00000000000E+00 0.  1.
         11    1    3    3    0    0 -0.10228894294E+02  0.85933523034E+01  0.39852801345E+01  0.13941249596E+02  0.51100000000E-03 0. -1.
        -11    1    3    3    0    0  0.21282781052E+02  0.13072445965E+02 -0.84030350590E+01  0.26352544683E+02  0.51100000000E-03 0.  1.
         12    1    3    3    0    0  0.39131209812E+01 -0.29299847432E+02  0.12687506877E+02  0.32167785222E+02  0.00000000000E+00 0. -1.
</event>
<event>
 7    1  0.3440346E-013  0.7246158E+02  0.7816164E-02  0.1226708E+00
        -11   -1    0    0    0    0  0.00000000000E+00  0.00000000000E+00  0.45593999997E+02  0.45594000000E+02  0.51100000000E-03 0. -1.
         11   -1    0    0    0    0 -0.00000000000E+00 -0.00000000000E+00 -0.45593999997E+02  0.45594000000E+02  0.51100000000E-03 0.  1.
    9900012    2    1    2    0    0 -0.86201561543E+01  0.28060901751E+01  0.16385901219E+02  0.72461575009E+02  0.70000006141E+02 0.  0.
        -12    1    1    2    0    0  0.86201561543E+01 -0.28060901751E+01 -0.16385901219E+02  0.18726424991E+02  0.00000000000E+00 0.  1.
         11    1    3    3    0    0  0.63126371598E+01 -0.18569966089E+01  0.13666672118E+02  0.15168248131E+02  0.51100000000E-03 0. -1.
        -11    1    3    3    0    0  0.12878121189E+02  0.21043274049E+02  0.39917261869E+01  0.24991984040E+02  0.51100000000E-03 0.  1.
         12    1    3    3    0    0 -0.27810914503E+02 -0.16380187265E+02 -0.12724970857E+01  0.32301342838E+02  0.00000000000E+00 0. -1.
</event>
<event>
 7    1  0.3440346E-013  0.7246158E+02  0.7816164E-02  0.1226708E+00
        -11   -1    0    0    0    0  0.00000000000E+00  0.00000000000E+00  0.45593999997E+02  0.45594000000E+02  0.51100000000E-03 0.  1.
         11   -1    0    0    0    0 -0.00000000000E+00 -0.00000000000E+00 -0.45593999997E+02  0.45594000000E+02  0.51100000000E-03 0. -1.
    9900012    2    1    2    0    0 -0.82320360026E+00  0.14774070591E+02  0.11477281120E+02  0.72461579950E+02  0.70000012578E+02 0.  0.
        -12    1    1    2    0    0  0.82320360026E+00 -0.14774070591E+02 -0.11477281120E+02  0.18726420050E+02  0.00000000000E+00 0.  1.
         11    1    3    3    0    0 -0.47896054418E+00  0.26918811826E+02  0.33728474520E+01  0.27133520478E+02  0.51100000000E-03 0. -1.
        -11    1    3    3    0    0 -0.90643618803E+01 -0.40125954948E+01  0.23704102783E+02  0.25693346764E+02  0.51100000000E-03 0.  1.
         12    1    3    3    0    0  0.87201188242E+01 -0.81321457404E+01 -0.15599669115E+02  0.19634712708E+02  0.00000000000E+00 0. -1.
</event>
<event>
 7    1  0.3440346E-013  0.7246151E+02  0.7816164E-02  0.1226708E+00
        -11   -1    0    0    0    0  0.00000000000E+00  0.00000000000E+00  0.45593999997E+02  0.45594000000E+02  0.51100000000E-03 0.  1.
         11   -1    0    0    0    0 -0.00000000000E+00 -0.00000000000E+00 -0.45593999997E+02  0.45594000000E+02  0.51100000000E-03 0. -1.
    9900012    2    1    2    0    0 -0.10520675869E+02 -0.12947302642E+02  0.85067068487E+01  0.72461512667E+02  0.69999924929E+02 0.  0.
        -12    1    1    2    0    0  0.10520675869E+02  0.12947302642E+02 -0.85067068487E+01  0.18726487333E+02  0.00000000000E+00 0.  1.
         11    1    3    3    0    0 -0.26444899374E+02 -0.36404385788E+01  0.14665487464E+02  0.30457544529E+02  0.51100000000E-03 0. -1.
        -11    1    3    3    0    0 -0.83010362732E+01  0.78329631444E+01  0.10620419988E+01  0.11462567265E+02  0.51100000000E-03 0.  1.
        -12    1    3    3    0    0  0.24225259778E+02 -0.17139827208E+02 -0.72208226141E+01  0.30541400873E+02  0.00000000000E+00 0.  1.
</event>
<event>
 7    1  0.3440346E-013  0.7246152E+02  0.7816164E-02  0.1226708E+00
        -11   -1    0    0    0    0  0.00000000000E+00  0.00000000000E+00  0.45593999997E+02  0.45594000000E+02  0.51100000000E-03 0.  1.
         11   -1    0    0    0    0 -0.00000000000E+00 -0.00000000000E+00 -0.45593999997E+02  0.45594000000E+02  0.51100000000E-03 0. -1.
    9900012    2    1    2    0    0  0.22429654078E+01 -0.10193064309E+02 -0.15548362940E+02  0.72461520246E+02  0.69999934803E+02 0.  0.
        -12    1    1    2    0    0 -0.22429654078E+01  0.10193064309E+02  0.15548362940E+02  0.18726479754E+02  0.00000000000E+00 0.  1.
         11    1    3    3    0    0  0.62227115779E+01 -0.94765623963E+00  0.24376751548E+01  0.67499964556E+01  0.51100000000E-03 0. -1.
        -11    1    3    3    0    0  0.14136640620E+02  0.19408490511E+02  0.52932226337E+01  0.24587645639E+02  0.51100000000E-03 0.  1.
         12    1    3    3    0    0 -0.18116386790E+02 -0.28653898581E+02 -0.23279260729E+02  0.41123878152E+02  0.00000000000E+00 0. -1.
</event>
<event>
 7    1  0.3440346E-013  0.7246159E+02  0.7816164E-02  0.1226708E+00
        -11   -1    0    0    0    0  0.00000000000E+00  0.00000000000E+00  0.45593999997E+02  0.45594000000E+02  0.51100000000E-03 0. -1.
         11   -1    0    0    0    0 -0.00000000000E+00 -0.00000000000E+00 -0.45593999997E+02  0.45594000000E+02  0.51100000000E-03 0.  1.
    9900012    2    1    2    0    0  0.41793224348E+01  0.43072621811E+01  0.17738637438E+02  0.72461588126E+02  0.70000023229E+02 0.  0.
        -12    1    1    2    0    0 -0.41793224348E+01 -0.43072621811E+01 -0.17738637438E+02  0.18726411874E+02  0.00000000000E+00 0.  1.
         11    1    3    3    0    0  0.12874007024E+01  0.47598525747E+01 -0.27835406594E+01  0.56623048280E+01  0.51100000000E-03 0. -1.
        -11    1    3    3    0    0  0.10694442279E+02  0.20102213597E+02 -0.13366637622E+02  0.26403353740E+02  0.51100000000E-03 0.  1.
         12    1    3    3    0    0 -0.78025205466E+01 -0.20554803990E+02  0.33888815720E+02  0.40395929558E+02  0.00000000000E+00 0. -1.
</event>
<event>
 7    1  0.3440346E-013  0.7246157E+02  0.7816164E-02  0.1226708E+00
        -11   -1    0    0    0    0  0.00000000000E+00  0.00000000000E+00  0.45593999997E+02  0.45594000000E+02  0.51100000000E-03 0.  1.
         11   -1    0    0    0    0 -0.00000000000E+00 -0.00000000000E+00 -0.45593999997E+02  0.45594000000E+02  0.51100000000E-03 0. -1.
    9900012    2    1    2    0    0 -0.27406525478E+01  0.22891986782E+01 -0.18382804542E+02  0.72461571889E+02  0.70000002077E+02 0.  0.
        -12    1    1    2    0    0  0.27406525478E+01 -0.22891986782E+01  0.18382804542E+02  0.18726428111E+02  0.00000000000E+00 0.  1.
         11    1    3    3    0    0 -0.40293653238E+01 -0.22683172945E+02 -0.14047891278E+02  0.26983427680E+02  0.51100000000E-03 0. -1.
        -11    1    3    3    0    0 -0.12792085032E+02  0.75750753422E+01 -0.14615991746E+02  0.20848175481E+02  0.51100000000E-03 0.  1.
         12    1    3    3    0    0  0.14080797808E+02  0.17397296281E+02  0.10281078482E+02  0.24629968728E+02  0.00000000000E+00 0. -1.
</event>
<event>
 7    1  0.3440346E-013  0.7246159E+02  0.7816164E-02  0.1226708E+00
        -11   -1    0    0    0    0  0.00000000000E+00  0.00000000000E+00  0.45593999997E+02  0.45594000000E+02  0.51100000000E-03 0.  1.
         11   -1    0    0    0    0 -0.00000000000E+00 -0.00000000000E+00 -0.45593999997E+02  0.45594000000E+02  0.51100000000E-03 0. -1.
    9900012    2    1    2    0    0  0.11413126665E+01 -0.18690882420E+02 -0.16327930813E+00  0.72461592433E+02  0.70000028839E+02 0.  0.
        -12    1    1    2    0    0 -0.11413126665E+01  0.18690882420E+02  0.16327930813E+00  0.18726407567E+02  0.00000000000E+00 0.  1.
         11    1    3    3    0    0  0.64434875708E+01 -0.77103485745E+01 -0.24087896700E+02  0.26099708330E+02  0.51100000000E-03 0. -1.
        -11    1    3    3    0    0  0.13395703307E+02  0.57729557784E+01  0.80923092325E+01  0.16681047763E+02  0.51100000000E-03 0.  1.
        -12    1    3    3    0    0 -0.18697878211E+02 -0.16753489624E+02  0.15832308159E+02  0.29680836340E+02  0.00000000000E+00 0.  1.
</event>
<event>
 7    1  0.3440346E-013  0.7246157E+02  0.7816164E-02  0.1226708E+00
        -11   -1    0    0    0    0  0.00000000000E+00  0.00000000000E+00  0.45593999997E+02  0.45594000000E+02  0.51100000000E-03 0.  1.
         11   -1    0    0    0    0 -0.00000000000E+00 -0.00000000000E+00 -0.45593999997E+02  0.45594000000E+02  0.51100000000E-03 0. -1.
    9900012    2    1    2    0    0  0.57968258312E+01  0.10767483642E+02 -0.14182284439E+02  0.72461572535E+02  0.70000002918E+02 0.  0.
        -12    1    1    2    0    0 -0.57968258312E+01 -0.10767483642E+02  0.14182284439E+02  0.18726427465E+02  0.00000000000E+00 0.  1.
         11    1    3    3    0    0 -0.21664529904E+01  0.48059841530E+01  0.34551880521E+01  0.63031204157E+01  0.51100000000E-03 0. -1.
        -11    1    3    3    0    0  0.24682644426E+02  0.22900466672E+02 -0.24206172592E+02  0.41468097394E+02  0.51100000000E-03 0.  1.
         12    1    3    3    0    0 -0.16719365604E+02 -0.16938967183E+02  0.65687001001E+01  0.24690354725E+02  0.00000000000E+00 0. -1.
</event>
<event>
 7    1  0.3440346E-013  0.7246159E+02  0.7816164E-02  0.1226708E+00
        -11   -1    0    0    0    0  0.00000000000E+00  0.00000000000E+00  0.45593999997E+02  0.45594000000E+02  0.51100000000E-03 0. -1.
         11   -1    0    0    0    0 -0.00000000000E+00 -0.00000000000E+00 -0.45593999997E+02  0.45594000000E+02  0.51100000000E-03 0.  1.
    9900012    2    1    2    0    0  0.30496037182E+01 -0.10612998157E+01  0.18445917913E+02  0.72461592769E+02  0.70000029277E+02 0.  0.
        -12    1    1    2    0    0 -0.30496037182E+01  0.10612998157E+01 -0.18445917913E+02  0.18726407231E+02  0.00000000000E+00 0.  1.
         11    1    3    3    0    0 -0.14366443609E+02  0.12954341630E+02  0.33806082567E+02  0.38949465822E+02  0.51100000000E-03 0. -1.
        -11    1    3    3    0    0  0.20677201227E+01  0.21538252971E+01  0.32921645295E+01  0.44444096871E+01  0.51100000000E-03 0.  1.
        -12    1    3    3    0    0  0.15348327204E+02 -0.16169466743E+02 -0.18652329183E+02  0.29067717259E+02  0.00000000000E+00 0.  1.
</event>
<event>
 7    1  0.3440346E-013  0.7246148E+02  0.7816164E-02  0.1226708E+00
        -11   -1    0    0    0    0  0.00000000000E+00  0.00000000000E+00  0.45593999997E+02  0.45594000000E+02  0.51100000000E-03 0.  1.
         11   -1    0    0    0    0 -0.00000000000E+00 -0.00000000000E+00 -0.45593999997E+02  0.45594000000E+02  0.51100000000E-03 0. -1.
    9900012    2    1    2    0    0 -0.13983609911E+02  0.11406998529E+02 -0.50021436700E+01  0.72461483963E+02  0.69999887538E+02 0.  0.
        -12    1    1    2    0    0  0.13983609911E+02 -0.11406998529E+02  0.50021436700E+01  0.18726516037E+02  0.00000000000E+00 0.  1.
         11    1    3    3    0    0  0.30396707705E+01  0.11940057968E+01 -0.24239719212E+02  0.24458725150E+02  0.51100000000E-03 0.  1.
        -11    1    3    3    0    0 -0.14798384368E+02  0.21749565592E+02  0.10216001065E+01  0.26326402154E+02  0.51100000000E-03 0. -1.
         12    1    3    3    0    0 -0.22248963125E+01 -0.11536572859E+02  0.18215975435E+02  0.21676356659E+02  0.00000000000E+00 0. -1.
</event>
<event>
 7    1  0.3440346E-013  0.7246157E+02  0.7816164E-02  0.1226708E+00
        -11   -1    0    0    0    0  0.00000000000E+00  0.00000000000E+00  0.45593999997E+02  0.45594000000E+02  0.51100000000E-03 0. -1.
         11   -1    0    0    0    0 -0.00000000000E+00 -0.00000000000E+00 -0.45593999997E+02  0.45594000000E+02  0.51100000000E-03 0.  1.
    9900012    2    1    2    0    0  0.10343065565E+01  0.18610178249E+02 -0.18085193048E+01  0.72461567703E+02  0.69999996624E+02 0.  0.
        -12    1    1    2    0    0 -0.10343065565E+01 -0.18610178249E+02  0.18085193048E+01  0.18726432297E+02  0.00000000000E+00 0.  1.
         11    1    3    3    0    0 -0.10830986240E+02  0.32658711330E+02  0.15718620573E+02  0.37828252955E+02  0.51100000000E-03 0. -1.
        -11    1    3    3    0    0  0.54214090269E+01 -0.13310830846E+00  0.50037997844E+01  0.73788485688E+01  0.51100000000E-03 0.  1.
        -12    1    3    3    0    0  0.64438837692E+01 -0.13915424773E+02 -0.22530939662E+02  0.27254466179E+02  0.00000000000E+00 0.  1.
</event>
<event>
 7    1  0.3440346E-013  0.7246156E+02  0.7816164E-02  0.1226708E+00
        -11   -1    0    0    0    0  0.00000000000E+00  0.00000000000E+00  0.45593999997E+02  0.45594000000E+02  0.51100000000E-03 0.  1.
         11   -1    0    0    0    0 -0.00000000000E+00 -0.00000000000E+00 -0.45593999997E+02  0.45594000000E+02  0.51100000000E-03 0. -1.
    9900012    2    1    2    0    0 -0.15971696478E+02  0.95502045614E+01 -0.20923980162E+01  0.72461558133E+02  0.69999984157E+02 0.  0.
        -12    1    1    2    0    0  0.15971696478E+02 -0.95502045614E+01  0.20923980162E+01  0.18726441867E+02  0.00000000000E+00 0.  1.
         11    1    3    3    0    0  0.52526891468E+01  0.95153440650E+01 -0.88368731163E+01  0.14007956406E+02  0.51100000000E-03 0. -1.
        -11    1    3    3    0    0 -0.76413422227E+01 -0.23408759866E+02 -0.10027986451E+02  0.26587979651E+02  0.51100000000E-03 0.  1.
         12    1    3    3    0    0 -0.13583043402E+02  0.23443620362E+02  0.16772461551E+02  0.31865622075E+02  0.00000000000E+00 0. -1.
</event>
<event>
 7    1  0.3440346E-013  0.7246158E+02  0.7816164E-02  0.1226708E+00
        -11   -1    0    0    0    0  0.00000000000E+00  0.00000000000E+00  0.45593999997E+02  0.45594000000E+02  0.51100000000E-03 0.  1.
         11   -1    0    0    0    0 -0.00000000000E+00 -0.00000000000E+00 -0.45593999997E+02  0.45594000000E+02  0.51100000000E-03 0. -1.
    9900012    2    1    2    0    0  0.12722686423E+02 -0.12229092306E+02  0.62658968465E+01  0.72461577177E+02  0.70000008966E+02 0.  0.
        -12    1    1    2    0    0 -0.12722686423E+02  0.12229092306E+02 -0.62658968465E+01  0.18726422823E+02  0.00000000000E+00 0.  1.
         11    1    3    3    0    0 -0.95931682242E+01 -0.23086578529E+02 -0.20720442662E+01  0.25086098789E+02  0.51100000000E-03 0. -1.
        -11    1    3    3    0    0  0.23972135420E+02 -0.77379105679E+01 -0.32555618816E+01  0.25399551570E+02  0.51100000000E-03 0.  1.
         12    1    3    3    0    0 -0.16562807722E+01  0.18595396792E+02  0.11593502994E+02  0.21975926818E+02  0.00000000000E+00 0. -1.
</event>
<event>
 7    1  0.3440346E-013  0.7246159E+02  0.7816164E-02  0.1226708E+00
        -11   -1    0    0    0    0  0.00000000000E+00  0.00000000000E+00  0.45593999997E+02  0.45594000000E+02  0.51100000000E-03 0.  1.
         11   -1    0    0    0    0 -0.00000000000E+00 -0.00000000000E+00 -0.45593999997E+02  0.45594000000E+02  0.51100000000E-03 0. -1.
    9900012    2    1    2    0    0 -0.70683091337E+01 -0.10401467919E+02 -0.13875402784E+02  0.72461592675E+02  0.70000029155E+02 0.  0.
        -12    1    1    2    0    0  0.70683091337E+01  0.10401467919E+02  0.13875402784E+02  0.18726407325E+02  0.00000000000E+00 0.  1.
         11    1    3    3    0    0 -0.14371191763E+02 -0.23925198203E+02 -0.56300395413E+01  0.28471803722E+02  0.51100000000E-03 0. -1.
        -11    1    3    3    0    0 -0.43095647650E+00 -0.26333828901E+01 -0.21526095584E+02  0.21690855684E+02  0.51100000000E-03 0.  1.
        -12    1    3    3    0    0  0.77338391056E+01  0.16157113173E+02  0.13280732342E+02  0.22298933269E+02  0.00000000000E+00 0.  1.
</event>
<event>
 7    1  0.3440346E-013  0.7246149E+02  0.7816164E-02  0.1226708E+00
        -11   -1    0    0    0    0  0.00000000000E+00  0.00000000000E+00  0.45593999997E+02  0.45594000000E+02  0.51100000000E-03 0. -1.
         11   -1    0    0    0    0 -0.00000000000E+00 -0.00000000000E+00 -0.45593999997E+02  0.45594000000E+02  0.51100000000E-03 0.  1.
    9900012    2    1    2    0    0  0.15051652563E+02  0.79284222489E+01 -0.78275175473E+01  0.72461490576E+02  0.69999896152E+02 0.  0.
        -12    1    1    2    0    0 -0.15051652563E+02 -0.79284222489E+01  0.78275175473E+01  0.18726509424E+02  0.00000000000E+00 0.  1.
         11    1    3    3    0    0 -0.15612846374E+01  0.93718197456E+01 -0.13008121955E+02  0.16108378321E+02  0.51100000000E-03 0. -1.
        -11    1    3    3    0    0  0.23255525964E+02  0.14841254925E+02 -0.13484965836E+02  0.30707110569E+02  0.51100000000E-03 0.  1.
         12    1    3    3    0    0 -0.66425887636E+01 -0.16284652422E+02  0.18665570243E+02  0.25646001686E+02  0.00000000000E+00 0. -1.
</event>
<event>
 7    1  0.3440346E-013  0.7246163E+02  0.7816164E-02  0.1226708E+00
        -11   -1    0    0    0    0  0.00000000000E+00  0.00000000000E+00  0.45593999997E+02  0.45594000000E+02  0.51100000000E-03 0.  1.
         11   -1    0    0    0    0 -0.00000000000E+00 -0.00000000000E+00 -0.45593999997E+02  0.45594000000E+02  0.51100000000E-03 0. -1.
    9900012    2    1    2    0    0  0.10121734571E+02 -0.45079543968E+01 -0.15096552183E+02  0.72461626849E+02  0.70000073673E+02 0.  0.
        -12    1    1    2    0    0 -0.10121734571E+02  0.45079543968E+01  0.15096552183E+02  0.18726373151E+02  0.00000000000E+00 0.  1.
         11    1    3    3    0    0 -0.84728419157E+01 -0.62868401650E+01 -0.21442146182E+02  0.23897260147E+02  0.51100000000E-03 0. -1.
        -11    1    3    3    0    0 -0.12396112984E+02 -0.85422419935E+01 -0.98912927377E+00  0.15086811869E+02  0.51100000000E-03 0.  1.
        -12    1    3    3    0    0  0.30990689471E+02  0.10321127762E+02  0.73347232731E+01  0.33477554834E+02  0.00000000000E+00 0.  1.
</event>
<event>
 7    1  0.3440346E-013  0.7246123E+02  0.7816164E-02  0.1226709E+00
        -11   -1    0    0    0    0  0.00000000000E+00  0.00000000000E+00  0.45593999997E+02  0.45594000000E+02  0.51100000000E-03 0. -1.
         11   -1    0    0    0    0 -0.00000000000E+00 -0.00000000000E+00 -0.45593999997E+02  0.45594000000E+02  0.51100000000E-03 0.  1.
    9900012    2    1    2    0    0 -0.54249715282E+01 -0.63750663788E+01  0.16751715571E+02  0.72461234075E+02  0.69999562011E+02 0.  0.
        -12    1    1    2    0    0  0.54249715282E+01  0.63750663788E+01 -0.16751715571E+02  0.18726765925E+02  0.00000000000E+00 0.  1.
         11    1    3    3    0    0  0.20899710746E+02  0.10549437590E+02  0.27081803647E+02  0.35798221070E+02  0.51100000000E-03 0. -1.
        -11    1    3    3    0    0  0.57789534650E+00 -0.28625568202E+01  0.23664606852E+01  0.37587672202E+01  0.51100000000E-03 0.  1.
        -12    1    3    3    0    0 -0.26902577621E+02 -0.14061947149E+02 -0.12696548760E+02  0.32904245785E+02  0.00000000000E+00 0.  1.
</event>
<event>
 7    1  0.3440346E-013  0.7246157E+02  0.7816164E-02  0.1226708E+00
        -11   -1    0    0    0    0  0.00000000000E+00  0.00000000000E+00  0.45593999997E+02  0.45594000000E+02  0.51100000000E-03 0.  1.
         11   -1    0    0    0    0 -0.00000000000E+00 -0.00000000000E+00 -0.45593999997E+02  0.45594000000E+02  0.51100000000E-03 0. -1.
    9900012    2    1    2    0    0  0.16599858188E+02  0.86110497122E+01 -0.98678295078E+00  0.72461569224E+02  0.69999998606E+02 0.  0.
        -12    1    1    2    0    0 -0.16599858188E+02 -0.86110497122E+01  0.98678295078E+00  0.18726430776E+02  0.00000000000E+00 0.  1.
         11    1    3    3    0    0  0.13759064337E+02  0.78706266962E+01  0.48450117487E+01  0.16575064257E+02  0.51100000000E-03 0.  1.
        -11    1    3    3    0    0  0.34138424574E+01  0.26299481896E+02  0.67892516891E+01  0.27375372273E+02  0.51100000000E-03 0. -1.
         12    1    3    3    0    0 -0.57304860624E+00 -0.25559058880E+02 -0.12621046389E+02  0.28511132694E+02  0.00000000000E+00 0. -1.
</event>
<event>
 7    1  0.3440346E-013  0.7246160E+02  0.7816164E-02  0.1226708E+00
        -11   -1    0    0    0    0  0.00000000000E+00  0.00000000000E+00  0.45593999997E+02  0.45594000000E+02  0.51100000000E-03 0. -1.
         11   -1    0    0    0    0 -0.00000000000E+00 -0.00000000000E+00 -0.45593999997E+02  0.45594000000E+02  0.51100000000E-03 0.  1.
    9900012    2    1    2    0    0  0.66953507390E+01  0.85629622185E+01 -0.15248809814E+02  0.72461595000E+02  0.70000032184E+02 0.  0.
        -12    1    1    2    0    0 -0.66953507390E+01 -0.85629622185E+01  0.15248809814E+02  0.18726405000E+02  0.00000000000E+00 0.  1.
         11    1    3    3    0    0 -0.37177295743E+01 -0.12648074849E+02 -0.14594160074E+02  0.19666845682E+02  0.51100000000E-03 0. -1.
        -11    1    3    3    0    0  0.86872923412E+01  0.34230276394E+02 -0.99671312141E+01  0.36695021122E+02  0.51100000000E-03 0.  1.
         12    1    3    3    0    0  0.17257879722E+01 -0.13019239327E+02  0.93124814741E+01  0.16099728196E+02  0.00000000000E+00 0. -1.
</event>
<event>
 7    1  0.3440346E-013  0.7246156E+02  0.7816164E-02  0.1226708E+00
        -11   -1    0    0    0    0  0.00000000000E+00  0.00000000000E+00  0.45593999997E+02  0.45594000000E+02  0.51100000000E-03 0. -1.
         11   -1    0    0    0    0 -0.00000000000E+00 -0.00000000000E+00 -0.45593999997E+02  0.45594000000E+02  0.51100000000E-03 0.  1.
    9900012    2    1    2    0    0  0.18314620982E+02 -0.16571795880E+01  0.35366573571E+01  0.72461560639E+02  0.69999987422E+02 0.  0.
        -12    1    1    2    0    0 -0.18314620982E+02  0.16571795880E+01 -0.35366573571E+01  0.18726439361E+02  0.00000000000E+00 0.  1.
         11    1    3    3    0    0 -0.14036688383E+02  0.12342017726E+02 -0.14605064887E+02  0.23720496262E+02  0.51100000000E-03 0. -1.
        -11    1    3    3    0    0 -0.14191456676E+01  0.58783317020E+01  0.21661176022E+01  0.64234588620E+01  0.51100000000E-03 0.  1.
        -12    1    3    3    0    0  0.33770455032E+02 -0.19877529016E+02  0.15975604642E+02  0.42317605515E+02  0.00000000000E+00 0.  1.
</event>
<event>
 7    1  0.3440346E-013  0.7246137E+02  0.7816164E-02  0.1226709E+00
        -11   -1    0    0    0    0  0.00000000000E+00  0.00000000000E+00  0.45593999997E+02  0.45594000000E+02  0.51100000000E-03 0.  1.
         11   -1    0    0    0    0 -0.00000000000E+00 -0.00000000000E+00 -0.45593999997E+02  0.45594000000E+02  0.51100000000E-03 0. -1.
    9900012    2    1    2    0    0 -0.92050209456E+01 -0.12283042034E+02 -0.10727585517E+02  0.72461371280E+02  0.69999740746E+02 0.  0.
        -12    1    1    2    0    0  0.92050209456E+01  0.12283042034E+02  0.10727585517E+02  0.18726628720E+02  0.00000000000E+00 0.  1.
         11    1    3    3    0    0  0.43790963589E+01  0.80319745849E+01 -0.37039857149E+01  0.98695800869E+01  0.51100000000E-03 0. -1.
        -11    1    3    3    0    0  0.16776335527E+02  0.38399941692E+01 -0.15177960348E+02  0.22946927235E+02  0.51100000000E-03 0.  1.
         12    1    3    3    0    0 -0.30360452832E+02 -0.24155010788E+02  0.81543605459E+01  0.39644863958E+02  0.00000000000E+00 0. -1.
</event>
<event>
 7    1  0.3440346E-013  0.7246159E+02  0.7816164E-02  0.1226708E+00
        -11   -1    0    0    0    0  0.00000000000E+00  0.00000000000E+00  0.45593999997E+02  0.45594000000E+02  0.51100000000E-03 0.  1.
         11   -1    0    0    0    0 -0.00000000000E+00 -0.00000000000E+00 -0.45593999997E+02  0.45594000000E+02  0.51100000000E-03 0. -1.
    9900012    2    1    2    0    0  0.81295040001E+01 -0.11679276698E+02 -0.12173092119E+02  0.72461587871E+02  0.70000022897E+02 0.  0.
        -12    1    1    2    0    0 -0.81295040001E+01  0.11679276698E+02  0.12173092119E+02  0.18726412129E+02  0.00000000000E+00 0.  1.
         11    1    3    3    0    0  0.25129625938E+01  0.37595715729E+01  0.77302369397E+01  0.89557759471E+01  0.51100000000E-03 0. -1.
        -11    1    3    3    0    0 -0.80942068890E+01 -0.21864711459E+02  0.13421667886E+02  0.26902099573E+02  0.51100000000E-03 0.  1.
         12    1    3    3    0    0  0.13710748295E+02  0.64258631874E+01 -0.33324996945E+02  0.36603712351E+02  0.00000000000E+00 0. -1.
</event>
<event>
 7    1  0.3440346E-013  0.7246151E+02  0.7816164E-02  0.1226708E+00
        -11   -1    0    0    0    0  0.00000000000E+00  0.00000000000E+00  0.45593999997E+02  0.45594000000E+02  0.51100000000E-03 0.  1.
         11   -1    0    0    0    0 -0.00000000000E+00 -0.00000000000E+00 -0.45593999997E+02  0.45594000000E+02  0.51100000000E-03 0. -1.
    9900012    2    1    2    0    0 -0.14916781334E+02  0.86839174494E+01  0.72636635235E+01  0.72461505523E+02  0.69999915623E+02 0.  0.
        -12    1    1    2    0    0  0.14916781334E+02 -0.86839174494E+01 -0.72636635235E+01  0.18726494477E+02  0.00000000000E+00 0.  1.
         11    1    3    3    0    0  0.82590916921E+00  0.44575901411E+00 -0.14001464850E+02  0.14032884424E+02  0.51100000000E-03 0. -1.
        -11    1    3    3    0    0 -0.23289140620E+02  0.75457297597E+01 -0.98616034021E+01  0.26392675695E+02  0.51100000000E-03 0.  1.
        -12    1    3    3    0    0  0.75464501166E+01  0.69242867552E+00  0.31126731776E+02  0.32035945403E+02  0.00000000000E+00 0.  1.
</event>
<event>
 7    1  0.3440346E-013  0.7246157E+02  0.7816164E-02  0.1226708E+00
        -11   -1    0    0    0    0  0.00000000000E+00  0.00000000000E+00  0.45593999997E+02  0.45594000000E+02  0.51100000000E-03 0.  1.
         11   -1    0    0    0    0 -0.00000000000E+00 -0.00000000000E+00 -0.45593999997E+02  0.45594000000E+02  0.51100000000E-03 0. -1.
    9900012    2    1    2    0    0 -0.30561034054E+01  0.59996928633E+01 -0.17474068322E+02  0.72461570917E+02  0.70000000811E+02 0.  0.
        -12    1    1    2    0    0  0.30561034054E+01 -0.59996928633E+01  0.17474068322E+02  0.18726429083E+02  0.00000000000E+00 0.  1.
         11    1    3    3    0    0 -0.14516470475E+02  0.23676138333E+02 -0.24329991161E+01  0.27878431203E+02  0.51100000000E-03 0. -1.
        -11    1    3    3    0    0  0.23744183471E+02 -0.12569550515E+02 -0.37344494904E+01  0.27124268877E+02  0.51100000000E-03 0.  1.
         12    1    3    3    0    0 -0.12283816402E+02 -0.51068949545E+01 -0.11306619716E+02  0.17458870836E+02  0.00000000000E+00 0. -1.
</event>
<event>
 7    1  0.3440346E-013  0.7246156E+02  0.7816164E-02  0.1226708E+00
        -11   -1    0    0    0    0  0.00000000000E+00  0.00000000000E+00  0.45593999997E+02  0.45594000000E+02  0.51100000000E-03 0. -1.
         11   -1    0    0    0    0 -0.00000000000E+00 -0.00000000000E+00 -0.45593999997E+02  0.45594000000E+02  0.51100000000E-03 0.  1.
    9900012    2    1    2    0    0 -0.63912650619E+00  0.81313285506E+01  0.16856820180E+02  0.72461564854E+02  0.69999992913E+02 0.  0.
        -12    1    1    2    0    0  0.63912650619E+00 -0.81313285506E+01 -0.16856820180E+02  0.18726435146E+02  0.00000000000E+00 0.  1.
         11    1    3    3    0    0  0.92319974513E+01  0.69871950369E+01  0.65584167249E+01  0.13306521019E+02  0.51100000000E-03 0. -1.
        -11    1    3    3    0    0  0.46034534796E+01  0.56934381239E+01 -0.22153133220E+02  0.23331702324E+02  0.51100000000E-03 0.  1.
         12    1    3    3    0    0 -0.14474577437E+02 -0.45493046102E+01  0.32451536676E+02  0.35823341511E+02  0.00000000000E+00 0. -1.
</event>
<event>
 7    1  0.3440346E-013  0.7246165E+02  0.7816164E-02  0.1226708E+00
        -11   -1    0    0    0    0  0.00000000000E+00  0.00000000000E+00  0.45593999997E+02  0.45594000000E+02  0.51100000000E-03 0. -1.
         11   -1    0    0    0    0 -0.00000000000E+00 -0.00000000000E+00 -0.45593999997E+02  0.45594000000E+02  0.51100000000E-03 0.  1.
    9900012    2    1    2    0    0  0.13385015242E+02  0.13072955546E+02 -0.78453945165E+00  0.72461646861E+02  0.70000099743E+02 0.  0.
        -12    1    1    2    0    0 -0.13385015242E+02 -0.13072955546E+02  0.78453945165E+00  0.18726353139E+02  0.00000000000E+00 0.  1.
         11    1    3    3    0    0  0.21329974043E+02 -0.10166967663E+02  0.20061215266E+02  0.30996570493E+02  0.51100000000E-03 0. -1.
        -11    1    3    3    0    0 -0.34951486982E+01  0.24977414835E+02 -0.60764513153E+01  0.25942447400E+02  0.51100000000E-03 0.  1.
        -12    1    3    3    0    0 -0.44498101029E+01 -0.17374916263E+01 -0.14769303402E+02  0.15522628968E+02  0.00000000000E+00 0.  1.
</event>
<event>
 7    1  0.3440346E-013  0.7246174E+02  0.7816164E-02  0.1226708E+00
        -11   -1    0    0    0    0  0.00000000000E+00  0.00000000000E+00  0.45593999997E+02  0.45594000000E+02  0.51100000000E-03 0.  1.
         11   -1    0    0    0    0 -0.00000000000E+00 -0.00000000000E+00 -0.45593999997E+02  0.45594000000E+02  0.51100000000E-03 0. -1.
    9900012    2    1    2    0    0 -0.74439381272E+01  0.61885135862E+01 -0.16030056551E+02  0.72461744948E+02  0.70000227518E+02 0.  0.
        -12    1    1    2    0    0  0.74439381272E+01 -0.61885135862E+01  0.16030056551E+02  0.18726255052E+02  0.00000000000E+00 0.  1.
         11    1    3    3    0    0  0.45624740570E+01 -0.11980191774E+02 -0.29854823773E+02  0.32490793577E+02  0.51100000000E-03 0. -1.
        -11    1    3    3    0    0 -0.93199039484E+01  0.44428996012E+01 -0.86703288301E+01  0.13482379937E+02  0.51100000000E-03 0.  1.
        -12    1    3    3    0    0 -0.26865082357E+01  0.13725805759E+02  0.22495096052E+02  0.26488571434E+02  0.00000000000E+00 0.  1.
</event>
<event>
 7    1  0.3440346E-013  0.7246094E+02  0.7816164E-02  0.1226710E+00
        -11   -1    0    0    0    0  0.00000000000E+00  0.00000000000E+00  0.45593999997E+02  0.45594000000E+02  0.51100000000E-03 0. -1.
         11   -1    0    0    0    0 -0.00000000000E+00 -0.00000000000E+00 -0.45593999997E+02  0.45594000000E+02  0.51100000000E-03 0.  1.
    9900012    2    1    2    0    0  0.13812155776E+02 -0.95691369604E+01 -0.82679439035E+01  0.72460936009E+02  0.69999173720E+02 0.  0.
        -12    1    1    2    0    0 -0.13812155776E+02  0.95691369604E+01  0.82679439035E+01  0.18727063991E+02  0.00000000000E+00 0.  1.
         11    1    3    3    0    0  0.70019193329E+01  0.84688957673E+01  0.22374046345E+01  0.11214055895E+02  0.51100000000E-03 0. -1.
        -11    1    3    3    0    0 -0.22649745913E+02 -0.13555624990E+02 -0.16111826894E+02  0.30925021017E+02  0.51100000000E-03 0.  1.
         12    1    3    3    0    0  0.29459982356E+02 -0.44824077375E+01  0.56064783559E+01  0.30321859097E+02  0.00000000000E+00 0. -1.
</event>
<event>
 7    1  0.3440346E-013  0.7246153E+02  0.7816164E-02  0.1226708E+00
        -11   -1    0    0    0    0  0.00000000000E+00  0.00000000000E+00  0.45593999997E+02  0.45594000000E+02  0.51100000000E-03 0. -1.
         11   -1    0    0    0    0 -0.00000000000E+00 -0.00000000000E+00 -0.45593999997E+02  0.45594000000E+02  0.51100000000E-03 0.  1.
    9900012    2    1    2    0    0  0.13438192790E+02  0.12972874801E+02 -0.13417636160E+01  0.72461525808E+02  0.69999942048E+02 0.  0.
        -12    1    1    2    0    0 -0.13438192790E+02 -0.12972874801E+02  0.13417636160E+01  0.18726474192E+02  0.00000000000E+00 0.  1.
         11    1    3    3    0    0  0.20589965441E+02  0.26938402788E+02 -0.27501255994E+01  0.34017457470E+02  0.51100000000E-03 0. -1.
        -11    1    3    3    0    0  0.68270909271E+01  0.67277538700E+01  0.81457814659E+01  0.12578775720E+02  0.51100000000E-03 0.  1.
        -12    1    3    3    0    0 -0.13978863578E+02 -0.20693281857E+02 -0.67374194825E+01  0.25865292618E+02  0.00000000000E+00 0.  1.
</event>
<event>
 7    1  0.3440346E-013  0.7246170E+02  0.7816164E-02  0.1226708E+00
        -11   -1    0    0    0    0  0.00000000000E+00  0.00000000000E+00  0.45593999997E+02  0.45594000000E+02  0.51100000000E-03 0. -1.
         11   -1    0    0    0    0 -0.00000000000E+00 -0.00000000000E+00 -0.45593999997E+02  0.45594000000E+02  0.51100000000E-03 0.  1.
    9900012    2    1    2    0    0  0.87026067996E+01  0.15223344050E+02  0.65718042400E+01  0.72461703512E+02  0.70000173541E+02 0.  0.
        -12    1    1    2    0    0 -0.87026067996E+01 -0.15223344050E+02 -0.65718042400E+01  0.18726296488E+02  0.00000000000E+00 0.  1.
         11    1    3    3    0    0  0.14969542850E+02  0.48436048596E+01 -0.25786248227E+02  0.30207256066E+02  0.51100000000E-03 0.  1.
        -11    1    3    3    0    0  0.75859183962E+01  0.94189811044E+01  0.21337578884E+02  0.24526631155E+02  0.51100000000E-03 0. -1.
        -12    1    3    3    0    0 -0.13852854446E+02  0.96075808635E+00  0.11020473584E+02  0.17727816290E+02  0.00000000000E+00 0.  1.
</event>
<event>
 7    1  0.3440346E-013  0.7246175E+02  0.7816164E-02  0.1226708E+00
        -11   -1    0    0    0    0  0.00000000000E+00  0.00000000000E+00  0.45593999997E+02  0.45594000000E+02  0.51100000000E-03 0. -1.
         11   -1    0    0    0    0 -0.00000000000E+00 -0.00000000000E+00 -0.45593999997E+02  0.45594000000E+02  0.51100000000E-03 0.  1.
    9900012    2    1    2    0    0 -0.67988250621E+01  0.29767961976E+01  0.17192643980E+02  0.72461752515E+02  0.70000237376E+02 0.  0.
        -12    1    1    2    0    0  0.67988250621E+01 -0.29767961976E+01 -0.17192643980E+02  0.18726247485E+02  0.00000000000E+00 0.  1.
         11    1    3    3    0    0 -0.22085436295E+02  0.68134260531E+01 -0.11967520685E+01  0.23143497719E+02  0.51100000000E-03 0. -1.
        -11    1    3    3    0    0 -0.90491312858E+01 -0.13612795955E+02 -0.14835782516E+01  0.16413287161E+02  0.51100000000E-03 0.  1.
        -12    1    3    3    0    0  0.24335742518E+02  0.97761660993E+01  0.19872974301E+02  0.32904967635E+02  0.00000000000E+00 0.  1.
</event>
<event>
 7    1  0.3440346E-013  0.7246190E+02  0.7816164E-02  0.1226707E+00
        -11   -1    0    0    0    0  0.00000000000E+00  0.00000000000E+00  0.45593999997E+02  0.45594000000E+02  0.51100000000E-03 0.  1.
         11   -1    0    0    0    0 -0.00000000000E+00 -0.00000000000E+00 -0.45593999997E+02  0.45594000000E+02  0.51100000000E-03 0. -1.
    9900012    2    1    2    0    0 -0.14216999240E+02  0.51478189384E+01 -0.11047343703E+02  0.72461897627E+02  0.70000426410E+02 0.  0.
        -12    1    1    2    0    0  0.14216999240E+02 -0.51478189384E+01  0.11047343703E+02  0.18726102373E+02  0.00000000000E+00 0.  1.
         11    1    3    3    0    0  0.80503065319E+01 -0.44810573245E+01 -0.24123083956E+02  0.25822673948E+02  0.51100000000E-03 0. -1.
        -11    1    3    3    0    0 -0.13892539563E+02  0.82555209162E+01 -0.12024489783E+02  0.20143103929E+02  0.51100000000E-03 0.  1.
        -12    1    3    3    0    0 -0.83747662089E+01  0.13733553466E+01  0.25100230035E+02  0.26496119750E+02  0.00000000000E+00 0.  1.
</event>
<event>
 7    1  0.3440346E-013  0.7246152E+02  0.7816164E-02  0.1226708E+00
        -11   -1    0    0    0    0  0.00000000000E+00  0.00000000000E+00  0.45593999997E+02  0.45594000000E+02  0.51100000000E-03 0. -1.
         11   -1    0    0    0    0 -0.00000000000E+00 -0.00000000000E+00 -0.45593999997E+02  0.45594000000E+02  0.51100000000E-03 0.  1.
    9900012    2    1    2    0    0 -0.13978229093E+02  0.11409275048E+02 -0.50118461540E+01  0.72461520150E+02  0.69999934678E+02 0.  0.
        -12    1    1    2    0    0  0.13978229093E+02 -0.11409275048E+02  0.50118461540E+01  0.18726479850E+02  0.00000000000E+00 0.  1.
         11    1    3    3    0    0  0.74517711607E+01 -0.89786980092E+01  0.28248397125E+01  0.12005233485E+02  0.51100000000E-03 0. -1.
        -11    1    3    3    0    0  0.12227890588E+02  0.19104245641E+02  0.68746476603E+01  0.23701356300E+02  0.51100000000E-03 0.  1.
         12    1    3    3    0    0 -0.33657890842E+02  0.12837274167E+01 -0.14711333527E+02  0.36754930365E+02  0.00000000000E+00 0. -1.
</event>
<event>
 7    1  0.3440346E-013  0.7246149E+02  0.7816164E-02  0.1226708E+00
        -11   -1    0    0    0    0  0.00000000000E+00  0.00000000000E+00  0.45593999997E+02  0.45594000000E+02  0.51100000000E-03 0.  1.
         11   -1    0    0    0    0 -0.00000000000E+00 -0.00000000000E+00 -0.45593999997E+02  0.45594000000E+02  0.51100000000E-03 0. -1.
    9900012    2    1    2    0    0 -0.44783698240E+01 -0.87527751207E+01 -0.15937858749E+02  0.72461489110E+02  0.69999894243E+02 0.  0.
        -12    1    1    2    0    0  0.44783698240E+01  0.87527751207E+01  0.15937858749E+02  0.18726510890E+02  0.00000000000E+00 0.  1.
         11    1    3    3    0    0  0.89765007684E+00  0.55808317980E+01  0.30625050797E+01  0.64288721283E+01  0.51100000000E-03 0. -1.
        -11    1    3    3    0    0  0.20301380521E+02  0.79457050750E+01  0.73649748441E+01  0.23011369688E+02  0.51100000000E-03 0.  1.
         12    1    3    3    0    0 -0.25677400422E+02 -0.22279311994E+02 -0.26365338673E+02  0.43021247294E+02  0.00000000000E+00 0. -1.
</event>
<event>
 7    1  0.3440346E-013  0.7246157E+02  0.7816164E-02  0.1226708E+00
        -11   -1    0    0    0    0  0.00000000000E+00  0.00000000000E+00  0.45593999997E+02  0.45594000000E+02  0.51100000000E-03 0.  1.
         11   -1    0    0    0    0 -0.00000000000E+00 -0.00000000000E+00 -0.45593999997E+02  0.45594000000E+02  0.51100000000E-03 0. -1.
    9900012    2    1    2    0    0 -0.54777288374E+01 -0.12075804876E+02 -0.13223027794E+02  0.72461573735E+02  0.70000004481E+02 0.  0.
        -12    1    1    2    0    0  0.54777288374E+01  0.12075804876E+02  0.13223027794E+02  0.18726426265E+02  0.00000000000E+00 0.  1.
         11    1    3    3    0    0 -0.90182990982E+01  0.46979386967E-01  0.93836869444E+01  0.13014818732E+02  0.51100000000E-03 0. -1.
        -11    1    3    3    0    0  0.13478636594E+02 -0.37355673981E+01  0.14488512041E+02  0.20138150105E+02  0.51100000000E-03 0.  1.
         12    1    3    3    0    0 -0.99380663328E+01 -0.83872168650E+01 -0.37095226780E+02  0.39308604898E+02  0.00000000000E+00 0. -1.
</event>
<event>
 7    1  0.3440346E-013  0.7246159E+02  0.7816164E-02  0.1226708E+00
        -11   -1    0    0    0    0  0.00000000000E+00  0.00000000000E+00  0.45593999997E+02  0.45594000000E+02  0.51100000000E-03 0.  1.
         11   -1    0    0    0    0 -0.00000000000E+00 -0.00000000000E+00 -0.45593999997E+02  0.45594000000E+02  0.51100000000E-03 0. -1.
    9900012    2    1    2    0    0 -0.25710576253E+01  0.49918015068E+01 -0.17864772850E+02  0.72461587408E+02  0.70000022294E+02 0.  0.
        -12    1    1    2    0    0  0.25710576253E+01 -0.49918015068E+01  0.17864772850E+02  0.18726412592E+02  0.00000000000E+00 0.  1.
         11    1    3    3    0    0  0.83035369024E+01  0.24115657125E+01 -0.17162149351E+02  0.19217277250E+02  0.51100000000E-03 0. -1.
        -11    1    3    3    0    0 -0.94048611375E+01 -0.19749871102E+01 -0.25884875254E+02  0.27611207041E+02  0.51100000000E-03 0.  1.
        -12    1    3    3    0    0 -0.14697333902E+01  0.45552229046E+01  0.25182251755E+02  0.25633103117E+02  0.00000000000E+00 0.  1.
</event>
<event>
 7    1  0.3440346E-013  0.7246154E+02  0.7816164E-02  0.1226708E+00
        -11   -1    0    0    0    0  0.00000000000E+00  0.00000000000E+00  0.45593999997E+02  0.45594000000E+02  0.51100000000E-03 0.  1.
         11   -1    0    0    0    0 -0.00000000000E+00 -0.00000000000E+00 -0.45593999997E+02  0.45594000000E+02  0.51100000000E-03 0. -1.
    9900012    2    1    2    0    0  0.17451495838E+02  0.45007307715E+01 -0.50861652804E+01  0.72461538462E+02  0.69999958533E+02 0.  0.
        -12    1    1    2    0    0 -0.17451495838E+02 -0.45007307715E+01  0.50861652804E+01  0.18726461538E+02  0.00000000000E+00 0.  1.
         11    1    3    3    0    0  0.12457955182E+02 -0.25022768856E+00 -0.18985989599E+02  0.22709712956E+02  0.51100000000E-03 0. -1.
        -11    1    3    3    0    0 -0.38945329035E+01 -0.81215760839E+01 -0.14649995070E+02  0.17197375975E+02  0.51100000000E-03 0.  1.
        -12    1    3    3    0    0  0.88880735592E+01  0.12872534544E+02  0.28549819388E+02  0.32554449531E+02  0.00000000000E+00 0.  1.
</event>
<event>
 7    1  0.3440346E-013  0.7246157E+02  0.7816164E-02  0.1226708E+00
        -11   -1    0    0    0    0  0.00000000000E+00  0.00000000000E+00  0.45593999997E+02  0.45594000000E+02  0.51100000000E-03 0.  1.
         11   -1    0    0    0    0 -0.00000000000E+00 -0.00000000000E+00 -0.45593999997E+02  0.45594000000E+02  0.51100000000E-03 0. -1.
    9900012    2    1    2    0    0 -0.17715903315E+02  0.52766092230E+01 -0.29972364451E+01  0.72461567839E+02  0.69999996802E+02 0.  0.
        -12    1    1    2    0    0  0.17715903315E+02 -0.52766092230E+01  0.29972364451E+01  0.18726432161E+02  0.00000000000E+00 0.  1.
         11    1    3    3    0    0 -0.86841150874E+01  0.11122439614E+02 -0.22488191131E+01  0.14289146422E+02  0.51100000000E-03 0. -1.
        -11    1    3    3    0    0 -0.31736221850E+02 -0.11015705737E+02 -0.64305187013E+01  0.34203583456E+02  0.51100000000E-03 0.  1.
        -12    1    3    3    0    0  0.22704433622E+02  0.51698753462E+01  0.56821013694E+01  0.23968837961E+02  0.00000000000E+00 0.  1.
</event>
<event>
 7    1  0.3440346E-013  0.7246160E+02  0.7816164E-02  0.1226708E+00
        -11   -1    0    0    0    0  0.00000000000E+00  0.00000000000E+00  0.45593999997E+02  0.45594000000E+02  0.51100000000E-03 0.  1.
         11   -1    0    0    0    0 -0.00000000000E+00 -0.00000000000E+00 -0.45593999997E+02  0.45594000000E+02  0.51100000000E-03 0. -1.
    9900012    2    1    2    0    0 -0.99838276915E+01 -0.10944344373E+02 -0.11455241971E+02  0.72461599979E+02  0.70000038670E+02 0.  0.
        -12    1    1    2    0    0  0.99838276915E+01  0.10944344373E+02  0.11455241971E+02  0.18726400021E+02  0.00000000000E+00 0.  1.
         11    1    3    3    0    0 -0.24760211339E+02 -0.88847775140E+00 -0.21667273097E+02  0.32913951176E+02  0.51100000000E-03 0. -1.
        -11    1    3    3    0    0 -0.57594832374E+00 -0.46029658431E+01 -0.11501435189E+02  0.12401694348E+02  0.51100000000E-03 0.  1.
        -12    1    3    3    0    0  0.15352331972E+02 -0.54529007785E+01  0.21713466315E+02  0.27145954455E+02  0.00000000000E+00 0.  1.
</event>
<event>
 7    1  0.3440346E-013  0.7246157E+02  0.7816164E-02  0.1226708E+00
        -11   -1    0    0    0    0  0.00000000000E+00  0.00000000000E+00  0.45593999997E+02  0.45594000000E+02  0.51100000000E-03 0. -1.
         11   -1    0    0    0    0 -0.00000000000E+00 -0.00000000000E+00 -0.45593999997E+02  0.45594000000E+02  0.51100000000E-03 0.  1.
    9900012    2    1    2    0    0  0.61044507278E+01 -0.10783846499E+02  0.14040072656E+02  0.72461566699E+02  0.69999995316E+02 0.  0.
        -12    1    1    2    0    0 -0.61044507278E+01  0.10783846499E+02 -0.14040072656E+02  0.18726433301E+02  0.00000000000E+00 0.  1.
         11    1    3    3    0    0  0.12632179089E+02 -0.16755183092E+02 -0.19073560136E+02  0.28356812330E+02  0.51100000000E-03 0.  1.
        -11    1    3    3    0    0 -0.71368309906E+01  0.15996460339E+02  0.13665709471E+02  0.22216496475E+02  0.51100000000E-03 0. -1.
        -12    1    3    3    0    0  0.60910262973E+00 -0.10025123747E+02  0.19447923321E+02  0.21888257894E+02  0.00000000000E+00 0.  1.
</event>
<event>
 7    1  0.3440346E-013  0.7246158E+02  0.7816164E-02  0.1226708E+00
        -11   -1    0    0    0    0  0.00000000000E+00  0.00000000000E+00  0.45593999997E+02  0.45594000000E+02  0.51100000000E-03 0. -1.
         11   -1    0    0    0    0 -0.00000000000E+00 -0.00000000000E+00 -0.45593999997E+02  0.45594000000E+02  0.51100000000E-03 0.  1.
    9900012    2    1    2    0    0 -0.10872961571E+01 -0.18360653319E+02 -0.35189422456E+01  0.72461581288E+02  0.70000014322E+02 0.  0.
        -12    1    1    2    0    0  0.10872961571E+01  0.18360653319E+02  0.35189422456E+01  0.18726418712E+02  0.00000000000E+00 0.  1.
         11    1    3    3    0    0 -0.13823078850E+02 -0.18135324973E+02  0.26741374900E+02  0.35143543540E+02  0.51100000000E-03 0.  1.
        -11    1    3    3    0    0 -0.18147758410E+01 -0.43237499729E+01 -0.16706253874E+01  0.49778725001E+01  0.51100000000E-03 0. -1.
        -12    1    3    3    0    0  0.14550558534E+02  0.40984216265E+01 -0.28589691758E+02  0.32340165248E+02  0.00000000000E+00 0.  1.
</event>
<event>
 7    1  0.3440346E-013  0.7246157E+02  0.7816164E-02  0.1226708E+00
        -11   -1    0    0    0    0  0.00000000000E+00  0.00000000000E+00  0.45593999997E+02  0.45594000000E+02  0.51100000000E-03 0.  1.
         11   -1    0    0    0    0 -0.00000000000E+00 -0.00000000000E+00 -0.45593999997E+02  0.45594000000E+02  0.51100000000E-03 0. -1.
    9900012    2    1    2    0    0 -0.17702130225E+02  0.60342464150E+01  0.94960761117E+00  0.72461566839E+02  0.69999995499E+02 0.  0.
        -12    1    1    2    0    0  0.17702130225E+02 -0.60342464150E+01 -0.94960761117E+00  0.18726433161E+02  0.00000000000E+00 0.  1.
         11    1    3    3    0    0 -0.16099837220E+01  0.24717641408E+02 -0.18484247995E+02  0.30906654114E+02  0.51100000000E-03 0. -1.
        -11    1    3    3    0    0  0.62791667488E+01 -0.10654152008E+01 -0.10795729148E+01  0.64597618028E+01  0.51100000000E-03 0.  1.
        -12    1    3    3    0    0 -0.22371313252E+02 -0.17617979792E+02  0.20513428521E+02  0.35095150922E+02  0.00000000000E+00 0.  1.
</event>
<event>
 7    1  0.3440346E-013  0.7246165E+02  0.7816164E-02  0.1226708E+00
        -11   -1    0    0    0    0  0.00000000000E+00  0.00000000000E+00  0.45593999997E+02  0.45594000000E+02  0.51100000000E-03 0. -1.
         11   -1    0    0    0    0 -0.00000000000E+00 -0.00000000000E+00 -0.45593999997E+02  0.45594000000E+02  0.51100000000E-03 0.  1.
    9900012    2    1    2    0    0 -0.10464066838E+02  0.94607114373E+01  0.12315610616E+02  0.72461654374E+02  0.70000109529E+02 0.  0.
        -12    1    1    2    0    0  0.10464066838E+02 -0.94607114373E+01 -0.12315610616E+02  0.18726345626E+02  0.00000000000E+00 0.  1.
         11    1    3    3    0    0  0.53122379880E+01  0.10238572904E+02  0.28321777591E+01  0.11877267306E+02  0.51100000000E-03 0. -1.
        -11    1    3    3    0    0  0.90649907769E+01  0.12556816481E+02 -0.16224449582E+02  0.22429455241E+02  0.51100000000E-03 0.  1.
         12    1    3    3    0    0 -0.24841295602E+02 -0.13334677948E+02  0.25707882438E+02  0.38154931826E+02  0.00000000000E+00 0. -1.
</event>
<event>
 7    1  0.3440346E-013  0.7246155E+02  0.7816164E-02  0.1226708E+00
        -11   -1    0    0    0    0  0.00000000000E+00  0.00000000000E+00  0.45593999997E+02  0.45594000000E+02  0.51100000000E-03 0.  1.
         11   -1    0    0    0    0 -0.00000000000E+00 -0.00000000000E+00 -0.45593999997E+02  0.45594000000E+02  0.51100000000E-03 0. -1.
    9900012    2    1    2    0    0 -0.41846956446E+01 -0.14871807914E+02 -0.10582897020E+02  0.72461546582E+02  0.69999969111E+02 0.  0.
        -12    1    1    2    0    0  0.41846956446E+01  0.14871807914E+02  0.10582897020E+02  0.18726453418E+02  0.00000000000E+00 0.  1.
         11    1    3    3    0    0 -0.84503899435E+01 -0.18959889996E+02  0.37428867657E+01  0.21092551303E+02  0.51100000000E-03 0. -1.
        -11    1    3    3    0    0  0.25724176736E+01 -0.19771229487E+02  0.50718482187E+01  0.20572858156E+02  0.51100000000E-03 0.  1.
        -12    1    3    3    0    0  0.16932766253E+01  0.23859311569E+02 -0.19397632005E+02  0.30796137123E+02  0.00000000000E+00 0.  1.
</event>
<event>
 7    1  0.3440346E-013  0.7246157E+02  0.7816164E-02  0.1226708E+00
        -11   -1    0    0    0    0  0.00000000000E+00  0.00000000000E+00  0.45593999997E+02  0.45594000000E+02  0.51100000000E-03 0. -1.
         11   -1    0    0    0    0 -0.00000000000E+00 -0.00000000000E+00 -0.45593999997E+02  0.45594000000E+02  0.51100000000E-03 0.  1.
    9900012    2    1    2    0    0  0.47925466310E+01 -0.28088483917E+01  0.17883542699E+02  0.72461568627E+02  0.69999997829E+02 0.  0.
        -12    1    1    2    0    0 -0.47925466310E+01  0.28088483917E+01 -0.17883542699E+02  0.18726431373E+02  0.00000000000E+00 0.  1.
         11    1    3    3    0    0  0.58685334547E+01 -0.35667226126E+01 -0.12785655524E+02  0.14513241628E+02  0.51100000000E-03 0.  1.
        -11    1    3    3    0    0 -0.20113151569E+01 -0.23187149658E+02  0.70913579658E+01  0.24330570400E+02  0.51100000000E-03 0. -1.
        -12    1    3    3    0    0  0.93532833323E+00  0.23945023878E+02  0.23577840257E+02  0.33617756600E+02  0.00000000000E+00 0.  1.
</event>
<event>
 7    1  0.3440346E-013  0.7246155E+02  0.7816164E-02  0.1226708E+00
        -11   -1    0    0    0    0  0.00000000000E+00  0.00000000000E+00  0.45593999997E+02  0.45594000000E+02  0.51100000000E-03 0.  1.
         11   -1    0    0    0    0 -0.00000000000E+00 -0.00000000000E+00 -0.45593999997E+02  0.45594000000E+02  0.51100000000E-03 0. -1.
    9900012    2    1    2    0    0  0.53794935422E+00 -0.17477285415E+02 -0.67033502439E+01  0.72461553475E+02  0.69999978089E+02 0.  0.
        -12    1    1    2    0    0 -0.53794935422E+00  0.17477285415E+02  0.67033502439E+01  0.18726446525E+02  0.00000000000E+00 0.  1.
         11    1    3    3    0    0  0.22896606319E+01 -0.20475642578E+02  0.28290213849E+01  0.20796582581E+02  0.51100000000E-03 0. -1.
        -11    1    3    3    0    0 -0.15868683008E+02 -0.18514032056E+02 -0.48171419852E+00  0.24388860822E+02  0.51100000000E-03 0.  1.
         12    1    3    3    0    0  0.14116971730E+02  0.21512389219E+02 -0.90506574303E+01  0.27276110072E+02  0.00000000000E+00 0. -1.
</event>
<event>
 7    1  0.3440346E-013  0.7246157E+02  0.7816164E-02  0.1226708E+00
        -11   -1    0    0    0    0  0.00000000000E+00  0.00000000000E+00  0.45593999997E+02  0.45594000000E+02  0.51100000000E-03 0. -1.
         11   -1    0    0    0    0 -0.00000000000E+00 -0.00000000000E+00 -0.45593999997E+02  0.45594000000E+02  0.51100000000E-03 0.  1.
    9900012    2    1    2    0    0  0.11388045988E+02  0.44525457339E+01  0.14183316427E+02  0.72461568952E+02  0.69999998251E+02 0.  0.
        -12    1    1    2    0    0 -0.11388045988E+02 -0.44525457339E+01 -0.14183316427E+02  0.18726431048E+02  0.00000000000E+00 0.  1.
         11    1    3    3    0    0 -0.17962593114E+02  0.10898217842E+02  0.69901863514E-01  0.21010254402E+02  0.51100000000E-03 0. -1.
        -11    1    3    3    0    0  0.11590358578E+02  0.11579906748E+02  0.19612638368E+02  0.25555551965E+02  0.51100000000E-03 0.  1.
        -12    1    3    3    0    0  0.17760280524E+02 -0.18025578856E+02 -0.54992238044E+01  0.25895762584E+02  0.00000000000E+00 0.  1.
</event>
<event>
 7    1  0.3440346E-013  0.7246161E+02  0.7816164E-02  0.1226708E+00
        -11   -1    0    0    0    0  0.00000000000E+00  0.00000000000E+00  0.45593999997E+02  0.45594000000E+02  0.51100000000E-03 0.  1.
         11   -1    0    0    0    0 -0.00000000000E+00 -0.00000000000E+00 -0.45593999997E+02  0.45594000000E+02  0.51100000000E-03 0. -1.
    9900012    2    1    2    0    0 -0.10840659514E+02 -0.90158622675E+01  0.12323628965E+02  0.72461614818E+02  0.70000058000E+02 0.  0.
        -12    1    1    2    0    0  0.10840659514E+02  0.90158622675E+01 -0.12323628965E+02  0.18726385182E+02  0.00000000000E+00 0.  1.
         11    1    3    3    0    0  0.94289482639E+00  0.79696718703E+01 -0.21735868622E+02  0.23170082119E+02  0.51100000000E-03 0. -1.
        -11    1    3    3    0    0 -0.17447160314E+00  0.57325987437E+01 -0.11112865024E+01  0.58419249095E+01  0.51100000000E-03 0.  1.
        -12    1    3    3    0    0 -0.11609082737E+02 -0.22718132882E+02  0.35170784089E+02  0.43449607790E+02  0.00000000000E+00 0.  1.
</event>
<event>
 7    1  0.3459027E-013  0.7246158E+02  0.7816164E-02  0.1226708E+00
        -11   -1    0    0    0    0  0.00000000000E+00  0.00000000000E+00  0.45593999997E+02  0.45594000000E+02  0.51100000000E-03 0.  1.
         11   -1    0    0    0    0 -0.00000000000E+00 -0.00000000000E+00 -0.45593999997E+02  0.45594000000E+02  0.51100000000E-03 0. -1.
    9900012    2    1    2    0    0  0.16741034940E+02  0.92035203217E+00 -0.83408394897E+01  0.72461577434E+02  0.70000009301E+02 0.  0.
        -12    1    1    2    0    0 -0.16741034940E+02 -0.92035203217E+00  0.83408394897E+01  0.18726422566E+02  0.00000000000E+00 0.  1.
         11    1    3    3    0    0  0.22982881658E+02 -0.21039621791E+02  0.38028113774E+01  0.31390124387E+02  0.51100000000E-03 0. -1.
        -11    1    3    3    0    0  0.10619149556E+02  0.18747900297E+01 -0.10088569420E+02  0.14766868596E+02  0.51100000000E-03 0.  1.
        -12    1    3    3    0    0 -0.16860996274E+02  0.20085183794E+02 -0.20550814475E+01  0.26304584451E+02  0.00000000000E+00 0.  1.
</event>
<event>
 7    1  0.3440346E-013  0.7246153E+02  0.7816164E-02  0.1226708E+00
        -11   -1    0    0    0    0  0.00000000000E+00  0.00000000000E+00  0.45593999997E+02  0.45594000000E+02  0.51100000000E-03 0.  1.
         11   -1    0    0    0    0 -0.00000000000E+00 -0.00000000000E+00 -0.45593999997E+02  0.45594000000E+02  0.51100000000E-03 0. -1.
    9900012    2    1    2    0    0  0.30095565054E+01 -0.10350761055E+02 -0.15312900410E+02  0.72461532000E+02  0.69999950115E+02 0.  0.
        -12    1    1    2    0    0 -0.30095565054E+01  0.10350761055E+02  0.15312900410E+02  0.18726468000E+02  0.00000000000E+00 0.  1.
         11    1    3    3    0    0  0.57901118311E+01  0.94076400589E+01  0.16132105852E+02  0.19551826666E+02  0.51100000000E-03 0. -1.
        -11    1    3    3    0    0 -0.15534061389E+02 -0.14286540446E+02 -0.30754856852E+01  0.21327702962E+02  0.51100000000E-03 0.  1.
         12    1    3    3    0    0  0.12753506064E+02 -0.54718606687E+01 -0.28369520577E+02  0.31582002372E+02  0.00000000000E+00 0. -1.
</event>
<event>
 7    1  0.3440346E-013  0.7246151E+02  0.7816164E-02  0.1226708E+00
        -11   -1    0    0    0    0  0.00000000000E+00  0.00000000000E+00  0.45593999997E+02  0.45594000000E+02  0.51100000000E-03 0.  1.
         11   -1    0    0    0    0 -0.00000000000E+00 -0.00000000000E+00 -0.45593999997E+02  0.45594000000E+02  0.51100000000E-03 0. -1.
    9900012    2    1    2    0    0  0.65955496235E+01 -0.53357682402E+01 -0.16694602767E+02  0.72461509162E+02  0.69999920364E+02 0.  0.
        -12    1    1    2    0    0 -0.65955496235E+01  0.53357682402E+01  0.16694602767E+02  0.18726490838E+02  0.00000000000E+00 0.  1.
         11    1    3    3    0    0 -0.10585479960E+02 -0.20145171787E+02 -0.86249814825E+01  0.24336611065E+02  0.51100000000E-03 0. -1.
        -11    1    3    3    0    0 -0.67037670816E+01 -0.14320265665E+01  0.11392695030E+02  0.13296040519E+02  0.51100000000E-03 0.  1.
        -12    1    3    3    0    0  0.23884796665E+02  0.16241430113E+02 -0.19462316315E+02  0.34828857578E+02  0.00000000000E+00 0.  1.
</event>
<event>
 7    1  0.3440346E-013  0.7246161E+02  0.7816164E-02  0.1226708E+00
        -11   -1    0    0    0    0  0.00000000000E+00  0.00000000000E+00  0.45593999997E+02  0.45594000000E+02  0.51100000000E-03 0.  1.
         11   -1    0    0    0    0 -0.00000000000E+00 -0.00000000000E+00 -0.45593999997E+02  0.45594000000E+02  0.51100000000E-03 0. -1.
    9900012    2    1    2    0    0  0.84784850246E+01 -0.13432947472E+02 -0.99171044776E+01  0.72461608267E+02  0.70000049467E+02 0.  0.
        -12    1    1    2    0    0 -0.84784850246E+01  0.13432947472E+02  0.99171044776E+01  0.18726391733E+02  0.00000000000E+00 0.  1.
         11    1    3    3    0    0 -0.18448880030E+02 -0.79093931348E+01 -0.24237518301E+02  0.31470255286E+02  0.51100000000E-03 0. -1.
        -11    1    3    3    0    0 -0.14452636467E+01  0.21731229786E+01  0.11117065861E+02  0.11419299633E+02  0.51100000000E-03 0.  1.
        -12    1    3    3    0    0  0.28372628701E+02 -0.76966773158E+01  0.32033479620E+01  0.29572053349E+02  0.00000000000E+00 0.  1.
</event>
<event>
 7    1  0.3440346E-013  0.7246161E+02  0.7816164E-02  0.1226708E+00
        -11   -1    0    0    0    0  0.00000000000E+00  0.00000000000E+00  0.45593999997E+02  0.45594000000E+02  0.51100000000E-03 0. -1.
         11   -1    0    0    0    0 -0.00000000000E+00 -0.00000000000E+00 -0.45593999997E+02  0.45594000000E+02  0.51100000000E-03 0.  1.
    9900012    2    1    2    0    0  0.67878549953E+01 -0.43345168920E+00  0.17447489461E+02  0.72461608348E+02  0.70000049572E+02 0.  0.
        -12    1    1    2    0    0 -0.67878549953E+01  0.43345168920E+00 -0.17447489461E+02  0.18726391652E+02  0.00000000000E+00 0.  1.
         11    1    3    3    0    0  0.64172590965E+01  0.14042760392E+01  0.12521007918E+02  0.14139619692E+02  0.51100000000E-03 0. -1.
        -11    1    3    3    0    0 -0.76172337216E+01 -0.19421980166E+02  0.23571022631E+02  0.31477431141E+02  0.51100000000E-03 0.  1.
         12    1    3    3    0    0  0.79878296205E+01  0.17584252437E+02 -0.18644541087E+02  0.26844557515E+02  0.00000000000E+00 0. -1.
</event>
<event>
 7    1  0.3440346E-013  0.7246155E+02  0.7816164E-02  0.1226708E+00
        -11   -1    0    0    0    0  0.00000000000E+00  0.00000000000E+00  0.45593999997E+02  0.45594000000E+02  0.51100000000E-03 0. -1.
         11   -1    0    0    0    0 -0.00000000000E+00 -0.00000000000E+00 -0.45593999997E+02  0.45594000000E+02  0.51100000000E-03 0.  1.
    9900012    2    1    2    0    0  0.14233420584E+02  0.23880389223E+01  0.11932606662E+02  0.72461545632E+02  0.69999967873E+02 0.  0.
        -12    1    1    2    0    0 -0.14233420584E+02 -0.23880389223E+01 -0.11932606662E+02  0.18726454368E+02  0.00000000000E+00 0.  1.
         11    1    3    3    0    0  0.92220893874E+01  0.73393060563E+01  0.14678618324E+01  0.11877161474E+02  0.51100000000E-03 0. -1.
        -11    1    3    3    0    0 -0.77110003609E+01  0.23664455916E+02 -0.54159324752E+01  0.25471519884E+02  0.51100000000E-03 0.  1.
         12    1    3    3    0    0  0.12722331558E+02 -0.28615723050E+02  0.15880677305E+02  0.35112864275E+02  0.00000000000E+00 0. -1.
</event>
<event>
 7    1  0.3440346E-013  0.7246158E+02  0.7816164E-02  0.1226708E+00
        -11   -1    0    0    0    0  0.00000000000E+00  0.00000000000E+00  0.45593999997E+02  0.45594000000E+02  0.51100000000E-03 0.  1.
         11   -1    0    0    0    0 -0.00000000000E+00 -0.00000000000E+00 -0.45593999997E+02  0.45594000000E+02  0.51100000000E-03 0. -1.
    9900012    2    1    2    0    0 -0.10928510123E+02 -0.13565354330E+02 -0.68722354088E+01  0.72461580398E+02  0.70000013162E+02 0.  0.
        -12    1    1    2    0    0  0.10928510123E+02  0.13565354330E+02  0.68722354088E+01  0.18726419602E+02  0.00000000000E+00 0.  1.
         11    1    3    3    0    0 -0.97736255750E+01 -0.10148516155E+02  0.68729307209E+01  0.15676521106E+02  0.51100000000E-03 0. -1.
        -11    1    3    3    0    0  0.22967104481E+01  0.78145748843E+01  0.19709936362E+02  0.21326604305E+02  0.51100000000E-03 0.  1.
         12    1    3    3    0    0 -0.34515949958E+01 -0.11231413059E+02 -0.33455102492E+02  0.35458454987E+02  0.00000000000E+00 0. -1.
</event>
<event>
 7    1  0.3440346E-013  0.7246163E+02  0.7816164E-02  0.1226708E+00
        -11   -1    0    0    0    0  0.00000000000E+00  0.00000000000E+00  0.45593999997E+02  0.45594000000E+02  0.51100000000E-03 0. -1.
         11   -1    0    0    0    0 -0.00000000000E+00 -0.00000000000E+00 -0.45593999997E+02  0.45594000000E+02  0.51100000000E-03 0.  1.
    9900012    2    1    2    0    0 -0.12692703593E+02 -0.13751748334E+02  0.67938955947E+00  0.72461631508E+02  0.70000079742E+02 0.  0.
        -12    1    1    2    0    0  0.12692703593E+02  0.13751748334E+02 -0.67938955947E+00  0.18726368492E+02  0.00000000000E+00 0.  1.
         11    1    3    3    0    0  0.56663470974E+01 -0.33568608402E+01  0.13738163826E+02  0.15235260080E+02  0.51100000000E-03 0. -1.
        -11    1    3    3    0    0  0.13670975789E+02  0.59989917468E+01 -0.15038106159E+02  0.21190283578E+02  0.51100000000E-03 0.  1.
        -12    1    3    3    0    0 -0.32030026479E+02 -0.16393879241E+02  0.19793318928E+01  0.36036087850E+02  0.00000000000E+00 0.  1.
</event>
<event>
 7    1  0.3440346E-013  0.7246157E+02  0.7816164E-02  0.1226708E+00
        -11   -1    0    0    0    0  0.00000000000E+00  0.00000000000E+00  0.45593999997E+02  0.45594000000E+02  0.51100000000E-03 0. -1.
         11   -1    0    0    0    0 -0.00000000000E+00 -0.00000000000E+00 -0.45593999997E+02  0.45594000000E+02  0.51100000000E-03 0.  1.
    9900012    2    1    2    0    0  0.37590549322E+00  0.19963425170E+01  0.18615921347E+02  0.72461569054E+02  0.69999998384E+02 0.  0.
        -12    1    1    2    0    0 -0.37590549322E+00 -0.19963425170E+01 -0.18615921347E+02  0.18726430946E+02  0.00000000000E+00 0.  1.
         11    1    3    3    0    0 -0.24507840733E+02  0.12939438071E+02  0.17587224781E+02  0.32823372629E+02  0.51100000000E-03 0. -1.
        -11    1    3    3    0    0  0.55348172407E+01  0.98021206110E+01  0.30298739558E+00  0.11260886820E+02  0.51100000000E-03 0.  1.
        -12    1    3    3    0    0  0.19348928985E+02 -0.20745216165E+02  0.72570917032E+00  0.28377309605E+02  0.00000000000E+00 0.  1.
</event>
<event>
 7    1  0.3440346E-013  0.7246131E+02  0.7816164E-02  0.1226709E+00
        -11   -1    0    0    0    0  0.00000000000E+00  0.00000000000E+00  0.45593999997E+02  0.45594000000E+02  0.51100000000E-03 0.  1.
         11   -1    0    0    0    0 -0.00000000000E+00 -0.00000000000E+00 -0.45593999997E+02  0.45594000000E+02  0.51100000000E-03 0. -1.
    9900012    2    1    2    0    0  0.14540298235E+02 -0.10475794230E+02 -0.54338236694E+01  0.72461308430E+02  0.69999658872E+02 0.  0.
        -12    1    1    2    0    0 -0.14540298235E+02  0.10475794230E+02  0.54338236694E+01  0.18726691570E+02  0.00000000000E+00 0.  1.
         11    1    3    3    0    0 -0.45130572248E+01 -0.18741289558E+02 -0.10991282588E+02  0.22190356306E+02  0.51100000000E-03 0. -1.
        -11    1    3    3    0    0 -0.18658708154E+01 -0.52778934012E+01  0.20475130317E+02  0.21226601104E+02  0.51100000000E-03 0.  1.
         12    1    3    3    0    0  0.20919226275E+02  0.13543388730E+02 -0.14917671398E+02  0.29044351020E+02  0.00000000000E+00 0. -1.
</event>
<event>
 7    1  0.3440346E-013  0.7246164E+02  0.7816164E-02  0.1226708E+00
        -11   -1    0    0    0    0  0.00000000000E+00  0.00000000000E+00  0.45593999997E+02  0.45594000000E+02  0.51100000000E-03 0.  1.
         11   -1    0    0    0    0 -0.00000000000E+00 -0.00000000000E+00 -0.45593999997E+02  0.45594000000E+02  0.51100000000E-03 0. -1.
    9900012    2    1    2    0    0 -0.16675093470E+02 -0.50397448400E+01  0.68716055577E+01  0.72461635344E+02  0.70000084740E+02 0.  0.
        -12    1    1    2    0    0  0.16675093470E+02  0.50397448400E+01 -0.68716055577E+01  0.18726364656E+02  0.00000000000E+00 0.  1.
         11    1    3    3    0    0 -0.20587189066E+01 -0.25418221938E+02 -0.48722157878E+01  0.25962719753E+02  0.51100000000E-03 0. -1.
        -11    1    3    3    0    0  0.34109347955E+01 -0.92386198291E+01  0.54648731464E+01  0.11262833182E+02  0.51100000000E-03 0.  1.
        -12    1    3    3    0    0 -0.18027309359E+02  0.29617096927E+02  0.62789481991E+01  0.35236082409E+02  0.00000000000E+00 0.  1.
</event>
<event>
 7    1  0.3440346E-013  0.7246149E+02  0.7816164E-02  0.1226708E+00
        -11   -1    0    0    0    0  0.00000000000E+00  0.00000000000E+00  0.45593999997E+02  0.45594000000E+02  0.51100000000E-03 0. -1.
         11   -1    0    0    0    0 -0.00000000000E+00 -0.00000000000E+00 -0.45593999997E+02  0.45594000000E+02  0.51100000000E-03 0.  1.
    9900012    2    1    2    0    0  0.33176011736E+01 -0.18346436567E+02 -0.17561258473E+01  0.72461489640E+02  0.69999894933E+02 0.  0.
        -12    1    1    2    0    0 -0.33176011736E+01  0.18346436567E+02  0.17561258473E+01  0.18726510360E+02  0.00000000000E+00 0.  1.
         11    1    3    3    0    0 -0.43220537956E+00 -0.13779244916E+02 -0.76930614214E+01  0.15787260252E+02  0.51100000000E-03 0. -1.
        -11    1    3    3    0    0 -0.60259521064E+01  0.94396616591E+01  0.27191116950E+02  0.29407076568E+02  0.51100000000E-03 0.  1.
         12    1    3    3    0    0  0.97757586595E+01 -0.14006853310E+02 -0.21254181375E+02  0.27267152821E+02  0.00000000000E+00 0. -1.
</event>
<event>
 7    1  0.3440346E-013  0.7246154E+02  0.7816164E-02  0.1226708E+00
        -11   -1    0    0    0    0  0.00000000000E+00  0.00000000000E+00  0.45593999997E+02  0.45594000000E+02  0.51100000000E-03 0.  1.
         11   -1    0    0    0    0 -0.00000000000E+00 -0.00000000000E+00 -0.45593999997E+02  0.45594000000E+02  0.51100000000E-03 0. -1.
    9900012    2    1    2    0    0  0.27055083732E+01 -0.37222080038E+00 -0.18526248833E+02  0.72461542254E+02  0.69999963472E+02 0.  0.
        -12    1    1    2    0    0 -0.27055083732E+01  0.37222080038E+00  0.18526248833E+02  0.18726457746E+02  0.00000000000E+00 0.  1.
         11    1    3    3    0    0  0.63883774554E+01  0.13134510883E+02 -0.35344953979E+02  0.38243855907E+02  0.51100000000E-03 0. -1.
        -11    1    3    3    0    0  0.97180488787E+01 -0.55276804671E+01 -0.13536584639E+00  0.11180968184E+02  0.51100000000E-03 0.  1.
        -12    1    3    3    0    0 -0.13400917961E+02 -0.79790512165E+01  0.16954070992E+02  0.23036718163E+02  0.00000000000E+00 0.  1.
</event>
<event>
 7    1  0.3440346E-013  0.7246163E+02  0.7816164E-02  0.1226708E+00
        -11   -1    0    0    0    0  0.00000000000E+00  0.00000000000E+00  0.45593999997E+02  0.45594000000E+02  0.51100000000E-03 0.  1.
         11   -1    0    0    0    0 -0.00000000000E+00 -0.00000000000E+00 -0.45593999997E+02  0.45594000000E+02  0.51100000000E-03 0. -1.
    9900012    2    1    2    0    0  0.18714222527E+02  0.44790126922E+00  0.50415180894E+00  0.72461630640E+02  0.70000078612E+02 0.  0.
        -12    1    1    2    0    0 -0.18714222527E+02 -0.44790126922E+00 -0.50415180894E+00  0.18726369360E+02  0.00000000000E+00 0.  1.
         11    1    3    3    0    0 -0.10108673713E+02  0.14309975742E+02  0.19606168571E+00  0.17521390653E+02  0.51100000000E-03 0. -1.
        -11    1    3    3    0    0 -0.77575831785E+01 -0.16523202736E+02  0.55931311599E+00  0.18262233074E+02  0.51100000000E-03 0.  1.
         12    1    3    3    0    0  0.36580479419E+02  0.26611282640E+01 -0.25122299275E+00  0.36678006913E+02  0.00000000000E+00 0. -1.
</event>
<event>
 7    1  0.3440346E-013  0.7246157E+02  0.7816164E-02  0.1226708E+00
        -11   -1    0    0    0    0  0.00000000000E+00  0.00000000000E+00  0.45593999997E+02  0.45594000000E+02  0.51100000000E-03 0.  1.
         11   -1    0    0    0    0 -0.00000000000E+00 -0.00000000000E+00 -0.45593999997E+02  0.45594000000E+02  0.51100000000E-03 0. -1.
    9900012    2    1    2    0    0  0.56965551923E+01  0.17219587238E+02 -0.46598627662E+01  0.72461568233E+02  0.69999997315E+02 0.  0.
        -12    1    1    2    0    0 -0.56965551923E+01 -0.17219587238E+02  0.46598627662E+01  0.18726431767E+02  0.00000000000E+00 0.  1.
         11    1    3    3    0    0 -0.23961963744E+02  0.17850998904E+01  0.25181308787E+01  0.24159951810E+02  0.51100000000E-03 0. -1.
        -11    1    3    3    0    0  0.72124059916E+00  0.21962823763E+01  0.11279843473E+02  0.11514283013E+02  0.51100000000E-03 0.  1.
         12    1    3    3    0    0  0.28937278337E+02  0.13238204971E+02 -0.18457837117E+02  0.36787333411E+02  0.00000000000E+00 0. -1.
</event>
<event>
 7    1  0.3440346E-013  0.7246161E+02  0.7816164E-02  0.1226708E+00
        -11   -1    0    0    0    0  0.00000000000E+00  0.00000000000E+00  0.45593999997E+02  0.45594000000E+02  0.51100000000E-03 0.  1.
         11   -1    0    0    0    0 -0.00000000000E+00 -0.00000000000E+00 -0.45593999997E+02  0.45594000000E+02  0.51100000000E-03 0. -1.
    9900012    2    1    2    0    0 -0.11075565382E+02  0.50882170784E+01  0.14216871077E+02  0.72461614209E+02  0.70000057207E+02 0.  0.
        -12    1    1    2    0    0  0.11075565382E+02 -0.50882170784E+01 -0.14216871077E+02  0.18726385791E+02  0.00000000000E+00 0.  1.
         11    1    3    3    0    0 -0.22739132999E+02  0.24819351586E+02  0.19069273692E+02  0.38687279332E+02  0.51100000000E-03 0. -1.
        -11    1    3    3    0    0  0.22514198537E+01  0.52509391842E+01  0.22645142629E+01  0.61456715485E+01  0.51100000000E-03 0.  1.
        -12    1    3    3    0    0  0.94121477629E+01 -0.24982073692E+02 -0.71169168779E+01  0.27628663329E+02  0.00000000000E+00 0.  1.
</event>
<event>
 7    1  0.3440346E-013  0.7246156E+02  0.7816164E-02  0.1226708E+00
        -11   -1    0    0    0    0  0.00000000000E+00  0.00000000000E+00  0.45593999997E+02  0.45594000000E+02  0.51100000000E-03 0. -1.
         11   -1    0    0    0    0 -0.00000000000E+00 -0.00000000000E+00 -0.45593999997E+02  0.45594000000E+02  0.51100000000E-03 0.  1.
    9900012    2    1    2    0    0  0.23267447055E+01 -0.94434115969E+01  0.16002740893E+02  0.72461562015E+02  0.69999989214E+02 0.  0.
        -12    1    1    2    0    0 -0.23267447055E+01  0.94434115969E+01 -0.16002740893E+02  0.18726437985E+02  0.00000000000E+00 0.  1.
         11    1    3    3    0    0 -0.12742270456E+01 -0.51465191558E+01  0.18556169700E+02  0.19298749913E+02  0.51100000000E-03 0. -1.
        -11    1    3    3    0    0 -0.20872331206E+02  0.31441711640E+01  0.11437115415E+02  0.24007241231E+02  0.51100000000E-03 0.  1.
         12    1    3    3    0    0  0.24473302957E+02 -0.74410636051E+01 -0.13990544222E+02  0.29155570871E+02  0.00000000000E+00 0. -1.
</event>
<event>
 7    1  0.4428162E-013  0.7246164E+02  0.7816164E-02  0.1226708E+00
        -11   -1    0    0    0    0  0.00000000000E+00  0.00000000000E+00  0.45593999997E+02  0.45594000000E+02  0.51100000000E-03 0. -1.
         11   -1    0    0    0    0 -0.00000000000E+00 -0.00000000000E+00 -0.45593999997E+02  0.45594000000E+02  0.51100000000E-03 0.  1.
    9900012    2    1    2    0    0 -0.12698009207E+02  0.12689402363E+02  0.53306790842E+01  0.72461641314E+02  0.70000092516E+02 0.  0.
        -12    1    1    2    0    0  0.12698009207E+02 -0.12689402363E+02 -0.53306790842E+01  0.18726358686E+02  0.00000000000E+00 0.  1.
         11    1    3    3    0    0 -0.11514266601E+02 -0.67953368470E+00  0.31964117589E+02  0.33981537854E+02  0.51100000000E-03 0. -1.
        -11    1    3    3    0    0 -0.10516083700E+02  0.12908602747E+02 -0.10056810499E+02  0.19451464699E+02  0.51100000000E-03 0.  1.
        -12    1    3    3    0    0  0.93323410943E+01  0.46033330070E+00 -0.16576628007E+02  0.19028638761E+02  0.00000000000E+00 0.  1.
</event>
<event>
 7    1  0.3440346E-013  0.7246159E+02  0.7816164E-02  0.1226708E+00
        -11   -1    0    0    0    0  0.00000000000E+00  0.00000000000E+00  0.45593999997E+02  0.45594000000E+02  0.51100000000E-03 0. -1.
         11   -1    0    0    0    0 -0.00000000000E+00 -0.00000000000E+00 -0.45593999997E+02  0.45594000000E+02  0.51100000000E-03 0.  1.
    9900012    2    1    2    0    0 -0.15226385672E+02 -0.98767970231E+01 -0.46134971326E+01  0.72461593621E+02  0.70000030387E+02 0.  0.
        -12    1    1    2    0    0  0.15226385672E+02  0.98767970231E+01  0.46134971326E+01  0.18726406379E+02  0.00000000000E+00 0.  1.
         11    1    3    3    0    0  0.15337466775E+02  0.69228332308E+01  0.91036307781E+01  0.19132161420E+02  0.51100000000E-03 0. -1.
        -11    1    3    3    0    0 -0.23968433851E+02 -0.10797186869E+02 -0.26771107474E+02  0.37520091434E+02  0.51100000000E-03 0.  1.
         12    1    3    3    0    0 -0.65954185955E+01 -0.60024433849E+01  0.13053979563E+02  0.15809340767E+02  0.00000000000E+00 0. -1.
</event>
<event>
 7    1  0.3440346E-013  0.7246148E+02  0.7816164E-02  0.1226708E+00
        -11   -1    0    0    0    0  0.00000000000E+00  0.00000000000E+00  0.45593999997E+02  0.45594000000E+02  0.51100000000E-03 0.  1.
         11   -1    0    0    0    0 -0.00000000000E+00 -0.00000000000E+00 -0.45593999997E+02  0.45594000000E+02  0.51100000000E-03 0. -1.
    9900012    2    1    2    0    0 -0.65005227909E+01 -0.34631848661E+01 -0.17217199570E+02  0.72461483853E+02  0.69999887394E+02 0.  0.
        -12    1    1    2    0    0  0.65005227909E+01  0.34631848661E+01  0.17217199570E+02  0.18726516147E+02  0.00000000000E+00 0.  1.
         11    1    3    3    0    0 -0.60430559422E+01  0.40255431167E+01  0.11890668539E+02  0.13932391075E+02  0.51100000000E-03 0. -1.
        -11    1    3    3    0    0  0.20743763604E+02  0.18622200019E+01  0.62096874370E+00  0.20836439097E+02  0.51100000000E-03 0.  1.
         12    1    3    3    0    0 -0.21201230453E+02 -0.93509479847E+01 -0.29728836853E+02  0.37692653681E+02  0.00000000000E+00 0. -1.
</event>
<event>
 7    1  0.3440346E-013  0.7246156E+02  0.7816164E-02  0.1226708E+00
        -11   -1    0    0    0    0  0.00000000000E+00  0.00000000000E+00  0.45593999997E+02  0.45594000000E+02  0.51100000000E-03 0.  1.
         11   -1    0    0    0    0 -0.00000000000E+00 -0.00000000000E+00 -0.45593999997E+02  0.45594000000E+02  0.51100000000E-03 0. -1.
    9900012    2    1    2    0    0  0.10538618353E+02 -0.12446482956E+02 -0.92033729166E+01  0.72461561796E+02  0.69999988929E+02 0.  0.
        -12    1    1    2    0    0 -0.10538618353E+02  0.12446482956E+02  0.92033729166E+01  0.18726438204E+02  0.00000000000E+00 0.  1.
         11    1    3    3    0    0 -0.11522593690E+02  0.21708145436E+02  0.25119535804E+01  0.24704729399E+02  0.51100000000E-03 0. -1.
        -11    1    3    3    0    0  0.14728911479E+02 -0.23708955192E+02  0.32369346027E+01  0.28098632271E+02  0.51100000000E-03 0.  1.
        -12    1    3    3    0    0  0.73323005651E+01 -0.10445673200E+02 -0.14952261100E+02  0.19658200125E+02  0.00000000000E+00 0.  1.
</event>
<event>
 7    1  0.3440346E-013  0.7246155E+02  0.7816164E-02  0.1226708E+00
        -11   -1    0    0    0    0  0.00000000000E+00  0.00000000000E+00  0.45593999997E+02  0.45594000000E+02  0.51100000000E-03 0.  1.
         11   -1    0    0    0    0 -0.00000000000E+00 -0.00000000000E+00 -0.45593999997E+02  0.45594000000E+02  0.51100000000E-03 0. -1.
    9900012    2    1    2    0    0 -0.13399535215E+02  0.22260189204E+01 -0.12890981044E+02  0.72461545544E+02  0.69999967758E+02 0.  0.
        -12    1    1    2    0    0  0.13399535215E+02 -0.22260189204E+01  0.12890981044E+02  0.18726454456E+02  0.00000000000E+00 0.  1.
         11    1    3    3    0    0 -0.16058326490E+02  0.17198172403E+02 -0.27755266999E+01  0.23692837154E+02  0.51100000000E-03 0. -1.
        -11    1    3    3    0    0 -0.27239592797E+01 -0.11539742422E+02  0.17103329554E+02  0.20811282791E+02  0.51100000000E-03 0.  1.
         12    1    3    3    0    0  0.53827505552E+01 -0.34324110603E+01 -0.27218783898E+02  0.27957425599E+02  0.00000000000E+00 0. -1.
</event>
<event>
 7    1  0.3440346E-013  0.7246157E+02  0.7816164E-02  0.1226708E+00
        -11   -1    0    0    0    0  0.00000000000E+00  0.00000000000E+00  0.45593999997E+02  0.45594000000E+02  0.51100000000E-03 0.  1.
         11   -1    0    0    0    0 -0.00000000000E+00 -0.00000000000E+00 -0.45593999997E+02  0.45594000000E+02  0.51100000000E-03 0. -1.
    9900012    2    1    2    0    0 -0.16659188550E+02  0.62442851738E+01 -0.58446027898E+01  0.72461573693E+02  0.70000004427E+02 0.  0.
        -12    1    1    2    0    0  0.16659188550E+02 -0.62442851738E+01  0.58446027898E+01  0.18726426307E+02  0.00000000000E+00 0.  1.
         11    1    3    3    0    0 -0.18012770902E+01  0.19406521732E+02  0.17287079824E+01  0.19566453854E+02  0.51100000000E-03 0. -1.
        -11    1    3    3    0    0  0.11499655782E+02  0.11448454417E+02 -0.11610258633E+01  0.16268287340E+02  0.51100000000E-03 0.  1.
         12    1    3    3    0    0 -0.26357567242E+02 -0.24610690975E+02 -0.64122849088E+01  0.36626832499E+02  0.00000000000E+00 0. -1.
</event>
<event>
 7    1  0.3440346E-013  0.7246154E+02  0.7816164E-02  0.1226708E+00
        -11   -1    0    0    0    0  0.00000000000E+00  0.00000000000E+00  0.45593999997E+02  0.45594000000E+02  0.51100000000E-03 0.  1.
         11   -1    0    0    0    0 -0.00000000000E+00 -0.00000000000E+00 -0.45593999997E+02  0.45594000000E+02  0.51100000000E-03 0. -1.
    9900012    2    1    2    0    0  0.72932835782E+01 -0.98403189770E+01 -0.14165330004E+02  0.72461536451E+02  0.69999955913E+02 0.  0.
        -12    1    1    2    0    0 -0.72932835782E+01  0.98403189770E+01  0.14165330004E+02  0.18726463549E+02  0.00000000000E+00 0.  1.
         11    1    3    3    0    0  0.36001307356E+01 -0.93923022716E+01 -0.38040839113E+01  0.10753945227E+02  0.51100000000E-03 0. -1.
        -11    1    3    3    0    0  0.14299926613E+02 -0.91757722096E+01 -0.31910994720E+02  0.36152375870E+02  0.51100000000E-03 0.  1.
        -12    1    3    3    0    0 -0.10606773770E+02  0.87277555042E+01  0.21549748627E+02  0.25555215355E+02  0.00000000000E+00 0.  1.
</event>
<event>
 7    1  0.3440346E-013  0.7246159E+02  0.7816164E-02  0.1226708E+00
        -11   -1    0    0    0    0  0.00000000000E+00  0.00000000000E+00  0.45593999997E+02  0.45594000000E+02  0.51100000000E-03 0. -1.
         11   -1    0    0    0    0 -0.00000000000E+00 -0.00000000000E+00 -0.45593999997E+02  0.45594000000E+02  0.51100000000E-03 0.  1.
    9900012    2    1    2    0    0  0.14733179609E+01  0.46589471515E+01  0.18077670140E+02  0.72461585178E+02  0.70000019389E+02 0.  0.
        -12    1    1    2    0    0 -0.14733179609E+01 -0.46589471515E+01 -0.18077670140E+02  0.18726414822E+02  0.00000000000E+00 0.  1.
         11    1    3    3    0    0  0.12040526522E+02 -0.17470567409E+02  0.37866603783E+01  0.21553046225E+02  0.51100000000E-03 0. -1.
        -11    1    3    3    0    0 -0.96592222480E+01 -0.25915854657E+01  0.22679973404E+02  0.24787054757E+02  0.51100000000E-03 0.  1.
        -12    1    3    3    0    0 -0.90798631302E+00  0.24721100026E+02 -0.83889636415E+01  0.26121484196E+02  0.00000000000E+00 0.  1.
</event>
<event>
 7    1  0.3440346E-013  0.7246155E+02  0.7816164E-02  0.1226708E+00
        -11   -1    0    0    0    0  0.00000000000E+00  0.00000000000E+00  0.45593999997E+02  0.45594000000E+02  0.51100000000E-03 0. -1.
         11   -1    0    0    0    0 -0.00000000000E+00 -0.00000000000E+00 -0.45593999997E+02  0.45594000000E+02  0.51100000000E-03 0.  1.
    9900012    2    1    2    0    0  0.12853852625E+01 -0.18663904616E+02  0.82842087757E+00  0.72461552608E+02  0.69999976960E+02 0.  0.
        -12    1    1    2    0    0 -0.12853852625E+01  0.18663904616E+02 -0.82842087757E+00  0.18726447392E+02  0.00000000000E+00 0.  1.
         11    1    3    3    0    0 -0.13324592278E+02 -0.93755057258E+01  0.73621735311E+01  0.17878659523E+02  0.51100000000E-03 0. -1.
        -11    1    3    3    0    0 -0.13298246041E+02  0.12488065536E+02 -0.59181470168E+01  0.19178623333E+02  0.51100000000E-03 0.  1.
        -12    1    3    3    0    0  0.27908223581E+02 -0.21776464426E+02 -0.61560563678E+00  0.35404269751E+02  0.00000000000E+00 0.  1.
</event>
<event>
 7    1  0.3440346E-013  0.7246157E+02  0.7816164E-02  0.1226708E+00
        -11   -1    0    0    0    0  0.00000000000E+00  0.00000000000E+00  0.45593999997E+02  0.45594000000E+02  0.51100000000E-03 0. -1.
         11   -1    0    0    0    0 -0.00000000000E+00 -0.00000000000E+00 -0.45593999997E+02  0.45594000000E+02  0.51100000000E-03 0.  1.
    9900012    2    1    2    0    0  0.36750781506E+01  0.18914188095E+01  0.18264594639E+02  0.72461572635E+02  0.70000003049E+02 0.  0.
        -12    1    1    2    0    0 -0.36750781506E+01 -0.18914188095E+01 -0.18264594639E+02  0.18726427365E+02  0.00000000000E+00 0.  1.
         11    1    3    3    0    0  0.19156121376E+02  0.11869637805E+01 -0.14613454617E+02  0.24122995778E+02  0.51100000000E-03 0. -1.
        -11    1    3    3    0    0 -0.11224667422E+02  0.12099148641E+02  0.39686996659E+01  0.16974484790E+02  0.51100000000E-03 0.  1.
        -12    1    3    3    0    0 -0.42563758041E+01 -0.11394693612E+02  0.28909349590E+02  0.31364092067E+02  0.00000000000E+00 0.  1.
</event>
<event>
 7    1  0.3440346E-013  0.7246161E+02  0.7816164E-02  0.1226708E+00
        -11   -1    0    0    0    0  0.00000000000E+00  0.00000000000E+00  0.45593999997E+02  0.45594000000E+02  0.51100000000E-03 0. -1.
         11   -1    0    0    0    0 -0.00000000000E+00 -0.00000000000E+00 -0.45593999997E+02  0.45594000000E+02  0.51100000000E-03 0.  1.
    9900012    2    1    2    0    0 -0.40617642315E+01 -0.18092674712E+02 -0.26143581332E+01  0.72461610189E+02  0.70000051970E+02 0.  0.
        -12    1    1    2    0    0  0.40617642315E+01  0.18092674712E+02  0.26143581332E+01  0.18726389811E+02  0.00000000000E+00 0.  1.
         11    1    3    3    0    0 -0.68454044910E+01 -0.30053666544E+02  0.64055179044E+01  0.31481948721E+02  0.51100000000E-03 0. -1.
        -11    1    3    3    0    0 -0.16706800637E+02 -0.32030569097E-01 -0.66156719412E+01  0.17969010239E+02  0.51100000000E-03 0.  1.
        -12    1    3    3    0    0  0.19490440896E+02  0.11993022401E+02 -0.24042040963E+01  0.23010651229E+02  0.00000000000E+00 0.  1.
</event>
<event>
 7    1  0.3440346E-013  0.7246151E+02  0.7816164E-02  0.1226708E+00
        -11   -1    0    0    0    0  0.00000000000E+00  0.00000000000E+00  0.45593999997E+02  0.45594000000E+02  0.51100000000E-03 0. -1.
         11   -1    0    0    0    0 -0.00000000000E+00 -0.00000000000E+00 -0.45593999997E+02  0.45594000000E+02  0.51100000000E-03 0.  1.
    9900012    2    1    2    0    0  0.77966399612E+01  0.14449291187E+02 -0.90062082813E+01  0.72461510791E+02  0.69999922486E+02 0.  0.
        -12    1    1    2    0    0 -0.77966399612E+01 -0.14449291187E+02  0.90062082813E+01  0.18726489209E+02  0.00000000000E+00 0.  1.
         11    1    3    3    0    0 -0.17279750426E+01  0.31944962046E+02  0.14943563606E+01  0.32026545226E+02  0.51100000000E-03 0. -1.
        -11    1    3    3    0    0 -0.10590937155E+02  0.22779346987E+01 -0.32730995606E+01  0.11316806851E+02  0.51100000000E-03 0.  1.
        -12    1    3    3    0    0  0.20115552159E+02 -0.19773605558E+02 -0.72274650812E+01  0.29118158714E+02  0.00000000000E+00 0.  1.
</event>
<event>
 7    1  0.3440346E-013  0.7246158E+02  0.7816164E-02  0.1226708E+00
        -11   -1    0    0    0    0  0.00000000000E+00  0.00000000000E+00  0.45593999997E+02  0.45594000000E+02  0.51100000000E-03 0. -1.
         11   -1    0    0    0    0 -0.00000000000E+00 -0.00000000000E+00 -0.45593999997E+02  0.45594000000E+02  0.51100000000E-03 0.  1.
    9900012    2    1    2    0    0  0.10889134064E+02 -0.15223102326E+02  0.60228490836E+00  0.72461579301E+02  0.70000011732E+02 0.  0.
        -12    1    1    2    0    0 -0.10889134064E+02  0.15223102326E+02 -0.60228490836E+00  0.18726420699E+02  0.00000000000E+00 0.  1.
         11    1    3    3    0    0 -0.59838234122E+01 -0.14700777299E+01  0.80659978480E-01  0.61622867065E+01  0.51100000000E-03 0. -1.
        -11    1    3    3    0    0 -0.77496346136E+01 -0.22130552180E+02 -0.21806545888E+02  0.32020987185E+02  0.51100000000E-03 0.  1.
         12    1    3    3    0    0  0.24622592090E+02  0.83775275838E+01  0.22328170818E+02  0.34278305409E+02  0.00000000000E+00 0. -1.
</event>
<event>
 7    1  0.3440346E-013  0.7246158E+02  0.7816164E-02  0.1226708E+00
        -11   -1    0    0    0    0  0.00000000000E+00  0.00000000000E+00  0.45593999997E+02  0.45594000000E+02  0.51100000000E-03 0.  1.
         11   -1    0    0    0    0 -0.00000000000E+00 -0.00000000000E+00 -0.45593999997E+02  0.45594000000E+02  0.51100000000E-03 0. -1.
    9900012    2    1    2    0    0 -0.17522086789E+01  0.17944603211E+02  0.50596362056E+01  0.72461576471E+02  0.70000008046E+02 0.  0.
        -12    1    1    2    0    0  0.17522086789E+01 -0.17944603211E+02 -0.50596362056E+01  0.18726423529E+02  0.00000000000E+00 0.  1.
         11    1    3    3    0    0  0.16062613769E+02  0.56301288559E+01 -0.71358325558E+00  0.17035701141E+02  0.51100000000E-03 0. -1.
        -11    1    3    3    0    0  0.12341177331E+02 -0.39602501027E+01  0.15111972569E+02  0.19908790872E+02  0.51100000000E-03 0.  1.
        -12    1    3    3    0    0 -0.30155999779E+02  0.16274724458E+02 -0.93387531081E+01  0.35517084459E+02  0.00000000000E+00 0.  1.
</event>
<event>
 7    1  0.3440346E-013  0.7246154E+02  0.7816164E-02  0.1226708E+00
        -11   -1    0    0    0    0  0.00000000000E+00  0.00000000000E+00  0.45593999997E+02  0.45594000000E+02  0.51100000000E-03 0.  1.
         11   -1    0    0    0    0 -0.00000000000E+00 -0.00000000000E+00 -0.45593999997E+02  0.45594000000E+02  0.51100000000E-03 0. -1.
    9900012    2    1    2    0    0  0.80605171772E+01 -0.32995442024E+01 -0.16577738490E+02  0.72461538974E+02  0.69999959199E+02 0.  0.
        -12    1    1    2    0    0 -0.80605171772E+01  0.32995442024E+01  0.16577738490E+02  0.18726461026E+02  0.00000000000E+00 0.  1.
         11    1    3    3    0    0  0.22019296895E+02  0.12476550685E+02 -0.93485320901E+01  0.26979785122E+02  0.51100000000E-03 0. -1.
        -11    1    3    3    0    0 -0.68788289887E+01  0.12483561458E+02  0.30729131545E+01  0.14580822695E+02  0.51100000000E-03 0.  1.
        -12    1    3    3    0    0 -0.70799507288E+01 -0.28259656345E+02 -0.10302119555E+02  0.30900931157E+02  0.00000000000E+00 0.  1.
</event>
<event>
 7    1  0.3440346E-013  0.7246155E+02  0.7816164E-02  0.1226708E+00
        -11   -1    0    0    0    0  0.00000000000E+00  0.00000000000E+00  0.45593999997E+02  0.45594000000E+02  0.51100000000E-03 0.  1.
         11   -1    0    0    0    0 -0.00000000000E+00 -0.00000000000E+00 -0.45593999997E+02  0.45594000000E+02  0.51100000000E-03 0. -1.
    9900012    2    1    2    0    0 -0.46504877032E+01 -0.22135949998E+01 -0.18004246576E+02  0.72461549897E+02  0.69999973429E+02 0.  0.
        -12    1    1    2    0    0  0.46504877032E+01  0.22135949998E+01  0.18004246576E+02  0.18726450103E+02  0.00000000000E+00 0.  1.
         11    1    3    3    0    0  0.14245546463E+02  0.42776770058E+01 -0.12450070551E+02  0.19396864993E+02  0.51100000000E-03 0. -1.
        -11    1    3    3    0    0  0.41320349090E+01  0.18246503577E+02  0.56963806969E+00  0.18717187103E+02  0.51100000000E-03 0.  1.
        -12    1    3    3    0    0 -0.23028069075E+02 -0.24737775582E+02 -0.61238140946E+01  0.34347497800E+02  0.00000000000E+00 0.  1.
</event>
<event>
 7    1  0.3440346E-013  0.7246157E+02  0.7816164E-02  0.1226708E+00
        -11   -1    0    0    0    0  0.00000000000E+00  0.00000000000E+00  0.45593999997E+02  0.45594000000E+02  0.51100000000E-03 0.  1.
         11   -1    0    0    0    0 -0.00000000000E+00 -0.00000000000E+00 -0.45593999997E+02  0.45594000000E+02  0.51100000000E-03 0. -1.
    9900012    2    1    2    0    0  0.80634362896E+01 -0.12033905470E+02 -0.11867825644E+02  0.72461570250E+02  0.69999999943E+02 0.  0.
        -12    1    1    2    0    0 -0.80634362896E+01  0.12033905470E+02  0.11867825644E+02  0.18726429750E+02  0.00000000000E+00 0.  1.
         11    1    3    3    0    0  0.76435705282E+01  0.11182528590E+02 -0.70169057247E+01  0.15254837996E+02  0.51100000000E-03 0. -1.
        -11    1    3    3    0    0  0.16245776741E+02 -0.24928817874E+02  0.13704014659E+02  0.32759292431E+02  0.51100000000E-03 0.  1.
         12    1    3    3    0    0 -0.15825910980E+02  0.17123838148E+01 -0.18554934579E+02  0.24447439823E+02  0.00000000000E+00 0. -1.
</event>
<event>
 7    1  0.3440346E-013  0.7246147E+02  0.7816164E-02  0.1226708E+00
        -11   -1    0    0    0    0  0.00000000000E+00  0.00000000000E+00  0.45593999997E+02  0.45594000000E+02  0.51100000000E-03 0.  1.
         11   -1    0    0    0    0 -0.00000000000E+00 -0.00000000000E+00 -0.45593999997E+02  0.45594000000E+02  0.51100000000E-03 0. -1.
    9900012    2    1    2    0    0  0.28056048110E+01 -0.13893041187E+02 -0.12239079409E+02  0.72461465976E+02  0.69999864106E+02 0.  0.
        -12    1    1    2    0    0 -0.28056048110E+01  0.13893041187E+02  0.12239079409E+02  0.18726534024E+02  0.00000000000E+00 0.  1.
         11    1    3    3    0    0 -0.63086345111E+01 -0.85553306964E+01  0.18777282610E+01  0.10794369662E+02  0.51100000000E-03 0. -1.
        -11    1    3    3    0    0 -0.19025819904E+02 -0.19237014326E+02 -0.13588886758E+02  0.30277093433E+02  0.51100000000E-03 0.  1.
        -12    1    3    3    0    0  0.28140059226E+02  0.13899303836E+02 -0.52792091201E+00  0.31390002881E+02  0.00000000000E+00 0.  1.
</event>
<event>
 7    1  0.3440346E-013  0.7246159E+02  0.7816164E-02  0.1226708E+00
        -11   -1    0    0    0    0  0.00000000000E+00  0.00000000000E+00  0.45593999997E+02  0.45594000000E+02  0.51100000000E-03 0.  1.
         11   -1    0    0    0    0 -0.00000000000E+00 -0.00000000000E+00 -0.45593999997E+02  0.45594000000E+02  0.51100000000E-03 0. -1.
    9900012    2    1    2    0    0  0.30163641712E+00 -0.64553578897E+01 -0.17575999707E+02  0.72461590956E+02  0.70000026915E+02 0.  0.
        -12    1    1    2    0    0 -0.30163641712E+00  0.64553578897E+01  0.17575999707E+02  0.18726409044E+02  0.00000000000E+00 0.  1.
         11    1    3    3    0    0  0.19230911535E+02 -0.15960671502E+02 -0.31467745596E+02  0.40184449809E+02  0.51100000000E-03 0. -1.
        -11    1    3    3    0    0  0.14431775266E+01 -0.36892291690E+01 -0.60207339783E+00  0.40069521924E+01  0.51100000000E-03 0.  1.
        -12    1    3    3    0    0 -0.20372452645E+02  0.13194542781E+02  0.14493819288E+02  0.28270188954E+02  0.00000000000E+00 0.  1.
</event>
<event>
 7    1  0.3440346E-013  0.7246161E+02  0.7816164E-02  0.1226708E+00
        -11   -1    0    0    0    0  0.00000000000E+00  0.00000000000E+00  0.45593999997E+02  0.45594000000E+02  0.51100000000E-03 0.  1.
         11   -1    0    0    0    0 -0.00000000000E+00 -0.00000000000E+00 -0.45593999997E+02  0.45594000000E+02  0.51100000000E-03 0. -1.
    9900012    2    1    2    0    0 -0.97661669581E+01  0.55959720274E+00 -0.15968291601E+02  0.72461614798E+02  0.70000057974E+02 0.  0.
        -12    1    1    2    0    0  0.97661669581E+01 -0.55959720274E+00  0.15968291601E+02  0.18726385202E+02  0.00000000000E+00 0.  1.
         11    1    3    3    0    0 -0.99126550620E+01 -0.11024893179E+02 -0.61746174747E+01  0.16060351839E+02  0.51100000000E-03 0. -1.
        -11    1    3    3    0    0 -0.15810290158E+02 -0.14559271084E+02  0.54730551920E+01  0.22178637983E+02  0.51100000000E-03 0.  1.
        -12    1    3    3    0    0  0.15956778262E+02  0.26143761466E+02 -0.15266729319E+02  0.34222624975E+02  0.00000000000E+00 0.  1.
</event>
<event>
 7    1  0.3440346E-013  0.7246156E+02  0.7816164E-02  0.1226708E+00
        -11   -1    0    0    0    0  0.00000000000E+00  0.00000000000E+00  0.45593999997E+02  0.45594000000E+02  0.51100000000E-03 0. -1.
         11   -1    0    0    0    0 -0.00000000000E+00 -0.00000000000E+00 -0.45593999997E+02  0.45594000000E+02  0.51100000000E-03 0.  1.
    9900012    2    1    2    0    0 -0.62261701630E+01  0.17558971592E+02 -0.18965546160E+01  0.72461558862E+02  0.69999985107E+02 0.  0.
        -12    1    1    2    0    0  0.62261701630E+01 -0.17558971592E+02  0.18965546160E+01  0.18726441138E+02  0.00000000000E+00 0.  1.
         11    1    3    3    0    0 -0.10969426814E+01  0.29161546991E+02  0.48955287392E+01  0.29589952823E+02  0.51100000000E-03 0. -1.
        -11    1    3    3    0    0  0.17066133329E+02 -0.45227908624E+01 -0.83341167992E+01  0.19523474257E+02  0.51100000000E-03 0.  1.
        -12    1    3    3    0    0 -0.22195360810E+02 -0.70797845359E+01  0.15420334440E+01  0.23348131782E+02  0.00000000000E+00 0.  1.
</event>
<event>
 7    1  0.3440346E-013  0.7246158E+02  0.7816164E-02  0.1226708E+00
        -11   -1    0    0    0    0  0.00000000000E+00  0.00000000000E+00  0.45593999997E+02  0.45594000000E+02  0.51100000000E-03 0.  1.
         11   -1    0    0    0    0 -0.00000000000E+00 -0.00000000000E+00 -0.45593999997E+02  0.45594000000E+02  0.51100000000E-03 0. -1.
    9900012    2    1    2    0    0  0.21655255402E+01  0.15168187130E+02 -0.10766408108E+02  0.72461576283E+02  0.70000007801E+02 0.  0.
        -12    1    1    2    0    0 -0.21655255402E+01 -0.15168187130E+02  0.10766408108E+02  0.18726423717E+02  0.00000000000E+00 0.  1.
         11    1    3    3    0    0  0.18143614931E+02  0.23627401640E+02 -0.13090303268E+01  0.29818759727E+02  0.51100000000E-03 0. -1.
        -11    1    3    3    0    0 -0.14374220747E+02  0.11818497628E+02 -0.12001303734E+02  0.22143315015E+02  0.51100000000E-03 0.  1.
         12    1    3    3    0    0 -0.16038686437E+01 -0.20277712138E+02  0.25439259530E+01  0.20499501541E+02  0.00000000000E+00 0. -1.
</event>
<event>
 7    1  0.3440346E-013  0.7246157E+02  0.7816164E-02  0.1226708E+00
        -11   -1    0    0    0    0  0.00000000000E+00  0.00000000000E+00  0.45593999997E+02  0.45594000000E+02  0.51100000000E-03 0. -1.
         11   -1    0    0    0    0 -0.00000000000E+00 -0.00000000000E+00 -0.45593999997E+02  0.45594000000E+02  0.51100000000E-03 0.  1.
    9900012    2    1    2    0    0  0.59407820261E+01 -0.17184822820E+02  0.44797349136E+01  0.72461573450E+02  0.70000004110E+02 0.  0.
        -12    1    1    2    0    0 -0.59407820261E+01  0.17184822820E+02 -0.44797349136E+01  0.18726426550E+02  0.00000000000E+00 0.  1.
         11    1    3    3    0    0 -0.36139595638E+01 -0.91374140842E+01  0.20890513275E+02  0.23086069068E+02  0.51100000000E-03 0. -1.
        -11    1    3    3    0    0 -0.77363513809E+01 -0.20998218673E+02 -0.22130484933E+00  0.22379126351E+02  0.51100000000E-03 0.  1.
         12    1    3    3    0    0  0.17291092971E+02  0.12950809937E+02 -0.16189473512E+02  0.26996378030E+02  0.00000000000E+00 0. -1.
</event>
<event>
 7    1  0.3440346E-013  0.7246158E+02  0.7816164E-02  0.1226708E+00
        -11   -1    0    0    0    0  0.00000000000E+00  0.00000000000E+00  0.45593999997E+02  0.45594000000E+02  0.51100000000E-03 0.  1.
         11   -1    0    0    0    0 -0.00000000000E+00 -0.00000000000E+00 -0.45593999997E+02  0.45594000000E+02  0.51100000000E-03 0. -1.
    9900012    2    1    2    0    0 -0.15753219768E+02 -0.99082548322E+01 -0.20835902783E+01  0.72461580286E+02  0.70000013016E+02 0.  0.
        -12    1    1    2    0    0  0.15753219768E+02  0.99082548322E+01  0.20835902783E+01  0.18726419714E+02  0.00000000000E+00 0.  1.
         11    1    3    3    0    0 -0.76721297043E+01 -0.20754924305E+02 -0.99313201568E+01  0.24254063112E+02  0.51100000000E-03 0. -1.
        -11    1    3    3    0    0  0.12935429465E+02  0.34613101987E+01 -0.12291905146E+02  0.18176824148E+02  0.51100000000E-03 0.  1.
         12    1    3    3    0    0 -0.21016519528E+02  0.73853592743E+01  0.20139635024E+02  0.30030693026E+02  0.00000000000E+00 0. -1.
</event>
<event>
 7    1  0.3440346E-013  0.7246105E+02  0.7816164E-02  0.1226709E+00
        -11   -1    0    0    0    0  0.00000000000E+00  0.00000000000E+00  0.45593999997E+02  0.45594000000E+02  0.51100000000E-03 0. -1.
         11   -1    0    0    0    0 -0.00000000000E+00 -0.00000000000E+00 -0.45593999997E+02  0.45594000000E+02  0.51100000000E-03 0.  1.
    9900012    2    1    2    0    0 -0.13776320035E+02 -0.11394673300E+02  0.55743069637E+01  0.72461054935E+02  0.69999328646E+02 0.  0.
        -12    1    1    2    0    0  0.13776320035E+02  0.11394673300E+02 -0.55743069637E+01  0.18726945065E+02  0.00000000000E+00 0.  1.
         11    1    3    3    0    0  0.77071820457E+00  0.12169097582E+02  0.34472780472E+01  0.12671411472E+02  0.51100000000E-03 0.  1.
        -11    1    3    3    0    0  0.44524493752E+01 -0.29634241591E+02  0.17414298806E+02  0.34659347704E+02  0.51100000000E-03 0. -1.
         12    1    3    3    0    0 -0.18999487615E+02  0.60704707092E+01 -0.15287269889E+02  0.25130295759E+02  0.00000000000E+00 0. -1.
</event>
<event>
 7    1  0.3440346E-013  0.7246156E+02  0.7816164E-02  0.1226708E+00
        -11   -1    0    0    0    0  0.00000000000E+00  0.00000000000E+00  0.45593999997E+02  0.45594000000E+02  0.51100000000E-03 0. -1.
         11   -1    0    0    0    0 -0.00000000000E+00 -0.00000000000E+00 -0.45593999997E+02  0.45594000000E+02  0.51100000000E-03 0.  1.
    9900012    2    1    2    0    0  0.12472887874E+02 -0.13935104054E+02  0.95889093903E+00  0.72461560703E+02  0.69999987505E+02 0.  0.
        -12    1    1    2    0    0 -0.12472887874E+02  0.13935104054E+02 -0.95889093903E+00  0.18726439297E+02  0.00000000000E+00 0.  1.
         11    1    3    3    0    0 -0.12149333476E+02 -0.13114182898E+02 -0.22677902693E+02  0.28876900245E+02  0.51100000000E-03 0. -1.
        -11    1    3    3    0    0  0.55811809725E+01  0.96731669760E+01 -0.39869223106E+00  0.11174913698E+02  0.51100000000E-03 0.  1.
        -12    1    3    3    0    0  0.19041040377E+02 -0.10494088133E+02  0.24035485863E+02  0.32409746760E+02  0.00000000000E+00 0.  1.
</event>
<event>
 7    1  0.3440346E-013  0.7246158E+02  0.7816164E-02  0.1226708E+00
        -11   -1    0    0    0    0  0.00000000000E+00  0.00000000000E+00  0.45593999997E+02  0.45594000000E+02  0.51100000000E-03 0.  1.
         11   -1    0    0    0    0 -0.00000000000E+00 -0.00000000000E+00 -0.45593999997E+02  0.45594000000E+02  0.51100000000E-03 0. -1.
    9900012    2    1    2    0    0  0.66893461658E+01  0.17345178087E+02 -0.22530207434E+01  0.72461583966E+02  0.70000017810E+02 0.  0.
        -12    1    1    2    0    0 -0.66893461658E+01 -0.17345178087E+02  0.22530207434E+01  0.18726416034E+02  0.00000000000E+00 0.  1.
         11    1    3    3    0    0  0.56342953573E+01 -0.25778589838E+01  0.13644578937E+02  0.14985498849E+02  0.51100000000E-03 0. -1.
        -11    1    3    3    0    0  0.13132376451E+02 -0.13534214762E+02 -0.10238573918E+02  0.21458394082E+02  0.51100000000E-03 0.  1.
         12    1    3    3    0    0 -0.12077325642E+02  0.33457251833E+02 -0.56590257629E+01  0.36017691035E+02  0.00000000000E+00 0. -1.
</event>
<event>
 7    1  0.3440346E-013  0.7246160E+02  0.7816164E-02  0.1226708E+00
        -11   -1    0    0    0    0  0.00000000000E+00  0.00000000000E+00  0.45593999997E+02  0.45594000000E+02  0.51100000000E-03 0.  1.
         11   -1    0    0    0    0 -0.00000000000E+00 -0.00000000000E+00 -0.45593999997E+02  0.45594000000E+02  0.51100000000E-03 0. -1.
    9900012    2    1    2    0    0 -0.91724738247E+01 -0.98473924060E+01 -0.13022010070E+02  0.72461597262E+02  0.70000035130E+02 0.  0.
        -12    1    1    2    0    0  0.91724738247E+01  0.98473924060E+01  0.13022010070E+02  0.18726402738E+02  0.00000000000E+00 0.  1.
         11    1    3    3    0    0 -0.26611085897E+01  0.14167514558E+02  0.15819134459E+02  0.21401985491E+02  0.51100000000E-03 0.  1.
        -11    1    3    3    0    0 -0.90375592515E+01 -0.17376883712E+02  0.17407757545E+01  0.19663770373E+02  0.51100000000E-03 0. -1.
        -12    1    3    3    0    0  0.25261940164E+01 -0.66380232517E+01 -0.30581920283E+02  0.31395841398E+02  0.00000000000E+00 0.  1.
</event>
<event>
 7    1  0.3440346E-013  0.7246206E+02  0.7816164E-02  0.1226707E+00
        -11   -1    0    0    0    0  0.00000000000E+00  0.00000000000E+00  0.45593999997E+02  0.45594000000E+02  0.51100000000E-03 0. -1.
         11   -1    0    0    0    0 -0.00000000000E+00 -0.00000000000E+00 -0.45593999997E+02  0.45594000000E+02  0.51100000000E-03 0.  1.
    9900012    2    1    2    0    0  0.18259381045E+02 -0.37503577855E+01  0.17862093440E+01  0.72462062814E+02  0.70000641595E+02 0.  0.
        -12    1    1    2    0    0 -0.18259381045E+02  0.37503577855E+01 -0.17862093440E+01  0.18725937186E+02  0.00000000000E+00 0.  1.
         11    1    3    3    0    0  0.17493772294E+02 -0.44731371230E+01  0.16900696326E+02  0.24732055341E+02  0.51100000000E-03 0. -1.
        -11    1    3    3    0    0  0.22142907755E+02 -0.13451301023E+01 -0.13585588203E+01  0.22225287876E+02  0.51100000000E-03 0.  1.
        -12    1    3    3    0    0 -0.21377299004E+02  0.20679094398E+01 -0.13755928162E+02  0.25504719597E+02  0.00000000000E+00 0.  1.
</event>
<event>
 7    1  0.3440346E-013  0.7246160E+02  0.7816164E-02  0.1226708E+00
        -11   -1    0    0    0    0  0.00000000000E+00  0.00000000000E+00  0.45593999997E+02  0.45594000000E+02  0.51100000000E-03 0.  1.
         11   -1    0    0    0    0 -0.00000000000E+00 -0.00000000000E+00 -0.45593999997E+02  0.45594000000E+02  0.51100000000E-03 0. -1.
    9900012    2    1    2    0    0 -0.11713686045E+02 -0.13845941047E+01 -0.14544781217E+02  0.72461596121E+02  0.70000033644E+02 0.  0.
        -12    1    1    2    0    0  0.11713686045E+02  0.13845941047E+01  0.14544781217E+02  0.18726403879E+02  0.00000000000E+00 0.  1.
         11    1    3    3    0    0  0.71294959308E+01 -0.38898911095E+01 -0.29729107307E+02  0.30818513699E+02  0.51100000000E-03 0. -1.
        -11    1    3    3    0    0 -0.13761012500E+01 -0.14125156070E+02  0.25604223988E+01  0.14421145993E+02  0.51100000000E-03 0.  1.
        -12    1    3    3    0    0 -0.17467080725E+02  0.16630453074E+02  0.12623903692E+02  0.27221936429E+02  0.00000000000E+00 0.  1.
</event>
<event>
 7    1  0.3440346E-013  0.7246159E+02  0.7816164E-02  0.1226708E+00
        -11   -1    0    0    0    0  0.00000000000E+00  0.00000000000E+00  0.45593999997E+02  0.45594000000E+02  0.51100000000E-03 0.  1.
         11   -1    0    0    0    0 -0.00000000000E+00 -0.00000000000E+00 -0.45593999997E+02  0.45594000000E+02  0.51100000000E-03 0. -1.
    9900012    2    1    2    0    0 -0.17533911696E+01 -0.12575473668E+02 -0.13764495252E+02  0.72461594896E+02  0.70000032048E+02 0.  0.
        -12    1    1    2    0    0  0.17533911696E+01  0.12575473668E+02  0.13764495252E+02  0.18726405104E+02  0.00000000000E+00 0.  1.
         11    1    3    3    0    0 -0.37854054520E+01 -0.99139079117E+01 -0.18431252625E+02  0.21267955663E+02  0.51100000000E-03 0. -1.
        -11    1    3    3    0    0  0.13983119211E+02  0.15238165987E+02 -0.12054925972E+02  0.23938474596E+02  0.51100000000E-03 0.  1.
        -12    1    3    3    0    0 -0.11951104929E+02 -0.17899731743E+02  0.16721683345E+02  0.27255164637E+02  0.00000000000E+00 0.  1.
</event>
<event>
 7    1  0.3440346E-013  0.7246151E+02  0.7816164E-02  0.1226708E+00
        -11   -1    0    0    0    0  0.00000000000E+00  0.00000000000E+00  0.45593999997E+02  0.45594000000E+02  0.51100000000E-03 0.  1.
         11   -1    0    0    0    0 -0.00000000000E+00 -0.00000000000E+00 -0.45593999997E+02  0.45594000000E+02  0.51100000000E-03 0. -1.
    9900012    2    1    2    0    0 -0.71398114168E+01  0.14868760001E+02  0.88670365877E+01  0.72461514241E+02  0.69999926980E+02 0.  0.
        -12    1    1    2    0    0  0.71398114168E+01 -0.14868760001E+02 -0.88670365877E+01  0.18726485759E+02  0.00000000000E+00 0.  1.
         11    1    3    3    0    0  0.69915117218E+01  0.21232253290E+01 -0.18704353789E+02  0.20080890739E+02  0.51100000000E-03 0. -1.
        -11    1    3    3    0    0 -0.61039396878E+01  0.23820042763E+01 -0.10354312703E+02  0.12253318567E+02  0.51100000000E-03 0.  1.
        -12    1    3    3    0    0 -0.80273834508E+01  0.10363530396E+02  0.37925703079E+02  0.40127304935E+02  0.00000000000E+00 0.  1.
</event>
<event>
 7    1  0.3440346E-013  0.7246164E+02  0.7816164E-02  0.1226708E+00
        -11   -1    0    0    0    0  0.00000000000E+00  0.00000000000E+00  0.45593999997E+02  0.45594000000E+02  0.51100000000E-03 0.  1.
         11   -1    0    0    0    0 -0.00000000000E+00 -0.00000000000E+00 -0.45593999997E+02  0.45594000000E+02  0.51100000000E-03 0. -1.
    9900012    2    1    2    0    0 -0.43340874740E+00  0.97651531125E+01 -0.15972806919E+02  0.72461638385E+02  0.70000088701E+02 0.  0.
        -12    1    1    2    0    0  0.43340874740E+00 -0.97651531125E+01  0.15972806919E+02  0.18726361615E+02  0.00000000000E+00 0.  1.
         11    1    3    3    0    0 -0.19194731619E+02  0.22416042377E+02 -0.26751078320E+01  0.29632294545E+02  0.51100000000E-03 0. -1.
        -11    1    3    3    0    0  0.15933359525E+01  0.19642926843E+01  0.10055292230E+02  0.10368513264E+02  0.51100000000E-03 0.  1.
        -12    1    3    3    0    0  0.17167986919E+02 -0.14615181949E+02 -0.23352991317E+02  0.32460830577E+02  0.00000000000E+00 0.  1.
</event>
<event>
 7    1  0.3440346E-013  0.7246160E+02  0.7816164E-02  0.1226708E+00
        -11   -1    0    0    0    0  0.00000000000E+00  0.00000000000E+00  0.45593999997E+02  0.45594000000E+02  0.51100000000E-03 0.  1.
         11   -1    0    0    0    0 -0.00000000000E+00 -0.00000000000E+00 -0.45593999997E+02  0.45594000000E+02  0.51100000000E-03 0. -1.
    9900012    2    1    2    0    0  0.55053605237E+01 -0.13110885109E+02 -0.12184976738E+02  0.72461602564E+02  0.70000042037E+02 0.  0.
        -12    1    1    2    0    0 -0.55053605237E+01  0.13110885109E+02  0.12184976738E+02  0.18726397436E+02  0.00000000000E+00 0.  1.
         11    1    3    3    0    0  0.14497862655E+02 -0.15730153295E+02 -0.12390858002E+02  0.24721632360E+02  0.51100000000E-03 0. -1.
        -11    1    3    3    0    0  0.17499195184E+02 -0.18188859730E+01 -0.84518319581E+01  0.19518289935E+02  0.51100000000E-03 0.  1.
        -12    1    3    3    0    0 -0.26491697316E+02  0.44381541587E+01  0.86577132223E+01  0.28221680270E+02  0.00000000000E+00 0.  1.
</event>
<event>
 7    1  0.3440346E-013  0.7246159E+02  0.7816164E-02  0.1226708E+00
        -11   -1    0    0    0    0  0.00000000000E+00  0.00000000000E+00  0.45593999997E+02  0.45594000000E+02  0.51100000000E-03 0.  1.
         11   -1    0    0    0    0 -0.00000000000E+00 -0.00000000000E+00 -0.45593999997E+02  0.45594000000E+02  0.51100000000E-03 0. -1.
    9900012    2    1    2    0    0  0.58420459562E+01 -0.10399679522E+02 -0.14435912662E+02  0.72461590587E+02  0.70000026435E+02 0.  0.
        -12    1    1    2    0    0 -0.58420459562E+01  0.10399679522E+02  0.14435912662E+02  0.18726409413E+02  0.00000000000E+00 0.  1.
         11    1    3    3    0    0 -0.58216469727E+00  0.10686729079E+02  0.54489776063E+01  0.12009848099E+02  0.51100000000E-03 0. -1.
        -11    1    3    3    0    0 -0.83161995987E+01 -0.21186008006E+01  0.15480051336E+02  0.17699707194E+02  0.51100000000E-03 0.  1.
        -12    1    3    3    0    0  0.14740410252E+02 -0.18967807800E+02 -0.35364941604E+02  0.42752035295E+02  0.00000000000E+00 0.  1.
</event>
<event>
 7    1  0.3440346E-013  0.7246154E+02  0.7816164E-02  0.1226708E+00
        -11   -1    0    0    0    0  0.00000000000E+00  0.00000000000E+00  0.45593999997E+02  0.45594000000E+02  0.51100000000E-03 0.  1.
         11   -1    0    0    0    0 -0.00000000000E+00 -0.00000000000E+00 -0.45593999997E+02  0.45594000000E+02  0.51100000000E-03 0. -1.
    9900012    2    1    2    0    0  0.93799126218E+01  0.82726343598E+01 -0.13937755175E+02  0.72461541195E+02  0.69999962093E+02 0.  0.
        -12    1    1    2    0    0 -0.93799126218E+01 -0.82726343598E+01  0.13937755175E+02  0.18726458805E+02  0.00000000000E+00 0.  1.
         11    1    3    3    0    0 -0.25116154463E+02 -0.44170675436E+00 -0.11503262458E+02  0.27628633106E+02  0.51100000000E-03 0. -1.
        -11    1    3    3    0    0 -0.12689162925E+01  0.45539535611E+01 -0.70957127857E+01  0.85262994196E+01  0.51100000000E-03 0.  1.
        -12    1    3    3    0    0  0.35764983377E+02  0.41603875531E+01  0.46612200684E+01  0.36306608670E+02  0.00000000000E+00 0.  1.
</event>
<event>
 7    1  0.3440346E-013  0.7246174E+02  0.7816164E-02  0.1226708E+00
        -11   -1    0    0    0    0  0.00000000000E+00  0.00000000000E+00  0.45593999997E+02  0.45594000000E+02  0.51100000000E-03 0. -1.
         11   -1    0    0    0    0 -0.00000000000E+00 -0.00000000000E+00 -0.45593999997E+02  0.45594000000E+02  0.51100000000E-03 0.  1.
    9900012    2    1    2    0    0  0.87083386943E+01  0.12560001170E+02 -0.10820531582E+02  0.72461743142E+02  0.70000225165E+02 0.  0.
        -12    1    1    2    0    0 -0.87083386943E+01 -0.12560001170E+02  0.10820531582E+02  0.18726256858E+02  0.00000000000E+00 0.  1.
         11    1    3    3    0    0 -0.49143601614E+01 -0.50550411960E+00  0.12279195353E+02  0.13235751168E+02  0.51100000000E-03 0. -1.
        -11    1    3    3    0    0 -0.13727757095E+02  0.19662855605E+02 -0.20112811673E+01  0.24065004832E+02  0.51100000000E-03 0.  1.
         12    1    3    3    0    0  0.27350455951E+02 -0.65973503145E+01 -0.21088445767E+02  0.35160987141E+02  0.00000000000E+00 0. -1.
</event>
<event>
 7    1  0.3440346E-013  0.7246156E+02  0.7816164E-02  0.1226708E+00
        -11   -1    0    0    0    0  0.00000000000E+00  0.00000000000E+00  0.45593999997E+02  0.45594000000E+02  0.51100000000E-03 0.  1.
         11   -1    0    0    0    0 -0.00000000000E+00 -0.00000000000E+00 -0.45593999997E+02  0.45594000000E+02  0.51100000000E-03 0. -1.
    9900012    2    1    2    0    0 -0.20001036815E+01 -0.61499801669E+01 -0.17574329867E+02  0.72461555034E+02  0.69999980120E+02 0.  0.
        -12    1    1    2    0    0  0.20001036815E+01  0.61499801669E+01  0.17574329867E+02  0.18726444966E+02  0.00000000000E+00 0.  1.
         11    1    3    3    0    0  0.69361349323E+01  0.21437007745E+02 -0.26940640942E+02  0.35120555284E+02  0.51100000000E-03 0. -1.
        -11    1    3    3    0    0 -0.12493240360E+02 -0.83358080909E+01 -0.12498073211E+01  0.15070791944E+02  0.51100000000E-03 0.  1.
        -12    1    3    3    0    0  0.35570017459E+01 -0.19251179821E+02  0.10616118396E+02  0.22270207806E+02  0.00000000000E+00 0.  1.
</event>
<event>
 7    1  0.3440346E-013  0.7246151E+02  0.7816164E-02  0.1226708E+00
        -11   -1    0    0    0    0  0.00000000000E+00  0.00000000000E+00  0.45593999997E+02  0.45594000000E+02  0.51100000000E-03 0.  1.
         11   -1    0    0    0    0 -0.00000000000E+00 -0.00000000000E+00 -0.45593999997E+02  0.45594000000E+02  0.51100000000E-03 0. -1.
    9900012    2    1    2    0    0 -0.81959471313E+01 -0.11730295383E+02 -0.12079233944E+02  0.72461514162E+02  0.69999926878E+02 0.  0.
        -12    1    1    2    0    0  0.81959471313E+01  0.11730295383E+02  0.12079233944E+02  0.18726485838E+02  0.00000000000E+00 0.  1.
         11    1    3    3    0    0  0.42572421805E+01 -0.22169593484E+02 -0.16283034995E+02  0.27834371111E+02  0.51100000000E-03 0. -1.
        -11    1    3    3    0    0  0.14016619949E+02  0.32126967515E+01 -0.56821049007E+01  0.15461997658E+02  0.51100000000E-03 0.  1.
        -12    1    3    3    0    0 -0.26469809260E+02  0.72266013494E+01  0.98859059518E+01  0.29165145394E+02  0.00000000000E+00 0.  1.
</event>
<event>
 7    1  0.3440346E-013  0.7246168E+02  0.7816164E-02  0.1226708E+00
        -11   -1    0    0    0    0  0.00000000000E+00  0.00000000000E+00  0.45593999997E+02  0.45594000000E+02  0.51100000000E-03 0. -1.
         11   -1    0    0    0    0 -0.00000000000E+00 -0.00000000000E+00 -0.45593999997E+02  0.45594000000E+02  0.51100000000E-03 0.  1.
    9900012    2    1    2    0    0 -0.16955628446E+02 -0.79333511365E+01 -0.49366210359E+00  0.72461678991E+02  0.70000141597E+02 0.  0.
        -12    1    1    2    0    0  0.16955628446E+02  0.79333511365E+01  0.49366210359E+00  0.18726321009E+02  0.00000000000E+00 0.  1.
         11    1    3    3    0    0 -0.19115442460E+02 -0.16176112340E+02 -0.55991611546E+01  0.25659644518E+02  0.51100000000E-03 0. -1.
        -11    1    3    3    0    0 -0.10614175534E+02 -0.90233650745E+01 -0.12739731879E+02  0.18878098637E+02  0.51100000000E-03 0.  1.
         12    1    3    3    0    0  0.12773989548E+02  0.17266126278E+02  0.17845230930E+02  0.27923935836E+02  0.00000000000E+00 0. -1.
</event>
<event>
 7    1  0.3440346E-013  0.7246154E+02  0.7816164E-02  0.1226708E+00
        -11   -1    0    0    0    0  0.00000000000E+00  0.00000000000E+00  0.45593999997E+02  0.45594000000E+02  0.51100000000E-03 0.  1.
         11   -1    0    0    0    0 -0.00000000000E+00 -0.00000000000E+00 -0.45593999997E+02  0.45594000000E+02  0.51100000000E-03 0. -1.
    9900012    2    1    2    0    0 -0.13378485921E+02 -0.12276305836E+02 -0.45813558924E+01  0.72461537645E+02  0.69999957468E+02 0.  0.
        -12    1    1    2    0    0  0.13378485921E+02  0.12276305836E+02  0.45813558924E+01  0.18726462355E+02  0.00000000000E+00 0.  1.
         11    1    3    3    0    0  0.75878887189E+01 -0.74359377800E+01 -0.86249543742E+01  0.13684263374E+02  0.51100000000E-03 0. -1.
        -11    1    3    3    0    0 -0.68637854281E+01  0.17582320069E+02 -0.16645804635E+02  0.25166095081E+02  0.51100000000E-03 0.  1.
        -12    1    3    3    0    0 -0.14102589212E+02 -0.22422688125E+02  0.20689403116E+02  0.33611179190E+02  0.00000000000E+00 0.  1.
</event>
<event>
 7    1  0.3440346E-013  0.7246159E+02  0.7816164E-02  0.1226708E+00
        -11   -1    0    0    0    0  0.00000000000E+00  0.00000000000E+00  0.45593999997E+02  0.45594000000E+02  0.51100000000E-03 0.  1.
         11   -1    0    0    0    0 -0.00000000000E+00 -0.00000000000E+00 -0.45593999997E+02  0.45594000000E+02  0.51100000000E-03 0. -1.
    9900012    2    1    2    0    0 -0.16236675449E+01 -0.18625255890E+02 -0.10685482844E+01  0.72461594880E+02  0.70000032027E+02 0.  0.
        -12    1    1    2    0    0  0.16236675449E+01  0.18625255890E+02  0.10685482844E+01  0.18726405120E+02  0.00000000000E+00 0.  1.
         11    1    3    3    0    0  0.48699112565E+01  0.49976633384E+01 -0.68120446115E+01  0.97517499219E+01  0.51100000000E-03 0. -1.
        -11    1    3    3    0    0  0.86933785028E+01  0.16982986305E+02  0.11317039167E+01  0.19112231886E+02  0.51100000000E-03 0.  1.
         12    1    3    3    0    0 -0.15186957304E+02 -0.40605905534E+02  0.46117924104E+01  0.43597613073E+02  0.00000000000E+00 0. -1.
</event>
<event>
 7    1  0.3440346E-013  0.7246156E+02  0.7816164E-02  0.1226708E+00
        -11   -1    0    0    0    0  0.00000000000E+00  0.00000000000E+00  0.45593999997E+02  0.45594000000E+02  0.51100000000E-03 0.  1.
         11   -1    0    0    0    0 -0.00000000000E+00 -0.00000000000E+00 -0.45593999997E+02  0.45594000000E+02  0.51100000000E-03 0. -1.
    9900012    2    1    2    0    0 -0.17365249052E+02  0.61776930153E+01  0.33111865047E+01  0.72461555551E+02  0.69999980794E+02 0.  0.
        -12    1    1    2    0    0  0.17365249052E+02 -0.61776930153E+01 -0.33111865047E+01  0.18726444449E+02  0.00000000000E+00 0.  1.
         11    1    3    3    0    0 -0.15645783700E+02  0.14752397931E+02  0.14356425305E+02  0.25855961403E+02  0.51100000000E-03 0. -1.
        -11    1    3    3    0    0 -0.16294179892E+02 -0.44459150761E+01  0.10781226013E+02  0.20037497195E+02  0.51100000000E-03 0.  1.
         12    1    3    3    0    0  0.14574714540E+02 -0.41287898392E+01 -0.21826464813E+02  0.26568096953E+02  0.00000000000E+00 0. -1.
</event>
<event>
 7    1  0.3440346E-013  0.7246157E+02  0.7816164E-02  0.1226708E+00
        -11   -1    0    0    0    0  0.00000000000E+00  0.00000000000E+00  0.45593999997E+02  0.45594000000E+02  0.51100000000E-03 0. -1.
         11   -1    0    0    0    0 -0.00000000000E+00 -0.00000000000E+00 -0.45593999997E+02  0.45594000000E+02  0.51100000000E-03 0.  1.
    9900012    2    1    2    0    0  0.13803655246E+02  0.12223731621E+02 -0.32739567411E+01  0.72461566661E+02  0.69999995266E+02 0.  0.
        -12    1    1    2    0    0 -0.13803655246E+02 -0.12223731621E+02  0.32739567411E+01  0.18726433339E+02  0.00000000000E+00 0.  1.
         11    1    3    3    0    0  0.19074526675E+02 -0.18368774003E+01  0.17748587632E+01  0.19244786576E+02  0.51100000000E-03 0. -1.
        -11    1    3    3    0    0  0.14550208706E+02 -0.12284764839E+02 -0.67507989561E+01  0.20203893371E+02  0.51100000000E-03 0.  1.
         12    1    3    3    0    0 -0.19821080135E+02  0.26345373859E+02  0.17019834518E+01  0.33012886714E+02  0.00000000000E+00 0. -1.
</event>
<event>
 7    1  0.3440346E-013  0.7246145E+02  0.7816164E-02  0.1226708E+00
        -11   -1    0    0    0    0  0.00000000000E+00  0.00000000000E+00  0.45593999997E+02  0.45594000000E+02  0.51100000000E-03 0.  1.
         11   -1    0    0    0    0 -0.00000000000E+00 -0.00000000000E+00 -0.45593999997E+02  0.45594000000E+02  0.51100000000E-03 0. -1.
    9900012    2    1    2    0    0 -0.15728681591E+02 -0.54432941589E+01 -0.85826946367E+01  0.72461454052E+02  0.69999848573E+02 0.  0.
        -12    1    1    2    0    0  0.15728681591E+02  0.54432941589E+01  0.85826946367E+01  0.18726545948E+02  0.00000000000E+00 0.  1.
         11    1    3    3    0    0 -0.88905105083E+01  0.11801040662E+02  0.21162279414E+02  0.25809839365E+02  0.51100000000E-03 0. -1.
        -11    1    3    3    0    0 -0.62014457732E+01 -0.11285317752E+02  0.31160185560E+01  0.13248618734E+02  0.51100000000E-03 0.  1.
         12    1    3    3    0    0 -0.63672530969E+00 -0.59590170682E+01 -0.32860992607E+02  0.33402995953E+02  0.00000000000E+00 0. -1.
</event>
<event>
 7    1  0.3440346E-013  0.7246156E+02  0.7816164E-02  0.1226708E+00
        -11   -1    0    0    0    0  0.00000000000E+00  0.00000000000E+00  0.45593999997E+02  0.45594000000E+02  0.51100000000E-03 0.  1.
         11   -1    0    0    0    0 -0.00000000000E+00 -0.00000000000E+00 -0.45593999997E+02  0.45594000000E+02  0.51100000000E-03 0. -1.
    9900012    2    1    2    0    0  0.43141633758E+01 -0.52429506346E+01 -0.17452188449E+02  0.72461563642E+02  0.69999991334E+02 0.  0.
        -12    1    1    2    0    0 -0.43141633758E+01  0.52429506346E+01  0.17452188449E+02  0.18726436358E+02  0.00000000000E+00 0.  1.
         11    1    3    3    0    0  0.14151074247E+02 -0.24197725648E+02  0.29754044943E+01  0.28189286282E+02  0.51100000000E-03 0. -1.
        -11    1    3    3    0    0 -0.57311985211E+01 -0.89844609580E+01 -0.84391248745E+01  0.13593601587E+02  0.51100000000E-03 0.  1.
        -12    1    3    3    0    0 -0.41057123502E+01  0.27939235972E+02 -0.11988468069E+02  0.30678675774E+02  0.00000000000E+00 0.  1.
</event>
<event>
 7    1  0.3440346E-013  0.7246158E+02  0.7816164E-02  0.1226708E+00
        -11   -1    0    0    0    0  0.00000000000E+00  0.00000000000E+00  0.45593999997E+02  0.45594000000E+02  0.51100000000E-03 0.  1.
         11   -1    0    0    0    0 -0.00000000000E+00 -0.00000000000E+00 -0.45593999997E+02  0.45594000000E+02  0.51100000000E-03 0. -1.
    9900012    2    1    2    0    0  0.11180338973E+01  0.14303421545E+02 -0.12034988123E+02  0.72461579978E+02  0.70000012615E+02 0.  0.
        -12    1    1    2    0    0 -0.11180338973E+01 -0.14303421545E+02  0.12034988123E+02  0.18726420022E+02  0.00000000000E+00 0.  1.
         11    1    3    3    0    0 -0.27088009487E+02  0.46180813225E+01 -0.20316784342E+02  0.34173947084E+02  0.51100000000E-03 0. -1.
        -11    1    3    3    0    0 -0.82033315528E+00  0.44627535770E+01 -0.42742196029E+01  0.62336241024E+01  0.51100000000E-03 0.  1.
        -12    1    3    3    0    0  0.29026376540E+02  0.52225866459E+01  0.12556015822E+02  0.32054008792E+02  0.00000000000E+00 0.  1.
</event>
<event>
 7    1  0.3440346E-013  0.7246142E+02  0.7816164E-02  0.1226708E+00
        -11   -1    0    0    0    0  0.00000000000E+00  0.00000000000E+00  0.45593999997E+02  0.45594000000E+02  0.51100000000E-03 0.  1.
         11   -1    0    0    0    0 -0.00000000000E+00 -0.00000000000E+00 -0.45593999997E+02  0.45594000000E+02  0.51100000000E-03 0. -1.
    9900012    2    1    2    0    0  0.86880868447E+01  0.50316053437E+01 -0.15807746430E+02  0.72461421227E+02  0.69999805812E+02 0.  0.
        -12    1    1    2    0    0 -0.86880868447E+01 -0.50316053437E+01  0.15807746430E+02  0.18726578773E+02  0.00000000000E+00 0.  1.
         11    1    3    3    0    0 -0.30879224306E+01 -0.12384539128E+02 -0.11251187924E+02  0.17014737856E+02  0.51100000000E-03 0. -1.
        -11    1    3    3    0    0  0.16690222278E+02 -0.15012649994E+02 -0.12976942905E+01  0.22486155524E+02  0.51100000000E-03 0.  1.
        -12    1    3    3    0    0 -0.49142130029E+01  0.32428794465E+02 -0.32588642150E+01  0.32960527846E+02  0.00000000000E+00 0.  1.
</event>
<event>
 7    1  0.3440346E-013  0.7246158E+02  0.7816164E-02  0.1226708E+00
        -11   -1    0    0    0    0  0.00000000000E+00  0.00000000000E+00  0.45593999997E+02  0.45594000000E+02  0.51100000000E-03 0.  1.
         11   -1    0    0    0    0 -0.00000000000E+00 -0.00000000000E+00 -0.45593999997E+02  0.45594000000E+02  0.51100000000E-03 0. -1.
    9900012    2    1    2    0    0  0.18376132476E+02 -0.31922319318E+01  0.16752307348E+01  0.72461575154E+02  0.70000006331E+02 0.  0.
        -12    1    1    2    0    0 -0.18376132476E+02  0.31922319318E+01 -0.16752307348E+01  0.18726424846E+02  0.00000000000E+00 0.  1.
         11    1    3    3    0    0  0.20518470461E+02  0.16737072529E+02 -0.37063322873E+01  0.26737130104E+02  0.51100000000E-03 0. -1.
        -11    1    3    3    0    0  0.11542117731E+01 -0.62217685892E+01 -0.17633480909E+02  0.18734520502E+02  0.51100000000E-03 0.  1.
        -12    1    3    3    0    0 -0.32965497578E+01 -0.13707535871E+02  0.23015043931E+02  0.26989924549E+02  0.00000000000E+00 0.  1.
</event>
<event>
 7    1  0.3440346E-013  0.7246154E+02  0.7816164E-02  0.1226708E+00
        -11   -1    0    0    0    0  0.00000000000E+00  0.00000000000E+00  0.45593999997E+02  0.45594000000E+02  0.51100000000E-03 0.  1.
         11   -1    0    0    0    0 -0.00000000000E+00 -0.00000000000E+00 -0.45593999997E+02  0.45594000000E+02  0.51100000000E-03 0. -1.
    9900012    2    1    2    0    0  0.13449754234E+02 -0.26091313119E+00 -0.13027515469E+02  0.72461544812E+02  0.69999966804E+02 0.  0.
        -12    1    1    2    0    0 -0.13449754234E+02  0.26091313119E+00  0.13027515469E+02  0.18726455188E+02  0.00000000000E+00 0.  1.
         11    1    3    3    0    0  0.51016429042E+01 -0.72801573293E+01  0.12569187394E+02  0.15395191556E+02  0.51100000000E-03 0. -1.
        -11    1    3    3    0    0 -0.97176675776E+01 -0.17802331678E+02 -0.11003725178E+02  0.23074619051E+02  0.51100000000E-03 0.  1.
         12    1    3    3    0    0  0.18065778908E+02  0.24821575876E+02 -0.14592977685E+02  0.33991734204E+02  0.00000000000E+00 0. -1.
</event>
<event>
 7    1  0.3440346E-013  0.7246178E+02  0.7816164E-02  0.1226707E+00
        -11   -1    0    0    0    0  0.00000000000E+00  0.00000000000E+00  0.45593999997E+02  0.45594000000E+02  0.51100000000E-03 0. -1.
         11   -1    0    0    0    0 -0.00000000000E+00 -0.00000000000E+00 -0.45593999997E+02  0.45594000000E+02  0.51100000000E-03 0.  1.
    9900012    2    1    2    0    0 -0.41437111706E+01 -0.31362500147E+01  0.17990693199E+02  0.72461776456E+02  0.70000268564E+02 0.  0.
        -12    1    1    2    0    0  0.41437111706E+01  0.31362500147E+01 -0.17990693199E+02  0.18726223544E+02  0.00000000000E+00 0.  1.
         11    1    3    3    0    0 -0.61272614104E+01  0.13213376561E+01 -0.70653927674E+01  0.94450537749E+01  0.51100000000E-03 0. -1.
        -11    1    3    3    0    0 -0.27631824574E+02 -0.13018899999E+01  0.84876530302E+01  0.28935322723E+02  0.51100000000E-03 0.  1.
         12    1    3    3    0    0  0.29615374814E+02 -0.31556976710E+01  0.16568432937E+02  0.34081399958E+02  0.00000000000E+00 0. -1.
</event>
<event>
 7    1  0.3440346E-013  0.7246154E+02  0.7816164E-02  0.1226708E+00
        -11   -1    0    0    0    0  0.00000000000E+00  0.00000000000E+00  0.45593999997E+02  0.45594000000E+02  0.51100000000E-03 0. -1.
         11   -1    0    0    0    0 -0.00000000000E+00 -0.00000000000E+00 -0.45593999997E+02  0.45594000000E+02  0.51100000000E-03 0.  1.
    9900012    2    1    2    0    0 -0.16466184150E+02  0.56055633795E+01  0.69370627068E+01  0.72461537433E+02  0.69999957192E+02 0.  0.
        -12    1    1    2    0    0  0.16466184150E+02 -0.56055633795E+01 -0.69370627068E+01  0.18726462567E+02  0.00000000000E+00 0.  1.
         11    1    3    3    0    0 -0.30780174203E+01 -0.11421384558E+02  0.22880856987E+02  0.25757636405E+02  0.51100000000E-03 0. -1.
        -11    1    3    3    0    0  0.67412212838E+01 -0.87071718071E+01 -0.20510524650E+01  0.11201148234E+02  0.51100000000E-03 0.  1.
         12    1    3    3    0    0 -0.20129388014E+02  0.25734119744E+02 -0.13892741815E+02  0.35502752794E+02  0.00000000000E+00 0. -1.
</event>
<event>
 7    1  0.3440346E-013  0.7246155E+02  0.7816164E-02  0.1226708E+00
        -11   -1    0    0    0    0  0.00000000000E+00  0.00000000000E+00  0.45593999997E+02  0.45594000000E+02  0.51100000000E-03 0. -1.
         11   -1    0    0    0    0 -0.00000000000E+00 -0.00000000000E+00 -0.45593999997E+02  0.45594000000E+02  0.51100000000E-03 0.  1.
    9900012    2    1    2    0    0  0.10946537577E+02 -0.23420108684E+01  0.15012266328E+02  0.72461552389E+02  0.69999976674E+02 0.  0.
        -12    1    1    2    0    0 -0.10946537577E+02  0.23420108684E+01 -0.15012266328E+02  0.18726447611E+02  0.00000000000E+00 0.  1.
         11    1    3    3    0    0 -0.61259340213E+00  0.13746848063E+01  0.24632100227E+02  0.24678034582E+02  0.51100000000E-03 0. -1.
        -11    1    3    3    0    0  0.98160298038E+01  0.13292175520E+02  0.11852659300E+02  0.20335237985E+02  0.51100000000E-03 0.  1.
        -12    1    3    3    0    0  0.17431011755E+01 -0.17008871194E+02 -0.21472493198E+02  0.27448279822E+02  0.00000000000E+00 0.  1.
</event>
<event>
 7    1  0.3440346E-013  0.7246159E+02  0.7816164E-02  0.1226708E+00
        -11   -1    0    0    0    0  0.00000000000E+00  0.00000000000E+00  0.45593999997E+02  0.45594000000E+02  0.51100000000E-03 0. -1.
         11   -1    0    0    0    0 -0.00000000000E+00 -0.00000000000E+00 -0.45593999997E+02  0.45594000000E+02  0.51100000000E-03 0.  1.
    9900012    2    1    2    0    0 -0.16654429944E+02 -0.65926170818E+01  0.54631438555E+01  0.72461586100E+02  0.70000020590E+02 0.  0.
        -12    1    1    2    0    0  0.16654429944E+02  0.65926170818E+01 -0.54631438555E+01  0.18726413900E+02  0.00000000000E+00 0.  1.
         11    1    3    3    0    0 -0.27705561007E+02  0.38440002107E+01  0.14108300007E+02  0.31327600893E+02  0.51100000000E-03 0. -1.
        -11    1    3    3    0    0 -0.67071020828E+01 -0.11927980397E+01 -0.17845132235E+02  0.19101223266E+02  0.51100000000E-03 0.  1.
         12    1    3    3    0    0  0.17758233145E+02 -0.92438192528E+01  0.91999760836E+01  0.22032761941E+02  0.00000000000E+00 0. -1.
</event>
<event>
 7    1  0.3440346E-013  0.7246158E+02  0.7816164E-02  0.1226708E+00
        -11   -1    0    0    0    0  0.00000000000E+00  0.00000000000E+00  0.45593999997E+02  0.45594000000E+02  0.51100000000E-03 0. -1.
         11   -1    0    0    0    0 -0.00000000000E+00 -0.00000000000E+00 -0.45593999997E+02  0.45594000000E+02  0.51100000000E-03 0.  1.
    9900012    2    1    2    0    0 -0.30370076155E+01 -0.10760527275E+02  0.15022200542E+02  0.72461578248E+02  0.70000010362E+02 0.  0.
        -12    1    1    2    0    0  0.30370076155E+01  0.10760527275E+02 -0.15022200542E+02  0.18726421752E+02  0.00000000000E+00 0.  1.
         11    1    3    3    0    0 -0.17457000384E+02  0.13392631555E+02  0.30715361580E+01  0.22215845178E+02  0.51100000000E-03 0. -1.
        -11    1    3    3    0    0  0.54215246832E+00 -0.26216268702E+02 -0.65491286472E+01  0.27027352077E+02  0.51100000000E-03 0.  1.
        -12    1    3    3    0    0  0.13877840300E+02  0.20631098726E+01  0.18499793032E+02  0.23218380993E+02  0.00000000000E+00 0.  1.
</event>
<event>
 7    1  0.3440346E-013  0.7246157E+02  0.7816164E-02  0.1226708E+00
        -11   -1    0    0    0    0  0.00000000000E+00  0.00000000000E+00  0.45593999997E+02  0.45594000000E+02  0.51100000000E-03 0.  1.
         11   -1    0    0    0    0 -0.00000000000E+00 -0.00000000000E+00 -0.45593999997E+02  0.45594000000E+02  0.51100000000E-03 0. -1.
    9900012    2    1    2    0    0  0.14087031802E+02  0.91523627658E+01 -0.82746086682E+01  0.72461565267E+02  0.69999993451E+02 0.  0.
        -12    1    1    2    0    0 -0.14087031802E+02 -0.91523627658E+01  0.82746086682E+01  0.18726434733E+02  0.00000000000E+00 0.  1.
         11    1    3    3    0    0  0.25554272947E+01 -0.12169853351E+02  0.19158274795E-01  0.12435268656E+02  0.51100000000E-03 0. -1.
        -11    1    3    3    0    0 -0.11569992441E+02  0.28098999878E+01  0.17226594174E+02  0.20940769091E+02  0.51100000000E-03 0.  1.
        -12    1    3    3    0    0  0.23101596949E+02  0.18512316129E+02 -0.25520361117E+02  0.39085527521E+02  0.00000000000E+00 0.  1.
</event>
<event>
 7    1  0.3440346E-013  0.7246152E+02  0.7816164E-02  0.1226708E+00
        -11   -1    0    0    0    0  0.00000000000E+00  0.00000000000E+00  0.45593999997E+02  0.45594000000E+02  0.51100000000E-03 0.  1.
         11   -1    0    0    0    0 -0.00000000000E+00 -0.00000000000E+00 -0.45593999997E+02  0.45594000000E+02  0.51100000000E-03 0. -1.
    9900012    2    1    2    0    0  0.14151017359E+02  0.12137981737E+02  0.17604167250E+01  0.72461522489E+02  0.69999937724E+02 0.  0.
        -12    1    1    2    0    0 -0.14151017359E+02 -0.12137981737E+02 -0.17604167250E+01  0.18726477511E+02  0.00000000000E+00 0.  1.
         11    1    3    3    0    0  0.49379199488E+01 -0.36931877219E+01  0.92634471959E+01  0.11128079043E+02  0.51100000000E-03 0. -1.
        -11    1    3    3    0    0  0.18460154624E+01  0.23843087746E+02  0.20367930489E+02  0.31412628018E+02  0.51100000000E-03 0.  1.
        -12    1    3    3    0    0  0.73670819481E+01 -0.80119182871E+01 -0.27870960959E+02  0.29920815428E+02  0.00000000000E+00 0.  1.
</event>
<event>
 7    1  0.3440346E-013  0.7246172E+02  0.7816164E-02  0.1226708E+00
        -11   -1    0    0    0    0  0.00000000000E+00  0.00000000000E+00  0.45593999997E+02  0.45594000000E+02  0.51100000000E-03 0. -1.
         11   -1    0    0    0    0 -0.00000000000E+00 -0.00000000000E+00 -0.45593999997E+02  0.45594000000E+02  0.51100000000E-03 0.  1.
    9900012    2    1    2    0    0 -0.17270512302E+01  0.18022538809E+02  0.47832093588E+01  0.72461716256E+02  0.70000190142E+02 0.  0.
        -12    1    1    2    0    0  0.17270512302E+01 -0.18022538809E+02 -0.47832093588E+01  0.18726283744E+02  0.00000000000E+00 0.  1.
         11    1    3    3    0    0 -0.14328945352E+02  0.26558943428E+02 -0.14087891934E+02  0.33304126626E+02  0.51100000000E-03 0. -1.
        -11    1    3    3    0    0  0.15451893963E+01  0.27415665464E+01 -0.76600413510E+01  0.82813061264E+01  0.51100000000E-03 0.  1.
        -12    1    3    3    0    0  0.11056704726E+02 -0.11277971165E+02  0.26531142644E+02  0.30876283504E+02  0.00000000000E+00 0.  1.
</event>
<event>
 7    1  0.3440346E-013  0.7246148E+02  0.7816164E-02  0.1226708E+00
        -11   -1    0    0    0    0  0.00000000000E+00  0.00000000000E+00  0.45593999997E+02  0.45594000000E+02  0.51100000000E-03 0. -1.
         11   -1    0    0    0    0 -0.00000000000E+00 -0.00000000000E+00 -0.45593999997E+02  0.45594000000E+02  0.51100000000E-03 0.  1.
    9900012    2    1    2    0    0 -0.16769438342E+02  0.73912096028E+01  0.38520872129E+01  0.72461478230E+02  0.69999880069E+02 0.  0.
        -12    1    1    2    0    0  0.16769438342E+02 -0.73912096028E+01 -0.38520872129E+01  0.18726521770E+02  0.00000000000E+00 0.  1.
         11    1    3    3    0    0 -0.28726256401E+01  0.95589054773E+01  0.30139758405E+02  0.31749483287E+02  0.51100000000E-03 0. -1.
        -11    1    3    3    0    0 -0.29598521049E+01 -0.45992798902E+01  0.50422502238E+01  0.74389775892E+01  0.51100000000E-03 0.  1.
        -12    1    3    3    0    0 -0.10936960597E+02  0.24315840157E+01 -0.31329921416E+02  0.33273017354E+02  0.00000000000E+00 0.  1.
</event>
<event>
 7    1  0.3440346E-013  0.7246156E+02  0.7816164E-02  0.1226708E+00
        -11   -1    0    0    0    0  0.00000000000E+00  0.00000000000E+00  0.45593999997E+02  0.45594000000E+02  0.51100000000E-03 0.  1.
         11   -1    0    0    0    0 -0.00000000000E+00 -0.00000000000E+00 -0.45593999997E+02  0.45594000000E+02  0.51100000000E-03 0. -1.
    9900012    2    1    2    0    0  0.43174751362E+01  0.65264521881E+01 -0.17013062314E+02  0.72461562564E+02  0.69999989930E+02 0.  0.
        -12    1    1    2    0    0 -0.43174751362E+01 -0.65264521881E+01  0.17013062314E+02  0.18726437436E+02  0.00000000000E+00 0.  1.
         11    1    3    3    0    0  0.29518564363E+01  0.23853855843E+01 -0.14509263022E+02  0.14997407593E+02  0.51100000000E-03 0. -1.
        -11    1    3    3    0    0  0.94190544813E+01  0.22620969211E+02 -0.19326753893E+02  0.31208176039E+02  0.51100000000E-03 0.  1.
        -12    1    3    3    0    0 -0.80534357814E+01 -0.18479902607E+02  0.16822954600E+02  0.26255978933E+02  0.00000000000E+00 0.  1.
</event>
<event>
 7    1  0.3440346E-013  0.7246156E+02  0.7816164E-02  0.1226708E+00
        -11   -1    0    0    0    0  0.00000000000E+00  0.00000000000E+00  0.45593999997E+02  0.45594000000E+02  0.51100000000E-03 0.  1.
         11   -1    0    0    0    0 -0.00000000000E+00 -0.00000000000E+00 -0.45593999997E+02  0.45594000000E+02  0.51100000000E-03 0. -1.
    9900012    2    1    2    0    0  0.61851557596E+01 -0.14653830859E+02 -0.98837528759E+01  0.72461561964E+02  0.69999989148E+02 0.  0.
        -12    1    1    2    0    0 -0.61851557596E+01  0.14653830859E+02  0.98837528759E+01  0.18726438036E+02  0.00000000000E+00 0.  1.
         11    1    3    3    0    0  0.17566332006E+02 -0.14399986710E+02  0.18130409607E+02  0.29062818001E+02  0.51100000000E-03 0. -1.
        -11    1    3    3    0    0  0.74128985643E+01  0.31562092802E+01  0.15464558807E+01  0.82039166377E+01  0.51100000000E-03 0.  1.
         12    1    3    3    0    0 -0.18794074810E+02 -0.34100534296E+01 -0.29560618364E+02  0.35194827325E+02  0.00000000000E+00 0. -1.
</event>
<event>
 7    1  0.3440346E-013  0.7246189E+02  0.7816164E-02  0.1226707E+00
        -11   -1    0    0    0    0  0.00000000000E+00  0.00000000000E+00  0.45593999997E+02  0.45594000000E+02  0.51100000000E-03 0.  1.
         11   -1    0    0    0    0 -0.00000000000E+00 -0.00000000000E+00 -0.45593999997E+02  0.45594000000E+02  0.51100000000E-03 0. -1.
    9900012    2    1    2    0    0 -0.11381967051E+02 -0.40222073296E+01  0.14315726803E+02  0.72461885624E+02  0.70000410774E+02 0.  0.
        -12    1    1    2    0    0  0.11381967051E+02  0.40222073296E+01 -0.14315726803E+02  0.18726114376E+02  0.00000000000E+00 0.  1.
         11    1    3    3    0    0  0.19471334633E+01  0.83311116618E+00  0.17052024938E+02  0.17183042736E+02  0.51100000000E-03 0. -1.
        -11    1    3    3    0    0 -0.15002391608E+02 -0.14301155053E+01  0.23963428149E+02  0.28308353417E+02  0.51100000000E-03 0.  1.
         12    1    3    3    0    0  0.16732910935E+01 -0.34252029905E+01 -0.26699726284E+02  0.26970489470E+02  0.00000000000E+00 0. -1.
</event>
<event>
 7    1  0.3440346E-013  0.7246156E+02  0.7816164E-02  0.1226708E+00
        -11   -1    0    0    0    0  0.00000000000E+00  0.00000000000E+00  0.45593999997E+02  0.45594000000E+02  0.51100000000E-03 0. -1.
         11   -1    0    0    0    0 -0.00000000000E+00 -0.00000000000E+00 -0.45593999997E+02  0.45594000000E+02  0.51100000000E-03 0.  1.
    9900012    2    1    2    0    0 -0.77783809750E+01  0.16921427798E+02  0.19599927062E+01  0.72461561451E+02  0.69999988480E+02 0.  0.
        -12    1    1    2    0    0  0.77783809750E+01 -0.16921427798E+02 -0.19599927062E+01  0.18726438549E+02  0.00000000000E+00 0.  1.
         11    1    3    3    0    0  0.10652243154E+02  0.14360192579E+02 -0.51531662421E+01  0.18607539808E+02  0.51100000000E-03 0. -1.
        -11    1    3    3    0    0  0.11890660010E+02  0.68027640371E+01  0.16859670786E+02  0.21723579201E+02  0.51100000000E-03 0.  1.
        -12    1    3    3    0    0 -0.30321284139E+02 -0.42415288187E+01 -0.97465118380E+01  0.32130442442E+02  0.00000000000E+00 0.  1.
</event>
<event>
 7    1  0.3440346E-013  0.7246158E+02  0.7816164E-02  0.1226708E+00
        -11   -1    0    0    0    0  0.00000000000E+00  0.00000000000E+00  0.45593999997E+02  0.45594000000E+02  0.51100000000E-03 0.  1.
         11   -1    0    0    0    0 -0.00000000000E+00 -0.00000000000E+00 -0.45593999997E+02  0.45594000000E+02  0.51100000000E-03 0. -1.
    9900012    2    1    2    0    0 -0.11650964156E+02 -0.66262293707E+01 -0.13077733246E+02  0.72461575134E+02  0.70000006304E+02 0.  0.
        -12    1    1    2    0    0  0.11650964156E+02  0.66262293707E+01  0.13077733246E+02  0.18726424866E+02  0.00000000000E+00 0.  1.
         11    1    3    3    0    0  0.40498352546E+01 -0.86774284760E+01 -0.50846478958E+01  0.10842166528E+02  0.51100000000E-03 0. -1.
        -11    1    3    3    0    0 -0.58212337890E+01 -0.28441015024E+02 -0.31088319295E+01  0.29196625399E+02  0.51100000000E-03 0.  1.
         12    1    3    3    0    0 -0.98795656213E+01  0.30492214130E+02 -0.48842534206E+01  0.32422783207E+02  0.00000000000E+00 0. -1.
</event>
<event>
 7    1  0.3440346E-013  0.7246146E+02  0.7816164E-02  0.1226708E+00
        -11   -1    0    0    0    0  0.00000000000E+00  0.00000000000E+00  0.45593999997E+02  0.45594000000E+02  0.51100000000E-03 0.  1.
         11   -1    0    0    0    0 -0.00000000000E+00 -0.00000000000E+00 -0.45593999997E+02  0.45594000000E+02  0.51100000000E-03 0. -1.
    9900012    2    1    2    0    0  0.87948058301E+01 -0.14890505136E+02 -0.71838327512E+01  0.72461462525E+02  0.69999859610E+02 0.  0.
        -12    1    1    2    0    0 -0.87948058301E+01  0.14890505136E+02  0.71838327512E+01  0.18726537475E+02  0.00000000000E+00 0.  1.
         11    1    3    3    0    0  0.79727878628E+01 -0.93866670497E+01 -0.49588926986E+01  0.13276501108E+02  0.51100000000E-03 0. -1.
        -11    1    3    3    0    0  0.19929111577E+01 -0.17234214763E+02  0.24473885236E+02  0.29999348530E+02  0.51100000000E-03 0.  1.
         12    1    3    3    0    0 -0.11708931903E+01  0.11730376677E+02 -0.26698825289E+02  0.29185612888E+02  0.00000000000E+00 0. -1.
</event>
<event>
 7    1  0.3440346E-013  0.7246155E+02  0.7816164E-02  0.1226708E+00
        -11   -1    0    0    0    0  0.00000000000E+00  0.00000000000E+00  0.45593999997E+02  0.45594000000E+02  0.51100000000E-03 0. -1.
         11   -1    0    0    0    0 -0.00000000000E+00 -0.00000000000E+00 -0.45593999997E+02  0.45594000000E+02  0.51100000000E-03 0.  1.
    9900012    2    1    2    0    0  0.12731334454E+01  0.14294731649E+02  0.12029952768E+02  0.72461548513E+02  0.69999971626E+02 0.  0.
        -12    1    1    2    0    0 -0.12731334454E+01 -0.14294731649E+02 -0.12029952768E+02  0.18726451487E+02  0.00000000000E+00 0.  1.
         11    1    3    3    0    0  0.85051507402E+01 -0.67605905205E+01 -0.11288802956E+02  0.15667809219E+02  0.51100000000E-03 0. -1.
        -11    1    3    3    0    0  0.13894400654E+02  0.20359455104E+02 -0.87803234678E+00  0.24664401933E+02  0.51100000000E-03 0.  1.
         12    1    3    3    0    0 -0.21126417949E+02  0.69586706585E+00  0.24196788070E+02  0.32129337361E+02  0.00000000000E+00 0. -1.
</event>
<event>
 7    1  0.3440346E-013  0.7246161E+02  0.7816164E-02  0.1226708E+00
        -11   -1    0    0    0    0  0.00000000000E+00  0.00000000000E+00  0.45593999997E+02  0.45594000000E+02  0.51100000000E-03 0.  1.
         11   -1    0    0    0    0 -0.00000000000E+00 -0.00000000000E+00 -0.45593999997E+02  0.45594000000E+02  0.51100000000E-03 0. -1.
    9900012    2    1    2    0    0  0.13318118648E+02  0.51626964358E+01  0.12109998480E+02  0.72461607342E+02  0.70000048261E+02 0.  0.
        -12    1    1    2    0    0 -0.13318118648E+02 -0.51626964358E+01 -0.12109998480E+02  0.18726392658E+02  0.00000000000E+00 0.  1.
         11    1    3    3    0    0  0.11667730084E+02  0.31644822652E+00  0.26627280667E+01  0.11971891489E+02  0.51100000000E-03 0. -1.
        -11    1    3    3    0    0  0.19092432370E+02  0.17942320948E+02  0.22955745810E+02  0.34834094229E+02  0.51100000000E-03 0.  1.
         12    1    3    3    0    0 -0.17442043807E+02 -0.13096072739E+02 -0.13508475397E+02  0.25655621624E+02  0.00000000000E+00 0. -1.
</event>
<event>
 7    1  0.3440346E-013  0.7246160E+02  0.7816164E-02  0.1226708E+00
        -11   -1    0    0    0    0  0.00000000000E+00  0.00000000000E+00  0.45593999997E+02  0.45594000000E+02  0.51100000000E-03 0.  1.
         11   -1    0    0    0    0 -0.00000000000E+00 -0.00000000000E+00 -0.45593999997E+02  0.45594000000E+02  0.51100000000E-03 0. -1.
    9900012    2    1    2    0    0  0.52198645698E+01 -0.18343373057E+01 -0.17890400619E+02  0.72461595812E+02  0.70000033242E+02 0.  0.
        -12    1    1    2    0    0 -0.52198645698E+01  0.18343373057E+01  0.17890400619E+02  0.18726404188E+02  0.00000000000E+00 0.  1.
         11    1    3    3    0    0  0.61405622140E+01 -0.27176488755E+02 -0.41478306687E+01  0.28168644712E+02  0.51100000000E-03 0. -1.
        -11    1    3    3    0    0  0.54577474997E+01 -0.59497713875E+01 -0.88592311554E+01  0.11986357422E+02  0.51100000000E-03 0.  1.
        -12    1    3    3    0    0 -0.63784451439E+01  0.31291922837E+02 -0.48833387954E+01  0.32306593678E+02  0.00000000000E+00 0.  1.
</event>
<event>
 7    1  0.3440346E-013  0.7246155E+02  0.7816164E-02  0.1226708E+00
        -11   -1    0    0    0    0  0.00000000000E+00  0.00000000000E+00  0.45593999997E+02  0.45594000000E+02  0.51100000000E-03 0.  1.
         11   -1    0    0    0    0 -0.00000000000E+00 -0.00000000000E+00 -0.45593999997E+02  0.45594000000E+02  0.51100000000E-03 0. -1.
    9900012    2    1    2    0    0  0.18058386279E+02  0.26952256653E+01 -0.41605724476E+01  0.72461550270E+02  0.69999973915E+02 0.  0.
        -12    1    1    2    0    0 -0.18058386279E+02 -0.26952256653E+01  0.41605724476E+01  0.18726449730E+02  0.00000000000E+00 0.  1.
         11    1    3    3    0    0  0.18841951286E+02 -0.14095568957E+02  0.69920887051E+01  0.24547779883E+02  0.51100000000E-03 0. -1.
        -11    1    3    3    0    0  0.10452468158E+02  0.99315142372E+01  0.13636818470E+02  0.19845701899E+02  0.51100000000E-03 0.  1.
         12    1    3    3    0    0 -0.11236033164E+02  0.68592803849E+01 -0.24789479623E+02  0.28068068488E+02  0.00000000000E+00 0. -1.
</event>
<event>
 7    1  0.3440346E-013  0.7246157E+02  0.7816164E-02  0.1226708E+00
        -11   -1    0    0    0    0  0.00000000000E+00  0.00000000000E+00  0.45593999997E+02  0.45594000000E+02  0.51100000000E-03 0.  1.
         11   -1    0    0    0    0 -0.00000000000E+00 -0.00000000000E+00 -0.45593999997E+02  0.45594000000E+02  0.51100000000E-03 0. -1.
    9900012    2    1    2    0    0  0.56539121486E+01  0.31817433026E+01 -0.17566705083E+02  0.72461565729E+02  0.69999994053E+02 0.  0.
        -12    1    1    2    0    0 -0.56539121486E+01 -0.31817433026E+01  0.17566705083E+02  0.18726434271E+02  0.00000000000E+00 0.  1.
         11    1    3    3    0    0  0.10155001085E+02  0.24512500879E+01 -0.89121020854E+00  0.10484604424E+02  0.51100000000E-03 0. -1.
        -11    1    3    3    0    0  0.13148210871E+02 -0.22194828016E+02 -0.20289538473E+02  0.32819981894E+02  0.51100000000E-03 0.  1.
         12    1    3    3    0    0 -0.17649299808E+02  0.22925321231E+02  0.36140435986E+01  0.29156979411E+02  0.00000000000E+00 0. -1.
</event>
<event>
 7    1  0.3440346E-013  0.7246157E+02  0.7816164E-02  0.1226708E+00
        -11   -1    0    0    0    0  0.00000000000E+00  0.00000000000E+00  0.45593999997E+02  0.45594000000E+02  0.51100000000E-03 0. -1.
         11   -1    0    0    0    0 -0.00000000000E+00 -0.00000000000E+00 -0.45593999997E+02  0.45594000000E+02  0.51100000000E-03 0.  1.
    9900012    2    1    2    0    0 -0.23644070552E+01 -0.14790799210E+02  0.11239258587E+02  0.72461572268E+02  0.70000002572E+02 0.  0.
        -12    1    1    2    0    0  0.23644070552E+01  0.14790799210E+02 -0.11239258587E+02  0.18726427732E+02  0.00000000000E+00 0.  1.
         11    1    3    3    0    0 -0.18875484523E+02  0.94361710985E+01 -0.41932442741E+01  0.21515309405E+02  0.51100000000E-03 0. -1.
        -11    1    3    3    0    0  0.11093325005E+02  0.41997886064E+00 -0.10128207734E+02  0.15027269681E+02  0.51100000000E-03 0.  1.
         12    1    3    3    0    0  0.54177524626E+01 -0.24646949170E+02  0.25560710595E+02  0.35918993182E+02  0.00000000000E+00 0. -1.
</event>
<event>
 7    1  0.3440346E-013  0.7246147E+02  0.7816164E-02  0.1226708E+00
        -11   -1    0    0    0    0  0.00000000000E+00  0.00000000000E+00  0.45593999997E+02  0.45594000000E+02  0.51100000000E-03 0.  1.
         11   -1    0    0    0    0 -0.00000000000E+00 -0.00000000000E+00 -0.45593999997E+02  0.45594000000E+02  0.51100000000E-03 0. -1.
    9900012    2    1    2    0    0  0.13992735494E+02 -0.10962427053E+02 -0.58916501334E+01  0.72461468159E+02  0.69999866950E+02 0.  0.
        -12    1    1    2    0    0 -0.13992735494E+02  0.10962427053E+02  0.58916501334E+01  0.18726531841E+02  0.00000000000E+00 0.  1.
         11    1    3    3    0    0  0.16036443165E+01 -0.23032439048E+01 -0.24668381323E+02  0.24827517897E+02  0.51100000000E-03 0. -1.
        -11    1    3    3    0    0  0.29445070724E+01 -0.10304337602E+02 -0.11592675459E+02  0.15787324659E+02  0.51100000000E-03 0.  1.
        -12    1    3    3    0    0  0.94445841049E+01  0.16451544537E+01  0.30369406649E+02  0.31846625603E+02  0.00000000000E+00 0.  1.
</event>
<event>
 7    1  0.3440346E-013  0.7246154E+02  0.7816164E-02  0.1226708E+00
        -11   -1    0    0    0    0  0.00000000000E+00  0.00000000000E+00  0.45593999997E+02  0.45594000000E+02  0.51100000000E-03 0. -1.
         11   -1    0    0    0    0 -0.00000000000E+00 -0.00000000000E+00 -0.45593999997E+02  0.45594000000E+02  0.51100000000E-03 0.  1.
    9900012    2    1    2    0    0 -0.14790845332E+02  0.96679653028E+01  0.62001227396E+01  0.72461543295E+02  0.69999964828E+02 0.  0.
        -12    1    1    2    0    0  0.14790845332E+02 -0.96679653028E+01 -0.62001227396E+01  0.18726456705E+02  0.00000000000E+00 0.  1.
         11    1    3    3    0    0 -0.23080868919E+01 -0.31837005901E+01  0.54482617455E+01  0.67191346806E+01  0.51100000000E-03 0. -1.
        -11    1    3    3    0    0  0.11780009986E+02 -0.19828814327E+02 -0.74188595434E+01  0.24227876301E+02  0.51100000000E-03 0.  1.
         12    1    3    3    0    0 -0.24262768426E+02  0.32680480219E+02  0.81707205376E+01  0.41514532313E+02  0.00000000000E+00 0. -1.
</event>
<event>
 7    1  0.3440346E-013  0.7246159E+02  0.7816164E-02  0.1226708E+00
        -11   -1    0    0    0    0  0.00000000000E+00  0.00000000000E+00  0.45593999997E+02  0.45594000000E+02  0.51100000000E-03 0.  1.
         11   -1    0    0    0    0 -0.00000000000E+00 -0.00000000000E+00 -0.45593999997E+02  0.45594000000E+02  0.51100000000E-03 0. -1.
    9900012    2    1    2    0    0  0.94557541321E+01  0.68045747512E+01 -0.14661684873E+02  0.72461587448E+02  0.70000022345E+02 0.  0.
        -12    1    1    2    0    0 -0.94557541321E+01 -0.68045747512E+01  0.14661684873E+02  0.18726412552E+02  0.00000000000E+00 0.  1.
         11    1    3    3    0    0  0.29321690756E+02 -0.12210678292E+02 -0.18096676495E+02  0.36556147412E+02  0.51100000000E-03 0. -1.
        -11    1    3    3    0    0 -0.58400014015E+01 -0.49363307941E+01  0.27960234725E+01  0.81419116673E+01  0.51100000000E-03 0.  1.
        -12    1    3    3    0    0 -0.14025935223E+02  0.23951583837E+02  0.63896814922E+00  0.27763528369E+02  0.00000000000E+00 0.  1.
</event>
<event>
 7    1  0.3440346E-013  0.7246155E+02  0.7816164E-02  0.1226708E+00
        -11   -1    0    0    0    0  0.00000000000E+00  0.00000000000E+00  0.45593999997E+02  0.45594000000E+02  0.51100000000E-03 0.  1.
         11   -1    0    0    0    0 -0.00000000000E+00 -0.00000000000E+00 -0.45593999997E+02  0.45594000000E+02  0.51100000000E-03 0. -1.
    9900012    2    1    2    0    0  0.10335132388E+02  0.55860420114E+01  0.14582901989E+02  0.72461551932E+02  0.69999976079E+02 0.  0.
        -12    1    1    2    0    0 -0.10335132388E+02 -0.55860420114E+01 -0.14582901989E+02  0.18726448068E+02  0.00000000000E+00 0.  1.
         11    1    3    3    0    0  0.11011417381E+02 -0.38164083364E+01 -0.99574590396E+00  0.11696486459E+02  0.51100000000E-03 0. -1.
        -11    1    3    3    0    0  0.23632087775E+02 -0.86693208633E+01  0.17109641914E+02  0.30436368764E+02  0.51100000000E-03 0.  1.
        -12    1    3    3    0    0 -0.24308372768E+02  0.18071771211E+02 -0.15309940210E+01  0.30328696709E+02  0.00000000000E+00 0.  1.
</event>
<event>
 7    1  0.3440346E-013  0.7246162E+02  0.7816164E-02  0.1226708E+00
        -11   -1    0    0    0    0  0.00000000000E+00  0.00000000000E+00  0.45593999997E+02  0.45594000000E+02  0.51100000000E-03 0.  1.
         11   -1    0    0    0    0 -0.00000000000E+00 -0.00000000000E+00 -0.45593999997E+02  0.45594000000E+02  0.51100000000E-03 0. -1.
    9900012    2    1    2    0    0  0.82788034238E+01 -0.12467630411E+02 -0.11255975030E+02  0.72461618394E+02  0.70000062659E+02 0.  0.
        -12    1    1    2    0    0 -0.82788034238E+01  0.12467630411E+02  0.11255975030E+02  0.18726381606E+02  0.00000000000E+00 0.  1.
         11    1    3    3    0    0  0.26231643873E+02  0.78651693237E+01  0.13496190072E+02  0.30530430320E+02  0.51100000000E-03 0. -1.
        -11    1    3    3    0    0 -0.32655459670E+01  0.16459339859E+01  0.21277854562E+01  0.42308817470E+01  0.51100000000E-03 0.  1.
        -12    1    3    3    0    0 -0.14687294482E+02 -0.21978733721E+02 -0.26879950558E+02  0.37700306327E+02  0.00000000000E+00 0.  1.
</event>
<event>
 7    1  0.3440346E-013  0.7246107E+02  0.7816164E-02  0.1226709E+00
        -11   -1    0    0    0    0  0.00000000000E+00  0.00000000000E+00  0.45593999997E+02  0.45594000000E+02  0.51100000000E-03 0. -1.
         11   -1    0    0    0    0 -0.00000000000E+00 -0.00000000000E+00 -0.45593999997E+02  0.45594000000E+02  0.51100000000E-03 0.  1.
    9900012    2    1    2    0    0 -0.18002103318E+02  0.16775806441E+01  0.48793344648E+01  0.72461070046E+02  0.69999348330E+02 0.  0.
        -12    1    1    2    0    0  0.18002103318E+02 -0.16775806441E+01 -0.48793344648E+01  0.18726929954E+02  0.00000000000E+00 0.  1.
         11    1    3    3    0    0  0.11821561191E+02 -0.12038115777E+02 -0.44491831022E+01  0.17448804285E+02  0.51100000000E-03 0. -1.
        -11    1    3    3    0    0 -0.44753965167E+01 -0.62301362336E+01 -0.13478641027E+02  0.15508627781E+02  0.51100000000E-03 0.  1.
        -12    1    3    3    0    0 -0.25348267992E+02  0.19945832655E+02  0.22807158594E+02  0.39503637979E+02  0.00000000000E+00 0.  1.
</event>
<event>
 7    1  0.3440346E-013  0.7246157E+02  0.7816164E-02  0.1226708E+00
        -11   -1    0    0    0    0  0.00000000000E+00  0.00000000000E+00  0.45593999997E+02  0.45594000000E+02  0.51100000000E-03 0. -1.
         11   -1    0    0    0    0 -0.00000000000E+00 -0.00000000000E+00 -0.45593999997E+02  0.45594000000E+02  0.51100000000E-03 0.  1.
    9900012    2    1    2    0    0  0.99600205764E+01  0.20596065177E+00  0.15856696496E+02  0.72461568054E+02  0.69999997081E+02 0.  0.
        -12    1    1    2    0    0 -0.99600205764E+01 -0.20596065177E+00 -0.15856696496E+02  0.18726431946E+02  0.00000000000E+00 0.  1.
         11    1    3    3    0    0 -0.20964383809E+00  0.16565765526E+01  0.10131011926E+02  0.10267696884E+02  0.51100000000E-03 0. -1.
        -11    1    3    3    0    0  0.20233297501E+02  0.48710690152E-03  0.29823250038E+02  0.36039042317E+02  0.51100000000E-03 0.  1.
        -12    1    3    3    0    0 -0.10063633087E+02 -0.14511030077E+01 -0.24097565467E+02  0.26154828852E+02  0.00000000000E+00 0.  1.
</event>
<event>
 7    1  0.3440346E-013  0.7246158E+02  0.7816164E-02  0.1226708E+00
        -11   -1    0    0    0    0  0.00000000000E+00  0.00000000000E+00  0.45593999997E+02  0.45594000000E+02  0.51100000000E-03 0.  1.
         11   -1    0    0    0    0 -0.00000000000E+00 -0.00000000000E+00 -0.45593999997E+02  0.45594000000E+02  0.51100000000E-03 0. -1.
    9900012    2    1    2    0    0  0.11062723838E+02  0.89817010361E+01 -0.12150068382E+02  0.72461575517E+02  0.70000006803E+02 0.  0.
        -12    1    1    2    0    0 -0.11062723838E+02 -0.89817010361E+01  0.12150068382E+02  0.18726424483E+02  0.00000000000E+00 0.  1.
         11    1    3    3    0    0  0.14880819807E+02 -0.99932499666E+01 -0.11999273875E+02  0.21570498761E+02  0.51100000000E-03 0. -1.
        -11    1    3    3    0    0  0.19203009233E+02  0.73971121852E+01 -0.10523576943E+02  0.23113167334E+02  0.51100000000E-03 0.  1.
        -12    1    3    3    0    0 -0.23021105202E+02  0.11577838817E+02  0.10372782435E+02  0.27777909422E+02  0.00000000000E+00 0.  1.
</event>
<event>
 7    1  0.3440346E-013  0.7246148E+02  0.7816164E-02  0.1226708E+00
        -11   -1    0    0    0    0  0.00000000000E+00  0.00000000000E+00  0.45593999997E+02  0.45594000000E+02  0.51100000000E-03 0. -1.
         11   -1    0    0    0    0 -0.00000000000E+00 -0.00000000000E+00 -0.45593999997E+02  0.45594000000E+02  0.51100000000E-03 0.  1.
    9900012    2    1    2    0    0 -0.29919078008E+01  0.12028082975E+02  0.14037670549E+02  0.72461481723E+02  0.69999884619E+02 0.  0.
        -12    1    1    2    0    0  0.29919078008E+01 -0.12028082975E+02 -0.14037670549E+02  0.18726518277E+02  0.00000000000E+00 0.  1.
         11    1    3    3    0    0  0.98493008384E+01 -0.38743586448E+01  0.77156654046E+01  0.13097743119E+02  0.51100000000E-03 0. -1.
        -11    1    3    3    0    0  0.21652302591E+02  0.68860631925E+01  0.67713177876E+01  0.23708454581E+02  0.51100000000E-03 0.  1.
         12    1    3    3    0    0 -0.34493511230E+02  0.90163784277E+01 -0.44931264321E+00  0.35655284023E+02  0.00000000000E+00 0. -1.
</event>
<event>
 7    1  0.3440346E-013  0.7246152E+02  0.7816164E-02  0.1226708E+00
        -11   -1    0    0    0    0  0.00000000000E+00  0.00000000000E+00  0.45593999997E+02  0.45594000000E+02  0.51100000000E-03 0.  1.
         11   -1    0    0    0    0 -0.00000000000E+00 -0.00000000000E+00 -0.45593999997E+02  0.45594000000E+02  0.51100000000E-03 0. -1.
    9900012    2    1    2    0    0  0.21286676541E+01 -0.18425660544E+02  0.25777416827E+01  0.72461522899E+02  0.69999938258E+02 0.  0.
        -12    1    1    2    0    0 -0.21286676541E+01  0.18425660544E+02 -0.25777416827E+01  0.18726477101E+02  0.00000000000E+00 0.  1.
         11    1    3    3    0    0 -0.12536299987E+02 -0.11898217908E+02 -0.15036406083E+02  0.22908948358E+02  0.51100000000E-03 0. -1.
        -11    1    3    3    0    0  0.40974482108E+01 -0.97115166726E+01 -0.13159022342E+02  0.16860086215E+02  0.51100000000E-03 0.  1.
        -12    1    3    3    0    0  0.10567519430E+02  0.31840740371E+01  0.30773170108E+02  0.32692488325E+02  0.00000000000E+00 0.  1.
</event>
<event>
 7    1  0.3440346E-013  0.7246129E+02  0.7816164E-02  0.1226709E+00
        -11   -1    0    0    0    0  0.00000000000E+00  0.00000000000E+00  0.45593999997E+02  0.45594000000E+02  0.51100000000E-03 0.  1.
         11   -1    0    0    0    0 -0.00000000000E+00 -0.00000000000E+00 -0.45593999997E+02  0.45594000000E+02  0.51100000000E-03 0. -1.
    9900012    2    1    2    0    0 -0.12106994705E+02 -0.38096786357E+01 -0.13769405531E+02  0.72461294450E+02  0.69999640660E+02 0.  0.
        -12    1    1    2    0    0  0.12106994705E+02  0.38096786357E+01  0.13769405531E+02  0.18726705550E+02  0.00000000000E+00 0.  1.
         11    1    3    3    0    0  0.60887793747E+01  0.27303079281E+01  0.11902815950E+01  0.67782435920E+01  0.51100000000E-03 0. -1.
        -11    1    3    3    0    0  0.90394820999E+01 -0.18705614167E+02  0.13239145506E+02  0.24635080921E+02  0.51100000000E-03 0.  1.
         12    1    3    3    0    0 -0.27235256180E+02  0.12165627603E+02 -0.28198832632E+02  0.41047969937E+02  0.00000000000E+00 0. -1.
</event>
<event>
 7    1  0.3440346E-013  0.7246156E+02  0.7816164E-02  0.1226708E+00
        -11   -1    0    0    0    0  0.00000000000E+00  0.00000000000E+00  0.45593999997E+02  0.45594000000E+02  0.51100000000E-03 0.  1.
         11   -1    0    0    0    0 -0.00000000000E+00 -0.00000000000E+00 -0.45593999997E+02  0.45594000000E+02  0.51100000000E-03 0. -1.
    9900012    2    1    2    0    0 -0.65982069981E+00 -0.17271169166E+02  0.72076996614E+01  0.72461559278E+02  0.69999985649E+02 0.  0.
        -12    1    1    2    0    0  0.65982069981E+00  0.17271169166E+02 -0.72076996614E+01  0.18726440722E+02  0.00000000000E+00 0.  1.
         11    1    3    3    0    0  0.65673894256E+00 -0.26074633921E+02  0.17839164343E+02  0.31599899128E+02  0.51100000000E-03 0. -1.
        -11    1    3    3    0    0 -0.51927167892E+01 -0.14484239706E+02 -0.11806497149E+01  0.15432156088E+02  0.51100000000E-03 0.  1.
        -12    1    3    3    0    0  0.38761571468E+01  0.23287704461E+02 -0.94508149668E+01  0.25429504062E+02  0.00000000000E+00 0.  1.
</event>
<event>
 7    1  0.3440346E-013  0.7246154E+02  0.7816164E-02  0.1226708E+00
        -11   -1    0    0    0    0  0.00000000000E+00  0.00000000000E+00  0.45593999997E+02  0.45594000000E+02  0.51100000000E-03 0.  1.
         11   -1    0    0    0    0 -0.00000000000E+00 -0.00000000000E+00 -0.45593999997E+02  0.45594000000E+02  0.51100000000E-03 0. -1.
    9900012    2    1    2    0    0  0.10343458824E+02 -0.10383816024E+02 -0.11656310700E+02  0.72461538647E+02  0.69999958773E+02 0.  0.
        -12    1    1    2    0    0 -0.10343458824E+02  0.10383816024E+02  0.11656310700E+02  0.18726461353E+02  0.00000000000E+00 0.  1.
         11    1    3    3    0    0 -0.38407989469E+01  0.18626489882E+02 -0.12527068992E+02  0.22773346694E+02  0.51100000000E-03 0. -1.
        -11    1    3    3    0    0 -0.18806850188E+01  0.75988994067E+01  0.53164571077E+01  0.94628201278E+01  0.51100000000E-03 0.  1.
        -12    1    3    3    0    0  0.16064942790E+02 -0.36609205313E+02 -0.44456988160E+01  0.40225371825E+02  0.00000000000E+00 0.  1.
</event>
<event>
 7    1  0.3440346E-013  0.7246156E+02  0.7816164E-02  0.1226708E+00
        -11   -1    0    0    0    0  0.00000000000E+00  0.00000000000E+00  0.45593999997E+02  0.45594000000E+02  0.51100000000E-03 0.  1.
         11   -1    0    0    0    0 -0.00000000000E+00 -0.00000000000E+00 -0.45593999997E+02  0.45594000000E+02  0.51100000000E-03 0. -1.
    9900012    2    1    2    0    0 -0.23966029245E+01 -0.18506941038E+02  0.15584683658E+01  0.72461564252E+02  0.69999992129E+02 0.  0.
        -12    1    1    2    0    0  0.23966029245E+01  0.18506941038E+02 -0.15584683658E+01  0.18726435748E+02  0.00000000000E+00 0.  1.
         11    1    3    3    0    0  0.74101814742E+01  0.12648425043E+02 -0.90584603139E+01  0.17232212541E+02  0.51100000000E-03 0. -1.
        -11    1    3    3    0    0 -0.13989819773E+02 -0.68371909704E+01 -0.13586449797E+02  0.20665281416E+02  0.51100000000E-03 0.  1.
        -12    1    3    3    0    0  0.41830353744E+01 -0.24318175111E+02  0.24203378477E+02  0.34564070295E+02  0.00000000000E+00 0.  1.
</event>
<event>
 7    1  0.3440346E-013  0.7246161E+02  0.7816164E-02  0.1226708E+00
        -11   -1    0    0    0    0  0.00000000000E+00  0.00000000000E+00  0.45593999997E+02  0.45594000000E+02  0.51100000000E-03 0.  1.
         11   -1    0    0    0    0 -0.00000000000E+00 -0.00000000000E+00 -0.45593999997E+02  0.45594000000E+02  0.51100000000E-03 0. -1.
    9900012    2    1    2    0    0  0.94876454183E+00 -0.14571653383E+02 -0.11723673994E+02  0.72461607705E+02  0.70000048734E+02 0.  0.
        -12    1    1    2    0    0 -0.94876454183E+00  0.14571653383E+02  0.11723673994E+02  0.18726392295E+02  0.00000000000E+00 0.  1.
         11    1    3    3    0    0  0.10006497468E+01 -0.27633283057E+02 -0.17386661104E+02  0.32663368121E+02  0.51100000000E-03 0. -1.
        -11    1    3    3    0    0 -0.41181945255E+01 -0.12653501097E+02  0.95201138168E+00  0.13340799904E+02  0.51100000000E-03 0.  1.
        -12    1    3    3    0    0  0.40663093205E+01  0.25715130771E+02  0.47109757277E+01  0.26457439679E+02  0.00000000000E+00 0.  1.
</event>
<event>
 7    1  0.3440346E-013  0.7246157E+02  0.7816164E-02  0.1226708E+00
        -11   -1    0    0    0    0  0.00000000000E+00  0.00000000000E+00  0.45593999997E+02  0.45594000000E+02  0.51100000000E-03 0. -1.
         11   -1    0    0    0    0 -0.00000000000E+00 -0.00000000000E+00 -0.45593999997E+02  0.45594000000E+02  0.51100000000E-03 0.  1.
    9900012    2    1    2    0    0  0.10069829131E+02  0.15461862590E+02  0.31950885466E+01  0.72461568298E+02  0.69999997399E+02 0.  0.
        -12    1    1    2    0    0 -0.10069829131E+02 -0.15461862590E+02 -0.31950885466E+01  0.18726431702E+02  0.00000000000E+00 0.  1.
         11    1    3    3    0    0 -0.20366495200E+02 -0.70599947988E+01  0.10697631678E+02  0.24064018306E+02  0.51100000000E-03 0. -1.
        -11    1    3    3    0    0 -0.43983276834E+01  0.88510736372E+01 -0.44887797548E+01  0.10855226156E+02  0.51100000000E-03 0.  1.
         12    1    3    3    0    0  0.34834652014E+02  0.13670783751E+02 -0.30137633766E+01  0.37542323836E+02  0.00000000000E+00 0. -1.
</event>
<event>
 7    1  0.3440346E-013  0.7246159E+02  0.7816164E-02  0.1226708E+00
        -11   -1    0    0    0    0  0.00000000000E+00  0.00000000000E+00  0.45593999997E+02  0.45594000000E+02  0.51100000000E-03 0.  1.
         11   -1    0    0    0    0 -0.00000000000E+00 -0.00000000000E+00 -0.45593999997E+02  0.45594000000E+02  0.51100000000E-03 0. -1.
    9900012    2    1    2    0    0  0.17658545250E+02 -0.50306096950E+01  0.36806491713E+01  0.72461589971E+02  0.70000025633E+02 0.  0.
        -12    1    1    2    0    0 -0.17658545250E+02  0.50306096950E+01 -0.36806491713E+01  0.18726410029E+02  0.00000000000E+00 0.  1.
         11    1    3    3    0    0  0.28680788476E+02 -0.18906030363E+02  0.14956095206E+02  0.37466123309E+02  0.51100000000E-03 0. -1.
        -11    1    3    3    0    0 -0.16705502595E+01 -0.85378750664E+01 -0.44322513808E+01  0.97637544717E+01  0.51100000000E-03 0.  1.
        -12    1    3    3    0    0 -0.93516929672E+01  0.22413295734E+02 -0.68431946535E+01  0.25231712191E+02  0.00000000000E+00 0.  1.
</event>
<event>
 7    1  0.3440346E-013  0.7246154E+02  0.7816164E-02  0.1226708E+00
        -11   -1    0    0    0    0  0.00000000000E+00  0.00000000000E+00  0.45593999997E+02  0.45594000000E+02  0.51100000000E-03 0.  1.
         11   -1    0    0    0    0 -0.00000000000E+00 -0.00000000000E+00 -0.45593999997E+02  0.45594000000E+02  0.51100000000E-03 0. -1.
    9900012    2    1    2    0    0  0.14701890585E+02  0.58558264861E+01 -0.10012201368E+02  0.72461535656E+02  0.69999954877E+02 0.  0.
        -12    1    1    2    0    0 -0.14701890585E+02 -0.58558264861E+01  0.10012201368E+02  0.18726464344E+02  0.00000000000E+00 0.  1.
         11    1    3    3    0    0  0.14171724196E+02  0.17587622525E+01  0.99036585465E+01  0.17378534582E+02  0.51100000000E-03 0. -1.
        -11    1    3    3    0    0 -0.20622099316E+02 -0.85118586668E+01 -0.20716168573E+02  0.30444742712E+02  0.51100000000E-03 0.  1.
         12    1    3    3    0    0  0.21152265705E+02  0.12608922900E+02  0.80030865864E+00  0.24638258362E+02  0.00000000000E+00 0. -1.
</event>
<event>
 7    1  0.3440346E-013  0.7246163E+02  0.7816164E-02  0.1226708E+00
        -11   -1    0    0    0    0  0.00000000000E+00  0.00000000000E+00  0.45593999997E+02  0.45594000000E+02  0.51100000000E-03 0.  1.
         11   -1    0    0    0    0 -0.00000000000E+00 -0.00000000000E+00 -0.45593999997E+02  0.45594000000E+02  0.51100000000E-03 0. -1.
    9900012    2    1    2    0    0 -0.11968923710E+02 -0.83938465672E+01 -0.11703204312E+02  0.72461633931E+02  0.70000082899E+02 0.  0.
        -12    1    1    2    0    0  0.11968923710E+02  0.83938465672E+01  0.11703204312E+02  0.18726366069E+02  0.00000000000E+00 0.  1.
         11    1    3    3    0    0 -0.15295276291E+02  0.30348532142E+01 -0.34160147010E+02  0.37550918163E+02  0.51100000000E-03 0. -1.
        -11    1    3    3    0    0 -0.73383329420E+01 -0.25856980608E+01 -0.81922146999E+00  0.78235598616E+01  0.51100000000E-03 0.  1.
        -12    1    3    3    0    0  0.10664685523E+02 -0.88430017206E+01  0.23276164168E+02  0.27087155907E+02  0.00000000000E+00 0.  1.
</event>
<event>
 7    1  0.3440346E-013  0.7246158E+02  0.7816164E-02  0.1226708E+00
        -11   -1    0    0    0    0  0.00000000000E+00  0.00000000000E+00  0.45593999997E+02  0.45594000000E+02  0.51100000000E-03 0. -1.
         11   -1    0    0    0    0 -0.00000000000E+00 -0.00000000000E+00 -0.45593999997E+02  0.45594000000E+02  0.51100000000E-03 0.  1.
    9900012    2    1    2    0    0 -0.93959350180E+01 -0.15745603138E+02  0.38041263885E+01  0.72461575071E+02  0.70000006222E+02 0.  0.
        -12    1    1    2    0    0  0.93959350180E+01  0.15745603138E+02 -0.38041263885E+01  0.18726424929E+02  0.00000000000E+00 0.  1.
         11    1    3    3    0    0  0.59089003856E+01 -0.19648299011E+02 -0.18600890435E+02  0.27694112787E+02  0.51100000000E-03 0.  1.
        -11    1    3    3    0    0 -0.15327059960E+02 -0.14046128791E+02  0.12720368959E+02  0.24372531418E+02  0.51100000000E-03 0. -1.
         12    1    3    3    0    0  0.22224556824E-01  0.17948824664E+02  0.96846478653E+01  0.20394930866E+02  0.00000000000E+00 0. -1.
</event>
<event>
 7    1  0.3440346E-013  0.7246126E+02  0.7816164E-02  0.1226709E+00
        -11   -1    0    0    0    0  0.00000000000E+00  0.00000000000E+00  0.45593999997E+02  0.45594000000E+02  0.51100000000E-03 0. -1.
         11   -1    0    0    0    0 -0.00000000000E+00 -0.00000000000E+00 -0.45593999997E+02  0.45594000000E+02  0.51100000000E-03 0.  1.
    9900012    2    1    2    0    0  0.36947964217E+01  0.17720304363E+02 -0.47989808036E+01  0.72461256448E+02  0.69999591155E+02 0.  0.
        -12    1    1    2    0    0 -0.36947964217E+01 -0.17720304363E+02  0.47989808036E+01  0.18726743552E+02  0.00000000000E+00 0.  1.
         11    1    3    3    0    0  0.11832483808E+02  0.10643144990E+02  0.51523334521E+01  0.16728142413E+02  0.51100000000E-03 0. -1.
        -11    1    3    3    0    0  0.11244748816E+02 -0.87081530418E+01 -0.23373438847E+02  0.27360444973E+02  0.51100000000E-03 0.  1.
         12    1    3    3    0    0 -0.19382436201E+02  0.15785312415E+02  0.13422124591E+02  0.28372669062E+02  0.00000000000E+00 0. -1.
</event>
<event>
 7    1  0.3440346E-013  0.7246156E+02  0.7816164E-02  0.1226708E+00
        -11   -1    0    0    0    0  0.00000000000E+00  0.00000000000E+00  0.45593999997E+02  0.45594000000E+02  0.51100000000E-03 0.  1.
         11   -1    0    0    0    0 -0.00000000000E+00 -0.00000000000E+00 -0.45593999997E+02  0.45594000000E+02  0.51100000000E-03 0. -1.
    9900012    2    1    2    0    0 -0.16541425568E+02  0.77450561920E+01  0.41321817567E+01  0.72461559300E+02  0.69999985677E+02 0.  0.
        -12    1    1    2    0    0  0.16541425568E+02 -0.77450561920E+01 -0.41321817567E+01  0.18726440700E+02  0.00000000000E+00 0.  1.
         11    1    3    3    0    0 -0.15998715213E+02  0.13752112957E+01 -0.13303006375E+02  0.20852339760E+02  0.51100000000E-03 0. -1.
        -11    1    3    3    0    0 -0.21837261567E+02  0.20937628301E+01  0.20066592554E+02  0.29730758021E+02  0.51100000000E-03 0.  1.
        -12    1    3    3    0    0  0.21294551213E+02  0.42760820661E+01 -0.26314044225E+01  0.21878461519E+02  0.00000000000E+00 0.  1.
</event>
<event>
 7    1  0.3440346E-013  0.7246158E+02  0.7816164E-02  0.1226708E+00
        -11   -1    0    0    0    0  0.00000000000E+00  0.00000000000E+00  0.45593999997E+02  0.45594000000E+02  0.51100000000E-03 0. -1.
         11   -1    0    0    0    0 -0.00000000000E+00 -0.00000000000E+00 -0.45593999997E+02  0.45594000000E+02  0.51100000000E-03 0.  1.
    9900012    2    1    2    0    0 -0.32266045566E+01 -0.36520989134E+01  0.18081202466E+02  0.72461583203E+02  0.70000016817E+02 0.  0.
        -12    1    1    2    0    0  0.32266045566E+01  0.36520989134E+01 -0.18081202466E+02  0.18726416797E+02  0.00000000000E+00 0.  1.
         11    1    3    3    0    0  0.32822058007E+01 -0.47149696544E+01  0.38531060754E+01  0.69173868223E+01  0.51100000000E-03 0. -1.
        -11    1    3    3    0    0  0.24457426481E+02 -0.16140033048E+01  0.22616087695E+02  0.33350534323E+02  0.51100000000E-03 0.  1.
        -12    1    3    3    0    0 -0.30966236838E+02  0.26768740458E+01 -0.83879913049E+01  0.32193662058E+02  0.00000000000E+00 0.  1.
</event>
<event>
 7    1  0.3440346E-013  0.7246170E+02  0.7816164E-02  0.1226708E+00
        -11   -1    0    0    0    0  0.00000000000E+00  0.00000000000E+00  0.45593999997E+02  0.45594000000E+02  0.51100000000E-03 0.  1.
         11   -1    0    0    0    0 -0.00000000000E+00 -0.00000000000E+00 -0.45593999997E+02  0.45594000000E+02  0.51100000000E-03 0. -1.
    9900012    2    1    2    0    0 -0.14232737605E+02  0.11377718103E+02 -0.43187021591E+01  0.72461695578E+02  0.70000163206E+02 0.  0.
        -12    1    1    2    0    0  0.14232737605E+02 -0.11377718103E+02  0.43187021591E+01  0.18726304422E+02  0.00000000000E+00 0.  1.
         11    1    3    3    0    0 -0.23177089711E+02  0.81574532237E+01 -0.69231524979E+01  0.25527466998E+02  0.51100000000E-03 0. -1.
        -11    1    3    3    0    0 -0.14263317862E+02  0.10579102216E+02 -0.90620402696E+01  0.19936905834E+02  0.51100000000E-03 0.  1.
        -12    1    3    3    0    0  0.23207669969E+02 -0.73588373366E+01  0.11666490608E+02  0.26997322746E+02  0.00000000000E+00 0.  1.
</event>
<event>
 7    1  0.3440346E-013  0.7246136E+02  0.7816164E-02  0.1226709E+00
        -11   -1    0    0    0    0  0.00000000000E+00  0.00000000000E+00  0.45593999997E+02  0.45594000000E+02  0.51100000000E-03 0.  1.
         11   -1    0    0    0    0 -0.00000000000E+00 -0.00000000000E+00 -0.45593999997E+02  0.45594000000E+02  0.51100000000E-03 0. -1.
    9900012    2    1    2    0    0  0.47552105917E+01  0.11748567498E+02 -0.13785720556E+02  0.72461362361E+02  0.69999729128E+02 0.  0.
        -12    1    1    2    0    0 -0.47552105917E+01 -0.11748567498E+02  0.13785720556E+02  0.18726637639E+02  0.00000000000E+00 0.  1.
         11    1    3    3    0    0  0.12476043750E+02  0.78563422849E+01 -0.47570186730E+01  0.15492030489E+02  0.51100000000E-03 0. -1.
        -11    1    3    3    0    0 -0.82373981583E+01 -0.10106123730E+02  0.20495259261E+02  0.24290823734E+02  0.51100000000E-03 0.  1.
         12    1    3    3    0    0  0.51656499981E+00  0.13998348943E+02 -0.29523961143E+02  0.32678508138E+02  0.00000000000E+00 0. -1.
</event>
<event>
 7    1  0.3440346E-013  0.7246156E+02  0.7816164E-02  0.1226708E+00
        -11   -1    0    0    0    0  0.00000000000E+00  0.00000000000E+00  0.45593999997E+02  0.45594000000E+02  0.51100000000E-03 0. -1.
         11   -1    0    0    0    0 -0.00000000000E+00 -0.00000000000E+00 -0.45593999997E+02  0.45594000000E+02  0.51100000000E-03 0.  1.
    9900012    2    1    2    0    0  0.16251223387E+02 -0.85453323076E+01 -0.36816492219E+01  0.72461561288E+02  0.69999988268E+02 0.  0.
        -12    1    1    2    0    0 -0.16251223387E+02  0.85453323076E+01  0.36816492219E+01  0.18726438712E+02  0.00000000000E+00 0.  1.
         11    1    3    3    0    0  0.43703100379E+01 -0.45471655535E+01 -0.26110802503E+02  0.26861688927E+02  0.51100000000E-03 0. -1.
        -11    1    3    3    0    0 -0.95251109385E+01  0.57782180293E+01 -0.23937894052E+01  0.11394988809E+02  0.51100000000E-03 0.  1.
         12    1    3    3    0    0  0.21406024288E+02 -0.97763847834E+01  0.24822942686E+02  0.34204883552E+02  0.00000000000E+00 0. -1.
</event>
<event>
 7    1  0.3440346E-013  0.7246158E+02  0.7816164E-02  0.1226708E+00
        -11   -1    0    0    0    0  0.00000000000E+00  0.00000000000E+00  0.45593999997E+02  0.45594000000E+02  0.51100000000E-03 0.  1.
         11   -1    0    0    0    0 -0.00000000000E+00 -0.00000000000E+00 -0.45593999997E+02  0.45594000000E+02  0.51100000000E-03 0. -1.
    9900012    2    1    2    0    0  0.10316373916E+02  0.33248380192E+01 -0.15270781310E+02  0.72461578013E+02  0.70000010055E+02 0.  0.
        -12    1    1    2    0    0 -0.10316373916E+02 -0.33248380192E+01  0.15270781310E+02  0.18726421987E+02  0.00000000000E+00 0.  1.
         11    1    3    3    0    0  0.10392460932E+02  0.11197186465E+02 -0.28805429503E+02  0.32605720328E+02  0.51100000000E-03 0. -1.
        -11    1    3    3    0    0 -0.67332642021E+01  0.13508448860E+02  0.53390238290E+01  0.16010003533E+02  0.51100000000E-03 0.  1.
         12    1    3    3    0    0  0.66571771852E+01 -0.21380797306E+02  0.81956243641E+01  0.23845854152E+02  0.00000000000E+00 0. -1.
</event>
<event>
 7    1  0.3440346E-013  0.7246157E+02  0.7816164E-02  0.1226708E+00
        -11   -1    0    0    0    0  0.00000000000E+00  0.00000000000E+00  0.45593999997E+02  0.45594000000E+02  0.51100000000E-03 0.  1.
         11   -1    0    0    0    0 -0.00000000000E+00 -0.00000000000E+00 -0.45593999997E+02  0.45594000000E+02  0.51100000000E-03 0. -1.
    9900012    2    1    2    0    0 -0.31397198409E+01  0.10525552078E+02 -0.15166876171E+02  0.72461568946E+02  0.69999998244E+02 0.  0.
        -12    1    1    2    0    0  0.31397198409E+01 -0.10525552078E+02  0.15166876171E+02  0.18726431054E+02  0.00000000000E+00 0.  1.
         11    1    3    3    0    0 -0.11881625520E+02 -0.50757093010E+01 -0.19620224770E+02  0.23492319387E+02  0.51100000000E-03 0. -1.
        -11    1    3    3    0    0 -0.14507063761E+02  0.19605864489E+02  0.66389659417E+01  0.25276880551E+02  0.51100000000E-03 0.  1.
        -12    1    3    3    0    0  0.23248969440E+02 -0.40046031097E+01 -0.21856173428E+01  0.23692369009E+02  0.00000000000E+00 0.  1.
</event>
<event>
 7    1  0.3440346E-013  0.7246158E+02  0.7816164E-02  0.1226708E+00
        -11   -1    0    0    0    0  0.00000000000E+00  0.00000000000E+00  0.45593999997E+02  0.45594000000E+02  0.51100000000E-03 0. -1.
         11   -1    0    0    0    0 -0.00000000000E+00 -0.00000000000E+00 -0.45593999997E+02  0.45594000000E+02  0.51100000000E-03 0.  1.
    9900012    2    1    2    0    0 -0.24139381841E+01 -0.12948889806E+02  0.13310826692E+02  0.72461576103E+02  0.70000007566E+02 0.  0.
        -12    1    1    2    0    0  0.24139381841E+01  0.12948889806E+02 -0.13310826692E+02  0.18726423897E+02  0.00000000000E+00 0.  1.
         11    1    3    3    0    0  0.49519446626E+01  0.11033222598E+02 -0.86495875941E+01  0.14868393412E+02  0.51100000000E-03 0. -1.
        -11    1    3    3    0    0  0.18017869525E+02 -0.11725270197E+02 -0.57418641277E+00  0.21504773277E+02  0.51100000000E-03 0.  1.
        -12    1    3    3    0    0 -0.25383752372E+02 -0.12256842206E+02  0.22534600699E+02  0.36088409414E+02  0.00000000000E+00 0.  1.
</event>
<event>
 7    1  0.3440346E-013  0.7246170E+02  0.7816164E-02  0.1226708E+00
        -11   -1    0    0    0    0  0.00000000000E+00  0.00000000000E+00  0.45593999997E+02  0.45594000000E+02  0.51100000000E-03 0. -1.
         11   -1    0    0    0    0 -0.00000000000E+00 -0.00000000000E+00 -0.45593999997E+02  0.45594000000E+02  0.51100000000E-03 0.  1.
    9900012    2    1    2    0    0  0.26959661973E+01  0.99259080280E+01 -0.15648714780E+02  0.72461704099E+02  0.70000174305E+02 0.  0.
        -12    1    1    2    0    0 -0.26959661973E+01 -0.99259080280E+01  0.15648714780E+02  0.18726295901E+02  0.00000000000E+00 0.  1.
         11    1    3    3    0    0  0.31494274176E+01 -0.84789068888E+00 -0.98807174060E+00  0.34079462591E+01  0.51100000000E-03 0. -1.
        -11    1    3    3    0    0 -0.40516849343E+01 -0.21258500290E+02 -0.26943967022E+02  0.34558896749E+02  0.51100000000E-03 0.  1.
         12    1    3    3    0    0  0.35982237140E+01  0.32032299007E+02  0.12283323982E+02  0.34494861090E+02  0.00000000000E+00 0. -1.
</event>
<event>
 7    1  0.3440346E-013  0.7246157E+02  0.7816164E-02  0.1226708E+00
        -11   -1    0    0    0    0  0.00000000000E+00  0.00000000000E+00  0.45593999997E+02  0.45594000000E+02  0.51100000000E-03 0. -1.
         11   -1    0    0    0    0 -0.00000000000E+00 -0.00000000000E+00 -0.45593999997E+02  0.45594000000E+02  0.51100000000E-03 0.  1.
    9900012    2    1    2    0    0  0.21209649874E+01 -0.29849551695E+01  0.18364930750E+02  0.72461571315E+02  0.70000001329E+02 0.  0.
        -12    1    1    2    0    0 -0.21209649874E+01  0.29849551695E+01 -0.18364930750E+02  0.18726428685E+02  0.00000000000E+00 0.  1.
         11    1    3    3    0    0  0.23987133572E+02 -0.11796992469E+02  0.13338738819E+02  0.29874296006E+02  0.51100000000E-03 0. -1.
        -11    1    3    3    0    0  0.87288275986E+01 -0.33637676665E+01  0.80657127839E+00  0.93892449989E+01  0.51100000000E-03 0.  1.
        -12    1    3    3    0    0 -0.30594996183E+02  0.12175804966E+02  0.42196206531E+01  0.33198030310E+02  0.00000000000E+00 0.  1.
</event>
<event>
 7    1  0.3440346E-013  0.7246165E+02  0.7816164E-02  0.1226708E+00
        -11   -1    0    0    0    0  0.00000000000E+00  0.00000000000E+00  0.45593999997E+02  0.45594000000E+02  0.51100000000E-03 0.  1.
         11   -1    0    0    0    0 -0.00000000000E+00 -0.00000000000E+00 -0.45593999997E+02  0.45594000000E+02  0.51100000000E-03 0. -1.
    9900012    2    1    2    0    0 -0.99661152514E+01 -0.15694210085E+02 -0.22459842454E+01  0.72461651487E+02  0.70000105769E+02 0.  0.
        -12    1    1    2    0    0  0.99661152514E+01  0.15694210085E+02  0.22459842454E+01  0.18726348513E+02  0.00000000000E+00 0.  1.
         11    1    3    3    0    0 -0.99779801034E+00 -0.45251801532E+01 -0.12072195124E+02  0.12930999639E+02  0.51100000000E-03 0. -1.
        -11    1    3    3    0    0  0.15668895168E+02 -0.12471373437E+02  0.23857227573E+02  0.31148302344E+02  0.51100000000E-03 0.  1.
         12    1    3    3    0    0 -0.24637212409E+02  0.13023435053E+01 -0.14031016695E+02  0.28382349504E+02  0.00000000000E+00 0. -1.
</event>
<event>
 7    1  0.3549081E-013  0.7246159E+02  0.7816164E-02  0.1226708E+00
        -11   -1    0    0    0    0  0.00000000000E+00  0.00000000000E+00  0.45593999997E+02  0.45594000000E+02  0.51100000000E-03 0.  1.
         11   -1    0    0    0    0 -0.00000000000E+00 -0.00000000000E+00 -0.45593999997E+02  0.45594000000E+02  0.51100000000E-03 0. -1.
    9900012    2    1    2    0    0 -0.10332809291E+02 -0.15465527103E+02 -0.21746270707E+01  0.72461588723E+02  0.70000024006E+02 0.  0.
        -12    1    1    2    0    0  0.10332809291E+02  0.15465527103E+02  0.21746270707E+01  0.18726411277E+02  0.00000000000E+00 0.  1.
         11    1    3    3    0    0 -0.14411929528E+02 -0.36698062118E+02  0.87264283876E+01  0.40380713573E+02  0.51100000000E-03 0.  1.
        -11    1    3    3    0    0 -0.48642324616E+00  0.21852339683E+01 -0.12245025037E+02  0.12447991544E+02  0.51100000000E-03 0. -1.
        -12    1    3    3    0    0  0.45655434825E+01  0.19047301047E+02  0.13439695783E+01  0.19632883606E+02  0.00000000000E+00 0.  1.
</event>
<event>
 7    1  0.3440346E-013  0.7246155E+02  0.7816164E-02  0.1226708E+00
        -11   -1    0    0    0    0  0.00000000000E+00  0.00000000000E+00  0.45593999997E+02  0.45594000000E+02  0.51100000000E-03 0.  1.
         11   -1    0    0    0    0 -0.00000000000E+00 -0.00000000000E+00 -0.45593999997E+02  0.45594000000E+02  0.51100000000E-03 0. -1.
    9900012    2    1    2    0    0  0.12626248263E+02  0.12682470804E+02  0.55147888178E+01  0.72461545274E+02  0.69999967407E+02 0.  0.
        -12    1    1    2    0    0 -0.12626248263E+02 -0.12682470804E+02 -0.55147888178E+01  0.18726454726E+02  0.00000000000E+00 0.  1.
         11    1    3    3    0    0 -0.63448377035E+01  0.14479565946E+02 -0.12132655864E+02  0.19927772932E+02  0.51100000000E-03 0. -1.
        -11    1    3    3    0    0  0.14014027595E+02  0.20373319077E+02  0.16617276783E+02  0.29792599544E+02  0.51100000000E-03 0.  1.
         12    1    3    3    0    0  0.49570583712E+01 -0.22170414219E+02  0.10301678983E+01  0.22741172798E+02  0.00000000000E+00 0. -1.
</event>
<event>
 7    1  0.3440346E-013  0.7246158E+02  0.7816164E-02  0.1226708E+00
        -11   -1    0    0    0    0  0.00000000000E+00  0.00000000000E+00  0.45593999997E+02  0.45594000000E+02  0.51100000000E-03 0.  1.
         11   -1    0    0    0    0 -0.00000000000E+00 -0.00000000000E+00 -0.45593999997E+02  0.45594000000E+02  0.51100000000E-03 0. -1.
    9900012    2    1    2    0    0 -0.51623345152E+01 -0.16358931487E+02 -0.75109670548E+01  0.72461575805E+02  0.70000007178E+02 0.  0.
        -12    1    1    2    0    0  0.51623345152E+01  0.16358931487E+02  0.75109670548E+01  0.18726424195E+02  0.00000000000E+00 0.  1.
         11    1    3    3    0    0  0.93802857873E+01 -0.12726846409E+01 -0.22668252838E+02  0.24565406055E+02  0.51100000000E-03 0. -1.
        -11    1    3    3    0    0 -0.22851483095E+02 -0.22213032842E+02  0.37537623651E+01  0.32088936409E+02  0.51100000000E-03 0.  1.
         12    1    3    3    0    0  0.83088627923E+01  0.71267859962E+01  0.11403523419E+02  0.15807233341E+02  0.00000000000E+00 0. -1.
</event>
<event>
 7    1  0.3440346E-013  0.7246156E+02  0.7816164E-02  0.1226708E+00
        -11   -1    0    0    0    0  0.00000000000E+00  0.00000000000E+00  0.45593999997E+02  0.45594000000E+02  0.51100000000E-03 0.  1.
         11   -1    0    0    0    0 -0.00000000000E+00 -0.00000000000E+00 -0.45593999997E+02  0.45594000000E+02  0.51100000000E-03 0. -1.
    9900012    2    1    2    0    0  0.92130004911E+01 -0.16150674273E+02 -0.22262055088E+01  0.72461557505E+02  0.69999983340E+02 0.  0.
        -12    1    1    2    0    0 -0.92130004911E+01  0.16150674273E+02  0.22262055088E+01  0.18726442495E+02  0.00000000000E+00 0.  1.
         11    1    3    3    0    0 -0.86231752619E+01  0.19349821795E+01 -0.22955750564E+02  0.24598166433E+02  0.51100000000E-03 0. -1.
        -11    1    3    3    0    0 -0.41651925761E+01  0.72662716476E+01 -0.67060186085E-01  0.83756808787E+01  0.51100000000E-03 0.  1.
        -12    1    3    3    0    0  0.22001368329E+02 -0.25351928101E+02  0.20796605242E+02  0.39487710194E+02  0.00000000000E+00 0.  1.
</event>
<event>
 7    1  0.3440346E-013  0.7246231E+02  0.7816164E-02  0.1226706E+00
        -11   -1    0    0    0    0  0.00000000000E+00  0.00000000000E+00  0.45593999997E+02  0.45594000000E+02  0.51100000000E-03 0. -1.
         11   -1    0    0    0    0 -0.00000000000E+00 -0.00000000000E+00 -0.45593999997E+02  0.45594000000E+02  0.51100000000E-03 0.  1.
    9900012    2    1    2    0    0 -0.17317842347E+02  0.28450285227E+01  0.65306708225E+01  0.72462308765E+02  0.70000961988E+02 0.  0.
        -12    1    1    2    0    0  0.17317842347E+02 -0.28450285227E+01 -0.65306708225E+01  0.18725691235E+02  0.00000000000E+00 0.  1.
         11    1    3    3    0    0 -0.18827902431E+02 -0.17820916579E+02  0.27103561461E+01  0.26065705599E+02  0.51100000000E-03 0. -1.
        -11    1    3    3    0    0  0.13015306006E+02 -0.59544358428E+00 -0.11829859463E+02  0.17598247602E+02  0.51100000000E-03 0.  1.
        -12    1    3    3    0    0 -0.11505245921E+02  0.21261388686E+02  0.15650174139E+02  0.28798355564E+02  0.00000000000E+00 0.  1.
</event>
<event>
 7    1  0.3440346E-013  0.7246159E+02  0.7816164E-02  0.1226708E+00
        -11   -1    0    0    0    0  0.00000000000E+00  0.00000000000E+00  0.45593999997E+02  0.45594000000E+02  0.51100000000E-03 0.  1.
         11   -1    0    0    0    0 -0.00000000000E+00 -0.00000000000E+00 -0.45593999997E+02  0.45594000000E+02  0.51100000000E-03 0. -1.
    9900012    2    1    2    0    0  0.57764302319E+01 -0.13021415250E+02 -0.12155411597E+02  0.72461589975E+02  0.70000025637E+02 0.  0.
        -12    1    1    2    0    0 -0.57764302319E+01  0.13021415250E+02  0.12155411597E+02  0.18726410025E+02  0.00000000000E+00 0.  1.
         11    1    3    3    0    0 -0.17830919782E+02  0.54075936820E+01  0.84478461897E+01  0.20458491518E+02  0.51100000000E-03 0.  1.
        -11    1    3    3    0    0  0.11770203949E+02  0.79014754191E+01 -0.18149844380E+02  0.23030151239E+02  0.51100000000E-03 0. -1.
         12    1    3    3    0    0  0.11837146064E+02 -0.26330484351E+02 -0.24534134065E+01  0.28972947217E+02  0.00000000000E+00 0. -1.
</event>
<event>
 7    1  0.3440346E-013  0.7246153E+02  0.7816164E-02  0.1226708E+00
        -11   -1    0    0    0    0  0.00000000000E+00  0.00000000000E+00  0.45593999997E+02  0.45594000000E+02  0.51100000000E-03 0.  1.
         11   -1    0    0    0    0 -0.00000000000E+00 -0.00000000000E+00 -0.45593999997E+02  0.45594000000E+02  0.51100000000E-03 0. -1.
    9900012    2    1    2    0    0 -0.15788589032E+02  0.64592114346E+01  0.77252533102E+01  0.72461534912E+02  0.69999953908E+02 0.  0.
        -12    1    1    2    0    0  0.15788589032E+02 -0.64592114346E+01 -0.77252533102E+01  0.18726465088E+02  0.00000000000E+00 0.  1.
         11    1    3    3    0    0  0.82836979572E+00 -0.26031859901E+01 -0.19633752844E+02  0.19822891434E+02  0.51100000000E-03 0. -1.
        -11    1    3    3    0    0  0.10342894475E+02  0.43076975268E+01 -0.31592859410E+01  0.11640997038E+02  0.51100000000E-03 0.  1.
         12    1    3    3    0    0 -0.26959853303E+02  0.47546998978E+01  0.30518292095E+02  0.40997646440E+02  0.00000000000E+00 0. -1.
</event>
<event>
 7    1  0.3440346E-013  0.7246164E+02  0.7816164E-02  0.1226708E+00
        -11   -1    0    0    0    0  0.00000000000E+00  0.00000000000E+00  0.45593999997E+02  0.45594000000E+02  0.51100000000E-03 0. -1.
         11   -1    0    0    0    0 -0.00000000000E+00 -0.00000000000E+00 -0.45593999997E+02  0.45594000000E+02  0.51100000000E-03 0.  1.
    9900012    2    1    2    0    0  0.13639085807E+02 -0.12696583236E+02  0.18570330106E+01  0.72461642663E+02  0.70000094273E+02 0.  0.
        -12    1    1    2    0    0 -0.13639085807E+02  0.12696583236E+02 -0.18570330106E+01  0.18726357337E+02  0.00000000000E+00 0.  1.
         11    1    3    3    0    0  0.84174820501E+01  0.75140499319E+01  0.11807092130E-01  0.11283398872E+02  0.51100000000E-03 0. -1.
        -11    1    3    3    0    0  0.96322733261E+01 -0.10695282062E+02 -0.26938874147E+02  0.30542964630E+02  0.51100000000E-03 0.  1.
         12    1    3    3    0    0 -0.44106695691E+01 -0.95153511054E+01  0.28784100065E+02  0.30635279161E+02  0.00000000000E+00 0. -1.
</event>
<event>
 7    1  0.3440346E-013  0.7246158E+02  0.7816164E-02  0.1226708E+00
        -11   -1    0    0    0    0  0.00000000000E+00  0.00000000000E+00  0.45593999997E+02  0.45594000000E+02  0.51100000000E-03 0.  1.
         11   -1    0    0    0    0 -0.00000000000E+00 -0.00000000000E+00 -0.45593999997E+02  0.45594000000E+02  0.51100000000E-03 0. -1.
    9900012    2    1    2    0    0  0.88959062796E+01 -0.15799050101E+02 -0.46831443010E+01  0.72461575537E+02  0.70000006829E+02 0.  0.
        -12    1    1    2    0    0 -0.88959062796E+01  0.15799050101E+02  0.46831443010E+01  0.18726424463E+02  0.00000000000E+00 0.  1.
         11    1    3    3    0    0 -0.11922910415E+01 -0.26565165612E+02 -0.13908708552E+01  0.26628257621E+02  0.51100000000E-03 0. -1.
        -11    1    3    3    0    0  0.23712523598E+02 -0.53372131427E+01  0.92042453623E+00  0.24323174158E+02  0.51100000000E-03 0.  1.
        -12    1    3    3    0    0 -0.13624326277E+02  0.16103328654E+02 -0.42126979820E+01  0.21510143759E+02  0.00000000000E+00 0.  1.
</event>
<event>
 7    1  0.3440346E-013  0.7246163E+02  0.7816164E-02  0.1226708E+00
        -11   -1    0    0    0    0  0.00000000000E+00  0.00000000000E+00  0.45593999997E+02  0.45594000000E+02  0.51100000000E-03 0.  1.
         11   -1    0    0    0    0 -0.00000000000E+00 -0.00000000000E+00 -0.45593999997E+02  0.45594000000E+02  0.51100000000E-03 0. -1.
    9900012    2    1    2    0    0 -0.15967240871E+02  0.75476585076E+01  0.62255252979E+01  0.72461625679E+02  0.70000072149E+02 0.  0.
        -12    1    1    2    0    0  0.15967240871E+02 -0.75476585076E+01 -0.62255252979E+01  0.18726374321E+02  0.00000000000E+00 0.  1.
         11    1    3    3    0    0  0.39789442743E+01  0.35336942011E+01  0.13996088270E+02  0.14973626126E+02  0.51100000000E-03 0. -1.
        -11    1    3    3    0    0 -0.13507579400E+02  0.15939492582E+02  0.18513613576E+02  0.27915515630E+02  0.51100000000E-03 0.  1.
         12    1    3    3    0    0 -0.64386057451E+01 -0.11925528276E+02 -0.26284176547E+02  0.29572483923E+02  0.00000000000E+00 0. -1.
</event>
<event>
 7    1  0.3440346E-013  0.7246157E+02  0.7816164E-02  0.1226708E+00
        -11   -1    0    0    0    0  0.00000000000E+00  0.00000000000E+00  0.45593999997E+02  0.45594000000E+02  0.51100000000E-03 0. -1.
         11   -1    0    0    0    0 -0.00000000000E+00 -0.00000000000E+00 -0.45593999997E+02  0.45594000000E+02  0.51100000000E-03 0.  1.
    9900012    2    1    2    0    0  0.86164364743E-01 -0.21161354171E+01  0.18606283469E+02  0.72461568468E+02  0.69999997621E+02 0.  0.
        -12    1    1    2    0    0 -0.86164364743E-01  0.21161354171E+01 -0.18606283469E+02  0.18726431532E+02  0.00000000000E+00 0.  1.
         11    1    3    3    0    0  0.25741778140E+01  0.15752049348E+02 -0.10311410859E+02  0.19002069473E+02  0.51100000000E-03 0. -1.
        -11    1    3    3    0    0  0.10372716348E+02  0.99058852775E+01  0.98310878738E+01  0.17388792270E+02  0.51100000000E-03 0.  1.
        -12    1    3    3    0    0 -0.12860729797E+02 -0.27774070043E+02  0.19086606455E+02  0.36070706725E+02  0.00000000000E+00 0.  1.
</event>
<event>
 7    1  0.3440346E-013  0.7246157E+02  0.7816164E-02  0.1226708E+00
        -11   -1    0    0    0    0  0.00000000000E+00  0.00000000000E+00  0.45593999997E+02  0.45594000000E+02  0.51100000000E-03 0.  1.
         11   -1    0    0    0    0 -0.00000000000E+00 -0.00000000000E+00 -0.45593999997E+02  0.45594000000E+02  0.51100000000E-03 0. -1.
    9900012    2    1    2    0    0  0.75704039651E+01  0.87339817380E+01 -0.14733835505E+02  0.72461565158E+02  0.69999993309E+02 0.  0.
        -12    1    1    2    0    0 -0.75704039651E+01 -0.87339817380E+01  0.14733835505E+02  0.18726434842E+02  0.00000000000E+00 0.  1.
         11    1    3    3    0    0  0.20219605112E+02  0.20661443159E+02 -0.86195958488E+01  0.30166622237E+02  0.51100000000E-03 0. -1.
        -11    1    3    3    0    0  0.14330973902E+01  0.40862767202E+01  0.12972289330E+02  0.13675953944E+02  0.51100000000E-03 0.  1.
        -12    1    3    3    0    0 -0.14082298538E+02 -0.16013738141E+02 -0.19086528986E+02  0.28618988977E+02  0.00000000000E+00 0.  1.
</event>
<event>
 7    1  0.3440346E-013  0.7246092E+02  0.7816164E-02  0.1226710E+00
        -11   -1    0    0    0    0  0.00000000000E+00  0.00000000000E+00  0.45593999997E+02  0.45594000000E+02  0.51100000000E-03 0.  1.
         11   -1    0    0    0    0 -0.00000000000E+00 -0.00000000000E+00 -0.45593999997E+02  0.45594000000E+02  0.51100000000E-03 0. -1.
    9900012    2    1    2    0    0 -0.10353535240E+02  0.84659212265E+01 -0.13108629407E+02  0.72460915894E+02  0.69999147517E+02 0.  0.
        -12    1    1    2    0    0  0.10353535240E+02 -0.84659212265E+01  0.13108629407E+02  0.18727084106E+02  0.00000000000E+00 0.  1.
         11    1    3    3    0    0 -0.64668499634E+01 -0.61956785551E+01 -0.62117613483E+00  0.89773292943E+01  0.51100000000E-03 0. -1.
        -11    1    3    3    0    0 -0.20832589243E+02  0.23317555252E+02 -0.25569453873E+02  0.40391857213E+02  0.51100000000E-03 0.  1.
         12    1    3    3    0    0  0.16945903967E+02 -0.86559554701E+01  0.13082000601E+02  0.23091729387E+02  0.00000000000E+00 0. -1.
</event>
<event>
 7    1  0.3440346E-013  0.7246157E+02  0.7816164E-02  0.1226708E+00
        -11   -1    0    0    0    0  0.00000000000E+00  0.00000000000E+00  0.45593999997E+02  0.45594000000E+02  0.51100000000E-03 0.  1.
         11   -1    0    0    0    0 -0.00000000000E+00 -0.00000000000E+00 -0.45593999997E+02  0.45594000000E+02  0.51100000000E-03 0. -1.
    9900012    2    1    2    0    0  0.15609181391E+02  0.75386908136E+01 -0.70852421787E+01  0.72461573229E+02  0.70000003823E+02 0.  0.
        -12    1    1    2    0    0 -0.15609181391E+02 -0.75386908136E+01  0.70852421787E+01  0.18726426771E+02  0.00000000000E+00 0.  1.
         11    1    3    3    0    0 -0.16490213697E+01  0.74736749821E+01  0.98914101208E+01  0.12506601603E+02  0.51100000000E-03 0. -1.
        -11    1    3    3    0    0  0.11918428680E+02 -0.17939727221E+02  0.12575533755E+02  0.24940465201E+02  0.51100000000E-03 0.  1.
         12    1    3    3    0    0  0.53397740804E+01  0.18004743052E+02 -0.29552186054E+02  0.35014506425E+02  0.00000000000E+00 0. -1.
</event>
<event>
 7    1  0.3440346E-013  0.7246159E+02  0.7816164E-02  0.1226708E+00
        -11   -1    0    0    0    0  0.00000000000E+00  0.00000000000E+00  0.45593999997E+02  0.45594000000E+02  0.51100000000E-03 0.  1.
         11   -1    0    0    0    0 -0.00000000000E+00 -0.00000000000E+00 -0.45593999997E+02  0.45594000000E+02  0.51100000000E-03 0. -1.
    9900012    2    1    2    0    0 -0.55585167154E+01  0.17194629322E+02 -0.49118435856E+01  0.72461585688E+02  0.70000020053E+02 0.  0.
        -12    1    1    2    0    0  0.55585167154E+01 -0.17194629322E+02  0.49118435856E+01  0.18726414312E+02  0.00000000000E+00 0.  1.
         11    1    3    3    0    0  0.12297443167E+02 -0.28608824498E+01 -0.17173670564E+02  0.21315410335E+02  0.51100000000E-03 0. -1.
        -11    1    3    3    0    0  0.53001041544E+01  0.24387560107E+02  0.11745740165E+02  0.27582722931E+02  0.51100000000E-03 0.  1.
         12    1    3    3    0    0 -0.23156064036E+02 -0.43320483355E+01  0.51608681305E+00  0.23563452422E+02  0.00000000000E+00 0. -1.
</event>
<event>
 7    1  0.3440346E-013  0.7246158E+02  0.7816164E-02  0.1226708E+00
        -11   -1    0    0    0    0  0.00000000000E+00  0.00000000000E+00  0.45593999997E+02  0.45594000000E+02  0.51100000000E-03 0.  1.
         11   -1    0    0    0    0 -0.00000000000E+00 -0.00000000000E+00 -0.45593999997E+02  0.45594000000E+02  0.51100000000E-03 0. -1.
    9900012    2    1    2    0    0  0.24054357750E+01  0.11831169977E+02 -0.14314893109E+02  0.72461578318E+02  0.70000010453E+02 0.  0.
        -12    1    1    2    0    0 -0.24054357750E+01 -0.11831169977E+02  0.14314893109E+02  0.18726421682E+02  0.00000000000E+00 0.  1.
         11    1    3    3    0    0  0.63123633678E+01  0.87030692471E+00 -0.36880225165E+02  0.37426653255E+02  0.51100000000E-03 0. -1.
        -11    1    3    3    0    0  0.80375547233E+00 -0.33823499999E+01 -0.34872880631E+01  0.49241743142E+01  0.51100000000E-03 0.  1.
        -12    1    3    3    0    0 -0.47106830651E+01  0.14343213052E+02  0.26052620119E+02  0.30110750749E+02  0.00000000000E+00 0.  1.
</event>
<event>
 7    1  0.3440346E-013  0.7246159E+02  0.7816164E-02  0.1226708E+00
        -11   -1    0    0    0    0  0.00000000000E+00  0.00000000000E+00  0.45593999997E+02  0.45594000000E+02  0.51100000000E-03 0. -1.
         11   -1    0    0    0    0 -0.00000000000E+00 -0.00000000000E+00 -0.45593999997E+02  0.45594000000E+02  0.51100000000E-03 0.  1.
    9900012    2    1    2    0    0 -0.32226554909E+01 -0.54417347687E+01  0.17626127189E+02  0.72461592299E+02  0.70000028665E+02 0.  0.
        -12    1    1    2    0    0  0.32226554909E+01  0.54417347687E+01 -0.17626127189E+02  0.18726407701E+02  0.00000000000E+00 0.  1.
         11    1    3    3    0    0  0.24003858843E+01  0.17101728035E+02  0.11113683196E+02  0.20536428819E+02  0.51100000000E-03 0. -1.
        -11    1    3    3    0    0  0.18311085643E+02 -0.13897151632E+02 -0.57219757605E+01  0.23688978191E+02  0.51100000000E-03 0.  1.
         12    1    3    3    0    0 -0.23934127018E+02 -0.86463111720E+01  0.12234419753E+02  0.28236185289E+02  0.00000000000E+00 0. -1.
</event>
<event>
 7    1  0.3440346E-013  0.7246158E+02  0.7816164E-02  0.1226708E+00
        -11   -1    0    0    0    0  0.00000000000E+00  0.00000000000E+00  0.45593999997E+02  0.45594000000E+02  0.51100000000E-03 0.  1.
         11   -1    0    0    0    0 -0.00000000000E+00 -0.00000000000E+00 -0.45593999997E+02  0.45594000000E+02  0.51100000000E-03 0. -1.
    9900012    2    1    2    0    0 -0.66359424842E+01 -0.15144388695E+01 -0.17445616097E+02  0.72461580728E+02  0.70000013592E+02 0.  0.
        -12    1    1    2    0    0  0.66359424842E+01  0.15144388695E+01  0.17445616097E+02  0.18726419272E+02  0.00000000000E+00 0.  1.
         11    1    3    3    0    0 -0.17155001096E+02  0.76779130384E+01 -0.20407663294E+02  0.27743776467E+02  0.51100000000E-03 0. -1.
        -11    1    3    3    0    0 -0.13199500037E+02 -0.30991960441E+01  0.12496072086E+02  0.18438645156E+02  0.51100000000E-03 0.  1.
        -12    1    3    3    0    0  0.23718558648E+02 -0.60931558638E+01 -0.95340248887E+01  0.26279159106E+02  0.00000000000E+00 0.  1.
</event>
<event>
 7    1  0.3440346E-013  0.7246156E+02  0.7816164E-02  0.1226708E+00
        -11   -1    0    0    0    0  0.00000000000E+00  0.00000000000E+00  0.45593999997E+02  0.45594000000E+02  0.51100000000E-03 0. -1.
         11   -1    0    0    0    0 -0.00000000000E+00 -0.00000000000E+00 -0.45593999997E+02  0.45594000000E+02  0.51100000000E-03 0.  1.
    9900012    2    1    2    0    0 -0.88644867365E+01  0.10200261206E+02  0.12963600817E+02  0.72461564143E+02  0.69999991986E+02 0.  0.
        -12    1    1    2    0    0  0.88644867365E+01 -0.10200261206E+02 -0.12963600817E+02  0.18726435857E+02  0.00000000000E+00 0.  1.
         11    1    3    3    0    0  0.15389698605E+02 -0.61570959351E+01  0.68811480838E+01  0.17947224095E+02  0.51100000000E-03 0. -1.
        -11    1    3    3    0    0  0.12224659650E+02 -0.11947884911E+01 -0.37743338509E+01  0.12849724486E+02  0.51100000000E-03 0.  1.
         12    1    3    3    0    0 -0.36478844991E+02  0.17552145632E+02  0.98567865842E+01  0.41664615562E+02  0.00000000000E+00 0. -1.
</event>
<event>
 7    1  0.3440346E-013  0.7246149E+02  0.7816164E-02  0.1226708E+00
        -11   -1    0    0    0    0  0.00000000000E+00  0.00000000000E+00  0.45593999997E+02  0.45594000000E+02  0.51100000000E-03 0. -1.
         11   -1    0    0    0    0 -0.00000000000E+00 -0.00000000000E+00 -0.45593999997E+02  0.45594000000E+02  0.51100000000E-03 0.  1.
    9900012    2    1    2    0    0 -0.10470125916E+02 -0.14212470831E+02  0.62501319503E+01  0.72461494367E+02  0.69999901091E+02 0.  0.
        -12    1    1    2    0    0  0.10470125916E+02  0.14212470831E+02 -0.62501319503E+01  0.18726505633E+02  0.00000000000E+00 0.  1.
         11    1    3    3    0    0 -0.13097924494E+02 -0.29253997557E+02 -0.33716800735E+01  0.32229182830E+02  0.51100000000E-03 0. -1.
        -11    1    3    3    0    0  0.35349218691E+01 -0.74438016533E+01  0.14982363618E+02  0.17099037268E+02  0.51100000000E-03 0.  1.
         12    1    3    3    0    0 -0.90712329091E+00  0.22485328379E+02 -0.53605515939E+01  0.23133274268E+02  0.00000000000E+00 0. -1.
</event>
<event>
 7    1  0.3440346E-013  0.7246160E+02  0.7816164E-02  0.1226708E+00
        -11   -1    0    0    0    0  0.00000000000E+00  0.00000000000E+00  0.45593999997E+02  0.45594000000E+02  0.51100000000E-03 0.  1.
         11   -1    0    0    0    0 -0.00000000000E+00 -0.00000000000E+00 -0.45593999997E+02  0.45594000000E+02  0.51100000000E-03 0. -1.
    9900012    2    1    2    0    0  0.11658082419E+02 -0.14424055852E+02  0.25911001640E+01  0.72461599572E+02  0.70000038140E+02 0.  0.
        -12    1    1    2    0    0 -0.11658082419E+02  0.14424055852E+02 -0.25911001640E+01  0.18726400428E+02  0.00000000000E+00 0.  1.
         11    1    3    3    0    0  0.19867861633E+02 -0.29295134995E+02 -0.15133864635E+02  0.38496372807E+02  0.51100000000E-03 0. -1.
        -11    1    3    3    0    0 -0.50736826327E+01 -0.52545710864E+01  0.55505679781E+00  0.73253574021E+01  0.51100000000E-03 0.  1.
        -12    1    3    3    0    0 -0.31360965811E+01  0.20125650230E+02  0.17169908001E+02  0.26639869363E+02  0.00000000000E+00 0.  1.
</event>
<event>
 7    1  0.4985897E-013  0.7246162E+02  0.7816164E-02  0.1226708E+00
        -11   -1    0    0    0    0  0.00000000000E+00  0.00000000000E+00  0.45593999997E+02  0.45594000000E+02  0.51100000000E-03 0. -1.
         11   -1    0    0    0    0 -0.00000000000E+00 -0.00000000000E+00 -0.45593999997E+02  0.45594000000E+02  0.51100000000E-03 0.  1.
    9900012    2    1    2    0    0  0.92337169948E+01  0.90426245319E+01  0.13551633438E+02  0.72461618695E+02  0.70000063050E+02 0.  0.
        -12    1    1    2    0    0 -0.92337169948E+01 -0.90426245319E+01 -0.13551633438E+02  0.18726381305E+02  0.00000000000E+00 0.  1.
         11    1    3    3    0    0 -0.40796401713E+01  0.12157690061E+02  0.33979543589E+02  0.36318896932E+02  0.51100000000E-03 0. -1.
        -11    1    3    3    0    0  0.12255699159E+02  0.10456760679E+02 -0.96483719656E+01  0.18778633806E+02  0.51100000000E-03 0.  1.
        -12    1    3    3    0    0  0.10576580071E+01 -0.13571826208E+02 -0.10779538186E+02  0.17364087957E+02  0.00000000000E+00 0.  1.
</event>
<event>
 7    1  0.3440346E-013  0.7246141E+02  0.7816164E-02  0.1226708E+00
        -11   -1    0    0    0    0  0.00000000000E+00  0.00000000000E+00  0.45593999997E+02  0.45594000000E+02  0.51100000000E-03 0. -1.
         11   -1    0    0    0    0 -0.00000000000E+00 -0.00000000000E+00 -0.45593999997E+02  0.45594000000E+02  0.51100000000E-03 0.  1.
    9900012    2    1    2    0    0 -0.48490646915E+01 -0.15741564119E+02  0.89092640048E+01  0.72461407827E+02  0.69999788356E+02 0.  0.
        -12    1    1    2    0    0  0.48490646915E+01  0.15741564119E+02 -0.89092640048E+01  0.18726592173E+02  0.00000000000E+00 0.  1.
         11    1    3    3    0    0  0.67593724393E+01 -0.87318277568E+01  0.21345118013E+01  0.11246780546E+02  0.51100000000E-03 0. -1.
        -11    1    3    3    0    0  0.10958733791E+02 -0.21615879279E+02 -0.13318307230E+02  0.27653524026E+02  0.51100000000E-03 0.  1.
         12    1    3    3    0    0 -0.22567170922E+02  0.14606142917E+02  0.20093059434E+02  0.33561103256E+02  0.00000000000E+00 0. -1.
</event>
<event>
 7    1  0.3440346E-013  0.7246153E+02  0.7816164E-02  0.1226708E+00
        -11   -1    0    0    0    0  0.00000000000E+00  0.00000000000E+00  0.45593999997E+02  0.45594000000E+02  0.51100000000E-03 0.  1.
         11   -1    0    0    0    0 -0.00000000000E+00 -0.00000000000E+00 -0.45593999997E+02  0.45594000000E+02  0.51100000000E-03 0. -1.
    9900012    2    1    2    0    0 -0.12887372428E+02 -0.12616783677E+02 -0.50411234580E+01  0.72461534125E+02  0.69999952882E+02 0.  0.
        -12    1    1    2    0    0  0.12887372428E+02  0.12616783677E+02  0.50411234580E+01  0.18726465875E+02  0.00000000000E+00 0.  1.
         11    1    3    3    0    0 -0.10128156778E+02 -0.50505048246E+01 -0.26973483465E+02  0.29251597720E+02  0.51100000000E-03 0. -1.
        -11    1    3    3    0    0 -0.17699705696E+02 -0.10517656719E+02  0.66529679732E+01  0.21637066985E+02  0.51100000000E-03 0.  1.
        -12    1    3    3    0    0  0.14940490045E+02  0.29513778669E+01  0.15279392034E+02  0.21572869420E+02  0.00000000000E+00 0.  1.
</event>
<event>
 7    1  0.3440346E-013  0.7246181E+02  0.7816164E-02  0.1226707E+00
        -11   -1    0    0    0    0  0.00000000000E+00  0.00000000000E+00  0.45593999997E+02  0.45594000000E+02  0.51100000000E-03 0.  1.
         11   -1    0    0    0    0 -0.00000000000E+00 -0.00000000000E+00 -0.45593999997E+02  0.45594000000E+02  0.51100000000E-03 0. -1.
    9900012    2    1    2    0    0 -0.17826956509E+02 -0.38954861882E+01  0.42065491692E+01  0.72461808531E+02  0.70000310347E+02 0.  0.
        -12    1    1    2    0    0  0.17826956509E+02  0.38954861882E+01 -0.42065491692E+01  0.18726191469E+02  0.00000000000E+00 0.  1.
         11    1    3    3    0    0  0.10906525548E+01  0.13347201901E+02 -0.18101662568E+02  0.22516827254E+02  0.51100000000E-03 0. -1.
        -11    1    3    3    0    0  0.55947960466E+01  0.58862721864E+01 -0.20336951867E+01  0.83717297752E+01  0.51100000000E-03 0.  1.
        -12    1    3    3    0    0 -0.24512405111E+02 -0.23128960276E+02  0.24341906924E+02  0.41573251502E+02  0.00000000000E+00 0.  1.
</event>
<event>
 7    1  0.3440346E-013  0.7246153E+02  0.7816164E-02  0.1226708E+00
        -11   -1    0    0    0    0  0.00000000000E+00  0.00000000000E+00  0.45593999997E+02  0.45594000000E+02  0.51100000000E-03 0.  1.
         11   -1    0    0    0    0 -0.00000000000E+00 -0.00000000000E+00 -0.45593999997E+02  0.45594000000E+02  0.51100000000E-03 0. -1.
    9900012    2    1    2    0    0 -0.14488982830E+02 -0.30343055642E+01  0.11469229709E+02  0.72461525056E+02  0.69999941069E+02 0.  0.
        -12    1    1    2    0    0  0.14488982830E+02  0.30343055642E+01 -0.11469229709E+02  0.18726474944E+02  0.00000000000E+00 0.  1.
         11    1    3    3    0    0 -0.60861507755E+01  0.16955275746E+02 -0.99835223481E+01  0.20595954108E+02  0.51100000000E-03 0. -1.
        -11    1    3    3    0    0  0.11433099362E+02  0.72060545268E+01  0.51269646693E+01  0.14454367846E+02  0.51100000000E-03 0.  1.
         12    1    3    3    0    0 -0.19835931416E+02 -0.27195635837E+02  0.16325787388E+02  0.37411203102E+02  0.00000000000E+00 0. -1.
</event>
<event>
 7    1  0.3440346E-013  0.7246159E+02  0.7816164E-02  0.1226708E+00
        -11   -1    0    0    0    0  0.00000000000E+00  0.00000000000E+00  0.45593999997E+02  0.45594000000E+02  0.51100000000E-03 0. -1.
         11   -1    0    0    0    0 -0.00000000000E+00 -0.00000000000E+00 -0.45593999997E+02  0.45594000000E+02  0.51100000000E-03 0.  1.
    9900012    2    1    2    0    0 -0.14199154221E+02  0.11777552237E+02 -0.32173973926E+01  0.72461591822E+02  0.70000028044E+02 0.  0.
        -12    1    1    2    0    0  0.14199154221E+02 -0.11777552237E+02  0.32173973926E+01  0.18726408178E+02  0.00000000000E+00 0.  1.
         11    1    3    3    0    0 -0.35570808312E+01 -0.16016926058E+02  0.19542374325E+02  0.25516644350E+02  0.51100000000E-03 0. -1.
        -11    1    3    3    0    0 -0.67928694961E+01 -0.31076477601E+01  0.13128275364E+01  0.75844622086E+01  0.51100000000E-03 0.  1.
        -12    1    3    3    0    0 -0.38492038934E+01  0.30902126055E+02 -0.24072599254E+02  0.39360485263E+02  0.00000000000E+00 0.  1.
</event>
<event>
 7    1  0.3440346E-013  0.7246158E+02  0.7816164E-02  0.1226708E+00
        -11   -1    0    0    0    0  0.00000000000E+00  0.00000000000E+00  0.45593999997E+02  0.45594000000E+02  0.51100000000E-03 0. -1.
         11   -1    0    0    0    0 -0.00000000000E+00 -0.00000000000E+00 -0.45593999997E+02  0.45594000000E+02  0.51100000000E-03 0.  1.
    9900012    2    1    2    0    0 -0.16126905941E+02 -0.67673097622E+01 -0.66936599449E+01  0.72461583896E+02  0.70000017719E+02 0.  0.
        -12    1    1    2    0    0  0.16126905941E+02  0.67673097622E+01  0.66936599449E+01  0.18726416104E+02  0.00000000000E+00 0.  1.
         11    1    3    3    0    0  0.34247445862E+01 -0.73335268978E+01  0.51397641545E+00  0.81100964395E+01  0.51100000000E-03 0. -1.
        -11    1    3    3    0    0  0.57624958490E+01 -0.20598965968E+02 -0.19690205087E+02  0.29072804026E+02  0.51100000000E-03 0.  1.
         12    1    3    3    0    0 -0.25314146376E+02  0.21165183103E+02  0.12482568726E+02  0.35278683430E+02  0.00000000000E+00 0. -1.
</event>
<event>
 7    1  0.3440346E-013  0.7246161E+02  0.7816164E-02  0.1226708E+00
        -11   -1    0    0    0    0  0.00000000000E+00  0.00000000000E+00  0.45593999997E+02  0.45594000000E+02  0.51100000000E-03 0.  1.
         11   -1    0    0    0    0 -0.00000000000E+00 -0.00000000000E+00 -0.45593999997E+02  0.45594000000E+02  0.51100000000E-03 0. -1.
    9900012    2    1    2    0    0 -0.68523150028E+01 -0.96908696679E+01 -0.14484839288E+02  0.72461608329E+02  0.70000049547E+02 0.  0.
        -12    1    1    2    0    0  0.68523150028E+01  0.96908696679E+01  0.14484839288E+02  0.18726391671E+02  0.00000000000E+00 0.  1.
         11    1    3    3    0    0 -0.44029297491E+01  0.83157731799E+01  0.41767720244E+00  0.94187222308E+01  0.51100000000E-03 0. -1.
        -11    1    3    3    0    0 -0.12750006473E+01  0.20393231586E+02  0.30113908701E+01  0.20653764703E+02  0.51100000000E-03 0.  1.
        -12    1    3    3    0    0 -0.11743846064E+01 -0.38399874434E+02 -0.17913907360E+02  0.42389121395E+02  0.00000000000E+00 0.  1.
</event>
<event>
 7    1  0.3440346E-013  0.7246155E+02  0.7816164E-02  0.1226708E+00
        -11   -1    0    0    0    0  0.00000000000E+00  0.00000000000E+00  0.45593999997E+02  0.45594000000E+02  0.51100000000E-03 0. -1.
         11   -1    0    0    0    0 -0.00000000000E+00 -0.00000000000E+00 -0.45593999997E+02  0.45594000000E+02  0.51100000000E-03 0.  1.
    9900012    2    1    2    0    0  0.13486733999E+02  0.99913192357E+01  0.83043060930E+01  0.72461549357E+02  0.69999972725E+02 0.  0.
        -12    1    1    2    0    0 -0.13486733999E+02 -0.99913192357E+01 -0.83043060930E+01  0.18726450643E+02  0.00000000000E+00 0.  1.
         11    1    3    3    0    0  0.25910287773E+01 -0.11374560599E+02  0.89348827908E+01  0.14694427164E+02  0.51100000000E-03 0. -1.
        -11    1    3    3    0    0  0.65523960984E+01  0.12057754530E+01  0.24424213899E+02  0.25316595622E+02  0.51100000000E-03 0.  1.
        -12    1    3    3    0    0  0.43433091229E+01  0.20160104382E+02 -0.25054790597E+02  0.32450526570E+02  0.00000000000E+00 0.  1.
</event>
<event>
 7    1  0.3440346E-013  0.7246156E+02  0.7816164E-02  0.1226708E+00
        -11   -1    0    0    0    0  0.00000000000E+00  0.00000000000E+00  0.45593999997E+02  0.45594000000E+02  0.51100000000E-03 0. -1.
         11   -1    0    0    0    0 -0.00000000000E+00 -0.00000000000E+00 -0.45593999997E+02  0.45594000000E+02  0.51100000000E-03 0.  1.
    9900012    2    1    2    0    0 -0.23521442570E+01  0.17089245869E+02  0.72872910422E+01  0.72461560998E+02  0.69999987889E+02 0.  0.
        -12    1    1    2    0    0  0.23521442570E+01 -0.17089245869E+02 -0.72872910422E+01  0.18726439002E+02  0.00000000000E+00 0.  1.
         11    1    3    3    0    0 -0.17381694091E+02  0.18705548859E+02  0.20796771267E+02  0.32932150597E+02  0.51100000000E-03 0. -1.
        -11    1    3    3    0    0 -0.10537729029E+02  0.18015102069E+01 -0.65880575493E+00  0.10710891531E+02  0.51100000000E-03 0.  1.
         12    1    3    3    0    0  0.25567278862E+02 -0.34178131973E+01 -0.12850674470E+02  0.28818518869E+02  0.00000000000E+00 0. -1.
</event>
<event>
 7    1  0.3440346E-013  0.7246153E+02  0.7816164E-02  0.1226708E+00
        -11   -1    0    0    0    0  0.00000000000E+00  0.00000000000E+00  0.45593999997E+02  0.45594000000E+02  0.51100000000E-03 0.  1.
         11   -1    0    0    0    0 -0.00000000000E+00 -0.00000000000E+00 -0.45593999997E+02  0.45594000000E+02  0.51100000000E-03 0. -1.
    9900012    2    1    2    0    0  0.10409266307E+02  0.90885530831E+01 -0.12638280875E+02  0.72461527677E+02  0.69999944483E+02 0.  0.
        -12    1    1    2    0    0 -0.10409266307E+02 -0.90885530831E+01  0.12638280875E+02  0.18726472323E+02  0.00000000000E+00 0.  1.
         11    1    3    3    0    0 -0.98916952783E+01 -0.10815126934E+02 -0.26924934661E+02  0.30655582083E+02  0.51100000000E-03 0. -1.
        -11    1    3    3    0    0 -0.23787990225E+01 -0.50314642275E+01  0.15998824789E+01  0.57908497881E+01  0.51100000000E-03 0.  1.
        -12    1    3    3    0    0  0.22679760607E+02  0.24935144245E+02  0.12686771307E+02  0.36015095806E+02  0.00000000000E+00 0.  1.
</event>
<event>
 7    1  0.3440346E-013  0.7246156E+02  0.7816164E-02  0.1226708E+00
        -11   -1    0    0    0    0  0.00000000000E+00  0.00000000000E+00  0.45593999997E+02  0.45594000000E+02  0.51100000000E-03 0. -1.
         11   -1    0    0    0    0 -0.00000000000E+00 -0.00000000000E+00 -0.45593999997E+02  0.45594000000E+02  0.51100000000E-03 0.  1.
    9900012    2    1    2    0    0  0.16850665771E+02  0.77079256488E+00 -0.81326717204E+01  0.72461563943E+02  0.69999991726E+02 0.  0.
        -12    1    1    2    0    0 -0.16850665771E+02 -0.77079256488E+00  0.81326717204E+01  0.18726436057E+02  0.00000000000E+00 0.  1.
         11    1    3    3    0    0  0.11592371675E+02 -0.24229194511E+02  0.54451991208E+01  0.27405969084E+02  0.51100000000E-03 0. -1.
        -11    1    3    3    0    0  0.44148564775E+01  0.15964376542E+01 -0.20184126042E+02  0.20722898331E+02  0.51100000000E-03 0.  1.
        -12    1    3    3    0    0  0.84343761797E+00  0.23403549421E+02  0.66062552008E+01  0.24332696528E+02  0.00000000000E+00 0.  1.
</event>
<event>
 7    1  0.3440346E-013  0.7246158E+02  0.7816164E-02  0.1226708E+00
        -11   -1    0    0    0    0  0.00000000000E+00  0.00000000000E+00  0.45593999997E+02  0.45594000000E+02  0.51100000000E-03 0.  1.
         11   -1    0    0    0    0 -0.00000000000E+00 -0.00000000000E+00 -0.45593999997E+02  0.45594000000E+02  0.51100000000E-03 0. -1.
    9900012    2    1    2    0    0  0.26922594041E+01  0.18404228148E+02 -0.21713915596E+01  0.72461579741E+02  0.70000012306E+02 0.  0.
        -12    1    1    2    0    0 -0.26922594041E+01 -0.18404228148E+02  0.21713915596E+01  0.18726420259E+02  0.00000000000E+00 0.  1.
         11    1    3    3    0    0 -0.68621794842E+01 -0.15568280830E+01  0.97134234990E+00  0.71032898840E+01  0.51100000000E-03 0. -1.
        -11    1    3    3    0    0 -0.25172507123E+02  0.17106345642E+02 -0.18132956229E+01  0.30488853986E+02  0.51100000000E-03 0.  1.
         12    1    3    3    0    0  0.34726946012E+02  0.28547105888E+01 -0.13294382866E+01  0.34869435872E+02  0.00000000000E+00 0. -1.
</event>
<event>
 7    1  0.3440346E-013  0.7246158E+02  0.7816164E-02  0.1226708E+00
        -11   -1    0    0    0    0  0.00000000000E+00  0.00000000000E+00  0.45593999997E+02  0.45594000000E+02  0.51100000000E-03 0.  1.
         11   -1    0    0    0    0 -0.00000000000E+00 -0.00000000000E+00 -0.45593999997E+02  0.45594000000E+02  0.51100000000E-03 0. -1.
    9900012    2    1    2    0    0 -0.83397384449E+01  0.16310853351E+02 -0.38837580098E+01  0.72461581478E+02  0.70000014569E+02 0.  0.
        -12    1    1    2    0    0  0.83397384449E+01 -0.16310853351E+02  0.38837580098E+01  0.18726418522E+02  0.00000000000E+00 0.  1.
         11    1    3    3    0    0  0.13433227990E+02  0.15332120494E+02  0.96181202514E+01  0.22539604488E+02  0.51100000000E-03 0. -1.
        -11    1    3    3    0    0  0.11641977005E+02  0.56670145072E+01 -0.92505095949E+01  0.15912969868E+02  0.51100000000E-03 0.  1.
        -12    1    3    3    0    0 -0.33414943439E+02 -0.46882816495E+01 -0.42513686664E+01  0.34009007122E+02  0.00000000000E+00 0.  1.
</event>
<event>
 7    1  0.3440346E-013  0.7246151E+02  0.7816164E-02  0.1226708E+00
        -11   -1    0    0    0    0  0.00000000000E+00  0.00000000000E+00  0.45593999997E+02  0.45594000000E+02  0.51100000000E-03 0. -1.
         11   -1    0    0    0    0 -0.00000000000E+00 -0.00000000000E+00 -0.45593999997E+02  0.45594000000E+02  0.51100000000E-03 0.  1.
    9900012    2    1    2    0    0  0.30798197918E+00 -0.91438121144E+01  0.16339442297E+02  0.72461507337E+02  0.69999917986E+02 0.  0.
        -12    1    1    2    0    0 -0.30798197918E+00  0.91438121144E+01 -0.16339442297E+02  0.18726492663E+02  0.00000000000E+00 0.  1.
         11    1    3    3    0    0  0.48648975896E+01 -0.59785218043E+01 -0.26375688580E+01  0.81465772729E+01  0.51100000000E-03 0.  1.
        -11    1    3    3    0    0 -0.23979959014E+02  0.13914823878E+02 -0.59915652675E+01  0.28364760046E+02  0.51100000000E-03 0. -1.
         12    1    3    3    0    0  0.19423043404E+02 -0.17080114188E+02  0.24968576422E+02  0.35950170018E+02  0.00000000000E+00 0. -1.
</event>
<event>
 7    1  0.3440346E-013  0.7246153E+02  0.7816164E-02  0.1226708E+00
        -11   -1    0    0    0    0  0.00000000000E+00  0.00000000000E+00  0.45593999997E+02  0.45594000000E+02  0.51100000000E-03 0.  1.
         11   -1    0    0    0    0 -0.00000000000E+00 -0.00000000000E+00 -0.45593999997E+02  0.45594000000E+02  0.51100000000E-03 0. -1.
    9900012    2    1    2    0    0  0.13249451233E+02  0.11642219861E+02 -0.62921866943E+01  0.72461525300E+02  0.69999941387E+02 0.  0.
        -12    1    1    2    0    0 -0.13249451233E+02 -0.11642219861E+02  0.62921866943E+01  0.18726474700E+02  0.00000000000E+00 0.  1.
         11    1    3    3    0    0  0.33982369786E+01 -0.55601465965E+01  0.20357006750E+02  0.21374540201E+02  0.51100000000E-03 0. -1.
        -11    1    3    3    0    0  0.11210281728E+02 -0.10005944450E+01  0.66790319949E+01  0.13087439563E+02  0.51100000000E-03 0.  1.
         12    1    3    3    0    0 -0.13590674732E+01  0.18202960903E+02 -0.33328225439E+02  0.37999545536E+02  0.00000000000E+00 0. -1.
</event>
<event>
 7    1  0.3440346E-013  0.7246158E+02  0.7816164E-02  0.1226708E+00
        -11   -1    0    0    0    0  0.00000000000E+00  0.00000000000E+00  0.45593999997E+02  0.45594000000E+02  0.51100000000E-03 0.  1.
         11   -1    0    0    0    0 -0.00000000000E+00 -0.00000000000E+00 -0.45593999997E+02  0.45594000000E+02  0.51100000000E-03 0. -1.
    9900012    2    1    2    0    0 -0.67470480404E+01 -0.35285833214E+01 -0.17108629857E+02  0.72461580879E+02  0.70000013788E+02 0.  0.
        -12    1    1    2    0    0  0.67470480404E+01  0.35285833214E+01  0.17108629857E+02  0.18726419121E+02  0.00000000000E+00 0.  1.
         11    1    3    3    0    0  0.14869947253E+02 -0.20677210100E+01 -0.32490604797E+01  0.15360572768E+02  0.51100000000E-03 0. -1.
        -11    1    3    3    0    0 -0.39138882783E+01 -0.10612433774E+00  0.19189393702E+02  0.19584754651E+02  0.51100000000E-03 0.  1.
         12    1    3    3    0    0 -0.17703107015E+02 -0.13547379736E+01 -0.33048963080E+02  0.37516253459E+02  0.00000000000E+00 0. -1.
</event>
<event>
 7    1  0.3440346E-013  0.7246155E+02  0.7816164E-02  0.1226708E+00
        -11   -1    0    0    0    0  0.00000000000E+00  0.00000000000E+00  0.45593999997E+02  0.45594000000E+02  0.51100000000E-03 0. -1.
         11   -1    0    0    0    0 -0.00000000000E+00 -0.00000000000E+00 -0.45593999997E+02  0.45594000000E+02  0.51100000000E-03 0.  1.
    9900012    2    1    2    0    0 -0.17230577526E+02 -0.65817327054E+01  0.32354220056E+01  0.72461549112E+02  0.69999972406E+02 0.  0.
        -12    1    1    2    0    0  0.17230577526E+02  0.65817327054E+01 -0.32354220056E+01  0.18726450888E+02  0.00000000000E+00 0.  1.
         11    1    3    3    0    0 -0.29185484505E+02 -0.52136475611E+01  0.20042162242E+02  0.35786350670E+02  0.51100000000E-03 0. -1.
        -11    1    3    3    0    0 -0.78830355733E-01 -0.12215935831E+02  0.14087142985E+01  0.12297145144E+02  0.51100000000E-03 0.  1.
        -12    1    3    3    0    0  0.12033737334E+02  0.10847850686E+02 -0.18215454535E+02  0.24378053299E+02  0.00000000000E+00 0.  1.
</event>
<event>
 7    1  0.3440346E-013  0.7246156E+02  0.7816164E-02  0.1226708E+00
        -11   -1    0    0    0    0  0.00000000000E+00  0.00000000000E+00  0.45593999997E+02  0.45594000000E+02  0.51100000000E-03 0.  1.
         11   -1    0    0    0    0 -0.00000000000E+00 -0.00000000000E+00 -0.45593999997E+02  0.45594000000E+02  0.51100000000E-03 0. -1.
    9900012    2    1    2    0    0  0.82719956867E+01  0.10833749171E+02 -0.12840699485E+02  0.72461558880E+02  0.69999985131E+02 0.  0.
        -12    1    1    2    0    0 -0.82719956867E+01 -0.10833749171E+02  0.12840699485E+02  0.18726441120E+02  0.00000000000E+00 0.  1.
         11    1    3    3    0    0 -0.19616883620E+02  0.26757449795E+01 -0.25291078014E+02  0.32118847450E+02  0.51100000000E-03 0. -1.
        -11    1    3    3    0    0  0.71384621876E+00 -0.69892632830E+01  0.40822144906E+01  0.81255063271E+01  0.51100000000E-03 0.  1.
         12    1    3    3    0    0  0.27175033087E+02  0.15147267475E+02  0.83681640384E+01  0.32217205103E+02  0.00000000000E+00 0. -1.
</event>
<event>
 7    1  0.3440346E-013  0.7246156E+02  0.7816164E-02  0.1226708E+00
        -11   -1    0    0    0    0  0.00000000000E+00  0.00000000000E+00  0.45593999997E+02  0.45594000000E+02  0.51100000000E-03 0.  1.
         11   -1    0    0    0    0 -0.00000000000E+00 -0.00000000000E+00 -0.45593999997E+02  0.45594000000E+02  0.51100000000E-03 0. -1.
    9900012    2    1    2    0    0 -0.10219615894E+02 -0.24726441673E+01 -0.15495974008E+02  0.72461555365E+02  0.69999980552E+02 0.  0.
        -12    1    1    2    0    0  0.10219615894E+02  0.24726441673E+01  0.15495974008E+02  0.18726444635E+02  0.00000000000E+00 0.  1.
         11    1    3    3    0    0 -0.22856192994E+02  0.71639426865E+01 -0.22391301613E+02  0.32788687396E+02  0.51100000000E-03 0. -1.
        -11    1    3    3    0    0  0.17077262779E+01  0.11868576820E+02 -0.47360904772E+01  0.12892245655E+02  0.51100000000E-03 0.  1.
        -12    1    3    3    0    0  0.10928850822E+02 -0.21505163673E+02  0.11631418082E+02  0.26780622314E+02  0.00000000000E+00 0.  1.
</event>
<event>
 7    1  0.3440346E-013  0.7246160E+02  0.7816164E-02  0.1226708E+00
        -11   -1    0    0    0    0  0.00000000000E+00  0.00000000000E+00  0.45593999997E+02  0.45594000000E+02  0.51100000000E-03 0.  1.
         11   -1    0    0    0    0 -0.00000000000E+00 -0.00000000000E+00 -0.45593999997E+02  0.45594000000E+02  0.51100000000E-03 0. -1.
    9900012    2    1    2    0    0 -0.94886065859E+01  0.10126380323E+02 -0.12573814947E+02  0.72461600033E+02  0.70000038741E+02 0.  0.
        -12    1    1    2    0    0  0.94886065859E+01 -0.10126380323E+02  0.12573814947E+02  0.18726399967E+02  0.00000000000E+00 0.  1.
         11    1    3    3    0    0  0.10520473993E+02  0.80620926816E+01 -0.34330274971E+02  0.36800074610E+02  0.51100000000E-03 0. -1.
        -11    1    3    3    0    0  0.33223480857E+01  0.43191050953E+00 -0.48605338793E+00  0.33853790996E+01  0.51100000000E-03 0.  1.
        -12    1    3    3    0    0 -0.23331428664E+02  0.16323771318E+01  0.22242513412E+02  0.32276146324E+02  0.00000000000E+00 0.  1.
</event>
<event>
 7    1  0.3440346E-013  0.7246157E+02  0.7816164E-02  0.1226708E+00
        -11   -1    0    0    0    0  0.00000000000E+00  0.00000000000E+00  0.45593999997E+02  0.45594000000E+02  0.51100000000E-03 0. -1.
         11   -1    0    0    0    0 -0.00000000000E+00 -0.00000000000E+00 -0.45593999997E+02  0.45594000000E+02  0.51100000000E-03 0.  1.
    9900012    2    1    2    0    0  0.14939389116E+02 -0.10335117275E+02 -0.45474390921E+01  0.72461569519E+02  0.69999998991E+02 0.  0.
        -12    1    1    2    0    0 -0.14939389116E+02  0.10335117275E+02  0.45474390921E+01  0.18726430481E+02  0.00000000000E+00 0.  1.
         11    1    3    3    0    0  0.39751868952E+01 -0.72279319908E+01 -0.10372025852E+01  0.83138980737E+01  0.51100000000E-03 0. -1.
        -11    1    3    3    0    0  0.32656700351E+02 -0.45313411328E+01 -0.18439534840E+02  0.37775780279E+02  0.51100000000E-03 0.  1.
         12    1    3    3    0    0 -0.21692498130E+02  0.14241558487E+01  0.14929298333E+02  0.26371891167E+02  0.00000000000E+00 0. -1.
</event>
<event>
 7    1  0.3440346E-013  0.7246156E+02  0.7816164E-02  0.1226708E+00
        -11   -1    0    0    0    0  0.00000000000E+00  0.00000000000E+00  0.45593999997E+02  0.45594000000E+02  0.51100000000E-03 0. -1.
         11   -1    0    0    0    0 -0.00000000000E+00 -0.00000000000E+00 -0.45593999997E+02  0.45594000000E+02  0.51100000000E-03 0.  1.
    9900012    2    1    2    0    0  0.91318475694E+01  0.11711402938E+02  0.11407532156E+02  0.72461564442E+02  0.69999992377E+02 0.  0.
        -12    1    1    2    0    0 -0.91318475694E+01 -0.11711402938E+02 -0.11407532156E+02  0.18726435558E+02  0.00000000000E+00 0.  1.
         11    1    3    3    0    0  0.22231087125E+01  0.86507387555E+01  0.88542342512E+01  0.12576762612E+02  0.51100000000E-03 0. -1.
        -11    1    3    3    0    0  0.11722369983E+02 -0.81582816109E+01 -0.25535333934E+02  0.29257901433E+02  0.51100000000E-03 0.  1.
         12    1    3    3    0    0 -0.48136311265E+01  0.11218945793E+02  0.28088631839E+02  0.30626900397E+02  0.00000000000E+00 0. -1.
</event>
<event>
 7    1  0.3440346E-013  0.7246159E+02  0.7816164E-02  0.1226708E+00
        -11   -1    0    0    0    0  0.00000000000E+00  0.00000000000E+00  0.45593999997E+02  0.45594000000E+02  0.51100000000E-03 0.  1.
         11   -1    0    0    0    0 -0.00000000000E+00 -0.00000000000E+00 -0.45593999997E+02  0.45594000000E+02  0.51100000000E-03 0. -1.
    9900012    2    1    2    0    0 -0.16269574627E+02  0.66497570255E+01 -0.64622015361E+01  0.72461591489E+02  0.70000027610E+02 0.  0.
        -12    1    1    2    0    0  0.16269574627E+02 -0.66497570255E+01  0.64622015361E+01  0.18726408511E+02  0.00000000000E+00 0.  1.
         11    1    3    3    0    0 -0.18690904890E+01 -0.15619606617E+02 -0.30553632397E+02  0.34365535978E+02  0.51100000000E-03 0. -1.
        -11    1    3    3    0    0  0.18366750348E+01  0.22048020780E+01  0.12298147729E+00  0.28722207595E+01  0.51100000000E-03 0.  1.
        -12    1    3    3    0    0 -0.16237159173E+02  0.20064561565E+02  0.23968449383E+02  0.35223834752E+02  0.00000000000E+00 0.  1.
</event>
<event>
 7    1  0.3440346E-013  0.7246162E+02  0.7816164E-02  0.1226708E+00
        -11   -1    0    0    0    0  0.00000000000E+00  0.00000000000E+00  0.45593999997E+02  0.45594000000E+02  0.51100000000E-03 0. -1.
         11   -1    0    0    0    0 -0.00000000000E+00 -0.00000000000E+00 -0.45593999997E+02  0.45594000000E+02  0.51100000000E-03 0.  1.
    9900012    2    1    2    0    0  0.38945238152E+01 -0.16009932347E+02  0.88989839315E+01  0.72461623829E+02  0.70000069738E+02 0.  0.
        -12    1    1    2    0    0 -0.38945238152E+01  0.16009932347E+02 -0.88989839315E+01  0.18726376171E+02  0.00000000000E+00 0.  1.
         11    1    3    3    0    0  0.11809032275E+02  0.72154029782E+00  0.17671583363E+02  0.21266375396E+02  0.51100000000E-03 0. -1.
        -11    1    3    3    0    0  0.17691605753E+02 -0.16427500503E+02 -0.84714313188E+01  0.25585559126E+02  0.51100000000E-03 0.  1.
         12    1    3    3    0    0 -0.25606114213E+02 -0.30397214145E+00 -0.30116811268E+00  0.25609689307E+02  0.00000000000E+00 0. -1.
</event>
<event>
 7    1  0.3440346E-013  0.7246149E+02  0.7816164E-02  0.1226708E+00
        -11   -1    0    0    0    0  0.00000000000E+00  0.00000000000E+00  0.45593999997E+02  0.45594000000E+02  0.51100000000E-03 0. -1.
         11   -1    0    0    0    0 -0.00000000000E+00 -0.00000000000E+00 -0.45593999997E+02  0.45594000000E+02  0.51100000000E-03 0.  1.
    9900012    2    1    2    0    0  0.19288534394E+01 -0.15835113842E+02  0.98087096343E+01  0.72461492300E+02  0.69999898397E+02 0.  0.
        -12    1    1    2    0    0 -0.19288534394E+01  0.15835113842E+02 -0.98087096343E+01  0.18726507700E+02  0.00000000000E+00 0.  1.
         11    1    3    3    0    0 -0.78898787288E+01 -0.70812697530E+01  0.42218152523E+01  0.11411322971E+02  0.51100000000E-03 0. -1.
        -11    1    3    3    0    0 -0.77202607564E+01 -0.31225772753E+02  0.48889936700E+01  0.32535420230E+02  0.51100000000E-03 0.  1.
         12    1    3    3    0    0  0.17538992925E+02  0.22471928665E+02  0.69790071195E+00  0.28514749098E+02  0.00000000000E+00 0. -1.
</event>
<event>
 7    1  0.3440346E-013  0.7246159E+02  0.7816164E-02  0.1226708E+00
        -11   -1    0    0    0    0  0.00000000000E+00  0.00000000000E+00  0.45593999997E+02  0.45594000000E+02  0.51100000000E-03 0.  1.
         11   -1    0    0    0    0 -0.00000000000E+00 -0.00000000000E+00 -0.45593999997E+02  0.45594000000E+02  0.51100000000E-03 0. -1.
    9900012    2    1    2    0    0  0.93259047199E+01 -0.11240167026E+02  0.11720262507E+02  0.72461590658E+02  0.70000026527E+02 0.  0.
        -12    1    1    2    0    0 -0.93259047199E+01  0.11240167026E+02 -0.11720262507E+02  0.18726409342E+02  0.00000000000E+00 0.  1.
         11    1    3    3    0    0  0.13668550576E+02 -0.59063213111E+01 -0.20217532988E+01  0.15026689354E+02  0.51100000000E-03 0. -1.
        -11    1    3    3    0    0  0.11402575647E+01 -0.17188399799E+02  0.31195362968E+02  0.35635543295E+02  0.51100000000E-03 0.  1.
        -12    1    3    3    0    0 -0.54829034207E+01  0.11854554084E+02 -0.17453347162E+02  0.21799358009E+02  0.00000000000E+00 0.  1.
</event>
<event>
 7    1  0.3440346E-013  0.7246155E+02  0.7816164E-02  0.1226708E+00
        -11   -1    0    0    0    0  0.00000000000E+00  0.00000000000E+00  0.45593999997E+02  0.45594000000E+02  0.51100000000E-03 0.  1.
         11   -1    0    0    0    0 -0.00000000000E+00 -0.00000000000E+00 -0.45593999997E+02  0.45594000000E+02  0.51100000000E-03 0. -1.
    9900012    2    1    2    0    0 -0.14444583831E+02  0.74963229302E+01 -0.92649306852E+01  0.72461553457E+02  0.69999978067E+02 0.  0.
        -12    1    1    2    0    0  0.14444583831E+02 -0.74963229302E+01  0.92649306852E+01  0.18726446543E+02  0.00000000000E+00 0.  1.
         11    1    3    3    0    0 -0.11734936944E+02  0.33210664360E+02  0.34224111094E+01  0.35388838217E+02  0.51100000000E-03 0. -1.
        -11    1    3    3    0    0  0.20842541640E+00 -0.24302118395E+01  0.63839192811E+01  0.68340175876E+01  0.51100000000E-03 0.  1.
        -12    1    3    3    0    0 -0.29180723026E+01 -0.23284129590E+02 -0.19071261076E+02  0.30238697653E+02  0.00000000000E+00 0.  1.
</event>
<event>
 7    1  0.3440346E-013  0.7246156E+02  0.7816164E-02  0.1226708E+00
        -11   -1    0    0    0    0  0.00000000000E+00  0.00000000000E+00  0.45593999997E+02  0.45594000000E+02  0.51100000000E-03 0. -1.
         11   -1    0    0    0    0 -0.00000000000E+00 -0.00000000000E+00 -0.45593999997E+02  0.45594000000E+02  0.51100000000E-03 0.  1.
    9900012    2    1    2    0    0  0.93605104374E+01 -0.16209465207E+02  0.56018610052E+00  0.72461555426E+02  0.69999980631E+02 0.  0.
        -12    1    1    2    0    0 -0.93605104374E+01  0.16209465207E+02 -0.56018610052E+00  0.18726444574E+02  0.00000000000E+00 0.  1.
         11    1    3    3    0    0  0.14418926497E+02 -0.11326266698E+02 -0.26094951330E+01  0.18520238221E+02  0.51100000000E-03 0. -1.
        -11    1    3    3    0    0  0.10891798063E+02 -0.18096022248E+02 -0.15387652638E+02  0.26131918036E+02  0.51100000000E-03 0.  1.
        -12    1    3    3    0    0 -0.15950214123E+02  0.13212823739E+02  0.18557333872E+02  0.27809399169E+02  0.00000000000E+00 0.  1.
</event>
<event>
 7    1  0.3440346E-013  0.7246159E+02  0.7816164E-02  0.1226708E+00
        -11   -1    0    0    0    0  0.00000000000E+00  0.00000000000E+00  0.45593999997E+02  0.45594000000E+02  0.51100000000E-03 0.  1.
         11   -1    0    0    0    0 -0.00000000000E+00 -0.00000000000E+00 -0.45593999997E+02  0.45594000000E+02  0.51100000000E-03 0. -1.
    9900012    2    1    2    0    0 -0.15896011541E+02 -0.90750574944E+01 -0.39545451431E+01  0.72461594078E+02  0.70000030983E+02 0.  0.
        -12    1    1    2    0    0  0.15896011541E+02  0.90750574944E+01  0.39545451431E+01  0.18726405922E+02  0.00000000000E+00 0.  1.
         11    1    3    3    0    0 -0.31620932110E+01 -0.77217075526E+01 -0.26869247702E+02  0.28135032847E+02  0.51100000000E-03 0. -1.
        -11    1    3    3    0    0  0.87609552449E+01  0.57327110512E+01 -0.20081235409E+01  0.10660716356E+02  0.51100000000E-03 0.  1.
        -12    1    3    3    0    0 -0.21494873575E+02 -0.70860609930E+01  0.24922826099E+02  0.33665844876E+02  0.00000000000E+00 0.  1.
</event>
<event>
 7    1  0.3440346E-013  0.7246153E+02  0.7816164E-02  0.1226708E+00
        -11   -1    0    0    0    0  0.00000000000E+00  0.00000000000E+00  0.45593999997E+02  0.45594000000E+02  0.51100000000E-03 0. -1.
         11   -1    0    0    0    0 -0.00000000000E+00 -0.00000000000E+00 -0.45593999997E+02  0.45594000000E+02  0.51100000000E-03 0.  1.
    9900012    2    1    2    0    0 -0.13806287276E+02 -0.64888008832E+01  0.10861058963E+02  0.72461529242E+02  0.69999946522E+02 0.  0.
        -12    1    1    2    0    0  0.13806287276E+02  0.64888008832E+01 -0.10861058963E+02  0.18726470758E+02  0.00000000000E+00 0.  1.
         11    1    3    3    0    0 -0.33512543182E+02 -0.10302904108E+02  0.75493478223E+01  0.35864091183E+02  0.51100000000E-03 0. -1.
        -11    1    3    3    0    0 -0.13014005032E+01 -0.56819401377E+01  0.10871306262E+02  0.12335452448E+02  0.51100000000E-03 0.  1.
        -12    1    3    3    0    0  0.21007656409E+02  0.94960433624E+01 -0.75595951211E+01  0.24261985610E+02  0.00000000000E+00 0.  1.
</event>
<event>
 7    1  0.3440346E-013  0.7246159E+02  0.7816164E-02  0.1226708E+00
        -11   -1    0    0    0    0  0.00000000000E+00  0.00000000000E+00  0.45593999997E+02  0.45594000000E+02  0.51100000000E-03 0.  1.
         11   -1    0    0    0    0 -0.00000000000E+00 -0.00000000000E+00 -0.45593999997E+02  0.45594000000E+02  0.51100000000E-03 0. -1.
    9900012    2    1    2    0    0  0.10415349813E+02  0.15527580827E+02  0.10454713176E+01  0.72461593822E+02  0.70000030649E+02 0.  0.
        -12    1    1    2    0    0 -0.10415349813E+02 -0.15527580827E+02 -0.10454713176E+01  0.18726406178E+02  0.00000000000E+00 0.  1.
         11    1    3    3    0    0  0.10024316051E+02  0.26357264049E+02 -0.10689530481E+01  0.28219407176E+02  0.51100000000E-03 0. -1.
        -11    1    3    3    0    0  0.10612398673E+02 -0.28284396357E+01  0.19598639492E+02  0.22466191189E+02  0.51100000000E-03 0.  1.
        -12    1    3    3    0    0 -0.10221364912E+02 -0.80012435866E+01 -0.17484215126E+02  0.21775995457E+02  0.00000000000E+00 0.  1.
</event>
<event>
 7    1  0.3440346E-013  0.7246148E+02  0.7816164E-02  0.1226708E+00
        -11   -1    0    0    0    0  0.00000000000E+00  0.00000000000E+00  0.45593999997E+02  0.45594000000E+02  0.51100000000E-03 0.  1.
         11   -1    0    0    0    0 -0.00000000000E+00 -0.00000000000E+00 -0.45593999997E+02  0.45594000000E+02  0.51100000000E-03 0. -1.
    9900012    2    1    2    0    0  0.84337183147E+01  0.12003959698E+02 -0.11638719316E+02  0.72461482962E+02  0.69999886234E+02 0.  0.
        -12    1    1    2    0    0 -0.84337183147E+01 -0.12003959698E+02  0.11638719316E+02  0.18726517038E+02  0.00000000000E+00 0.  1.
         11    1    3    3    0    0  0.98672893137E+01 -0.55068755607E+01 -0.22916713511E+02  0.25551219839E+02  0.51100000000E-03 0. -1.
        -11    1    3    3    0    0 -0.91861671059E+01  0.25159886031E+02 -0.50765763644E+01  0.27261275814E+02  0.51100000000E-03 0.  1.
         12    1    3    3    0    0  0.77525961069E+01 -0.76490507726E+01  0.16354570559E+02  0.19648987309E+02  0.00000000000E+00 0. -1.
</event>
<event>
 7    1  0.3440346E-013  0.7246160E+02  0.7816164E-02  0.1226708E+00
        -11   -1    0    0    0    0  0.00000000000E+00  0.00000000000E+00  0.45593999997E+02  0.45594000000E+02  0.51100000000E-03 0. -1.
         11   -1    0    0    0    0 -0.00000000000E+00 -0.00000000000E+00 -0.45593999997E+02  0.45594000000E+02  0.51100000000E-03 0.  1.
    9900012    2    1    2    0    0 -0.10441051965E+02 -0.15545105730E+02 -0.11057830363E+00  0.72461598695E+02  0.70000036997E+02 0.  0.
        -12    1    1    2    0    0  0.10441051965E+02  0.15545105730E+02  0.11057830363E+00  0.18726401305E+02  0.00000000000E+00 0.  1.
         11    1    3    3    0    0 -0.67805371536E+01 -0.68923830213E+01 -0.11846313501E+02  0.15291035662E+02  0.51100000000E-03 0. -1.
        -11    1    3    3    0    0 -0.21398903410E+02  0.81615287968E+01 -0.94981447119E+01  0.24793918059E+02  0.51100000000E-03 0.  1.
         12    1    3    3    0    0  0.17738388599E+02 -0.16814251505E+02  0.21233879909E+02  0.32376644974E+02  0.00000000000E+00 0. -1.
</event>
<event>
 7    1  0.3440346E-013  0.7246163E+02  0.7816164E-02  0.1226708E+00
        -11   -1    0    0    0    0  0.00000000000E+00  0.00000000000E+00  0.45593999997E+02  0.45594000000E+02  0.51100000000E-03 0.  1.
         11   -1    0    0    0    0 -0.00000000000E+00 -0.00000000000E+00 -0.45593999997E+02  0.45594000000E+02  0.51100000000E-03 0. -1.
    9900012    2    1    2    0    0 -0.82081370639E+01  0.11103645926E+01  0.16794949635E+02  0.72461634714E+02  0.70000083919E+02 0.  0.
        -12    1    1    2    0    0  0.82081370639E+01 -0.11103645926E+01 -0.16794949635E+02  0.18726365286E+02  0.00000000000E+00 0.  1.
         11    1    3    3    0    0 -0.98005562244E+01  0.27733125806E+01  0.84269152193E+01  0.13219495654E+02  0.51100000000E-03 0. -1.
        -11    1    3    3    0    0 -0.25146898521E+01 -0.25991317564E+02 -0.10537899410E+02  0.28158827710E+02  0.51100000000E-03 0.  1.
         12    1    3    3    0    0  0.41071090125E+01  0.24328369576E+02  0.18905933825E+02  0.31083311350E+02  0.00000000000E+00 0. -1.
</event>
<event>
 7    1  0.3440346E-013  0.7246154E+02  0.7816164E-02  0.1226708E+00
        -11   -1    0    0    0    0  0.00000000000E+00  0.00000000000E+00  0.45593999997E+02  0.45594000000E+02  0.51100000000E-03 0.  1.
         11   -1    0    0    0    0 -0.00000000000E+00 -0.00000000000E+00 -0.45593999997E+02  0.45594000000E+02  0.51100000000E-03 0. -1.
    9900012    2    1    2    0    0  0.32267408619E+01  0.96999991424E+01 -0.15690076922E+02  0.72461538674E+02  0.69999958809E+02 0.  0.
        -12    1    1    2    0    0 -0.32267408619E+01 -0.96999991424E+01  0.15690076922E+02  0.18726461326E+02  0.00000000000E+00 0.  1.
         11    1    3    3    0    0 -0.13511910921E+02 -0.13710608518E+01 -0.19932592969E+02  0.24119697497E+02  0.51100000000E-03 0. -1.
        -11    1    3    3    0    0 -0.77068394864E+01 -0.12113353252E+02  0.27457296826E+01  0.14617377796E+02  0.51100000000E-03 0.  1.
         12    1    3    3    0    0  0.24445491270E+02  0.23184413246E+02  0.14967863640E+01  0.33724463382E+02  0.00000000000E+00 0. -1.
</event>
<event>
 7    1  0.3440346E-013  0.7246155E+02  0.7816164E-02  0.1226708E+00
        -11   -1    0    0    0    0  0.00000000000E+00  0.00000000000E+00  0.45593999997E+02  0.45594000000E+02  0.51100000000E-03 0.  1.
         11   -1    0    0    0    0 -0.00000000000E+00 -0.00000000000E+00 -0.45593999997E+02  0.45594000000E+02  0.51100000000E-03 0. -1.
    9900012    2    1    2    0    0  0.64460808868E+01  0.17159315977E+02  0.38322158007E+01  0.72461549147E+02  0.69999972452E+02 0.  0.
        -12    1    1    2    0    0 -0.64460808868E+01 -0.17159315977E+02 -0.38322158007E+01  0.18726450853E+02  0.00000000000E+00 0.  1.
         11    1    3    3    0    0 -0.10720658425E+02  0.32003746029E+02 -0.16467316292E+02  0.37554557421E+02  0.51100000000E-03 0. -1.
        -11    1    3    3    0    0 -0.30640484695E+01 -0.32835917783E-01  0.38450410730E+01  0.49166871300E+01  0.51100000000E-03 0.  1.
        -12    1    3    3    0    0  0.20230787782E+02 -0.14811594135E+02  0.16454491020E+02  0.29990304596E+02  0.00000000000E+00 0.  1.
</event>
<event>
 7    1  0.3440346E-013  0.7246157E+02  0.7816164E-02  0.1226708E+00
        -11   -1    0    0    0    0  0.00000000000E+00  0.00000000000E+00  0.45593999997E+02  0.45594000000E+02  0.51100000000E-03 0.  1.
         11   -1    0    0    0    0 -0.00000000000E+00 -0.00000000000E+00 -0.45593999997E+02  0.45594000000E+02  0.51100000000E-03 0. -1.
    9900012    2    1    2    0    0 -0.70801081039E+01 -0.46102272288E+01 -0.16712181996E+02  0.72461570737E+02  0.70000000577E+02 0.  0.
        -12    1    1    2    0    0  0.70801081039E+01  0.46102272288E+01  0.16712181996E+02  0.18726429263E+02  0.00000000000E+00 0.  1.
         11    1    3    3    0    0 -0.92746979944E+01 -0.10575473235E+02 -0.17287543546E+02  0.22287212010E+02  0.51100000000E-03 0. -1.
        -11    1    3    3    0    0  0.24300452365E+02  0.45221122732E+01 -0.86357430848E+01  0.26182771883E+02  0.51100000000E-03 0.  1.
        -12    1    3    3    0    0 -0.22105862475E+02  0.14431337330E+01  0.92111046347E+01  0.23991586845E+02  0.00000000000E+00 0.  1.
</event>
<event>
 7    1  0.3440346E-013  0.7246158E+02  0.7816164E-02  0.1226708E+00
        -11   -1    0    0    0    0  0.00000000000E+00  0.00000000000E+00  0.45593999997E+02  0.45594000000E+02  0.51100000000E-03 0. -1.
         11   -1    0    0    0    0 -0.00000000000E+00 -0.00000000000E+00 -0.45593999997E+02  0.45594000000E+02  0.51100000000E-03 0.  1.
    9900012    2    1    2    0    0  0.15068986889E+02 -0.10986233887E+02 -0.17050314188E+01  0.72461579279E+02  0.70000011704E+02 0.  0.
        -12    1    1    2    0    0 -0.15068986889E+02  0.10986233887E+02  0.17050314188E+01  0.18726420721E+02  0.00000000000E+00 0.  1.
         11    1    3    3    0    0 -0.42776382180E+01  0.26422254144E+01 -0.53521355086E+01  0.73433574493E+01  0.51100000000E-03 0. -1.
        -11    1    3    3    0    0 -0.11521168828E+01  0.22547959097E+02  0.63400855135E+01  0.23450682662E+02  0.51100000000E-03 0.  1.
         12    1    3    3    0    0  0.20498741990E+02 -0.36176418399E+02 -0.26929814236E+01  0.41667539167E+02  0.00000000000E+00 0. -1.
</event>
<event>
 7    1  0.3440346E-013  0.7246157E+02  0.7816164E-02  0.1226708E+00
        -11   -1    0    0    0    0  0.00000000000E+00  0.00000000000E+00  0.45593999997E+02  0.45594000000E+02  0.51100000000E-03 0. -1.
         11   -1    0    0    0    0 -0.00000000000E+00 -0.00000000000E+00 -0.45593999997E+02  0.45594000000E+02  0.51100000000E-03 0.  1.
    9900012    2    1    2    0    0  0.10592989465E+02 -0.45555910105E+01  0.14755143482E+02  0.72461572299E+02  0.70000002611E+02 0.  0.
        -12    1    1    2    0    0 -0.10592989465E+02  0.45555910105E+01 -0.14755143482E+02  0.18726427701E+02  0.00000000000E+00 0.  1.
         11    1    3    3    0    0  0.55939891265E+01  0.53694711917E+00 -0.15666413925E+02  0.16643844270E+02  0.51100000000E-03 0. -1.
        -11    1    3    3    0    0  0.14352202839E+02  0.13277650408E+02  0.59543590869E+00  0.19561090738E+02  0.51100000000E-03 0.  1.
         12    1    3    3    0    0 -0.93532025002E+01 -0.18370188538E+02  0.29826121499E+02  0.36256637290E+02  0.00000000000E+00 0. -1.
</event>
<event>
 7    1  0.3440346E-013  0.7246156E+02  0.7816164E-02  0.1226708E+00
        -11   -1    0    0    0    0  0.00000000000E+00  0.00000000000E+00  0.45593999997E+02  0.45594000000E+02  0.51100000000E-03 0. -1.
         11   -1    0    0    0    0 -0.00000000000E+00 -0.00000000000E+00 -0.45593999997E+02  0.45594000000E+02  0.51100000000E-03 0.  1.
    9900012    2    1    2    0    0  0.10211423407E+02  0.14863120190E+02  0.50491545978E+01  0.72461562220E+02  0.69999989482E+02 0.  0.
        -12    1    1    2    0    0 -0.10211423407E+02 -0.14863120190E+02 -0.50491545978E+01  0.18726437780E+02  0.00000000000E+00 0.  1.
         11    1    3    3    0    0  0.49568962913E+01 -0.16838692633E+02  0.11346318251E+02  0.20900988698E+02  0.51100000000E-03 0. -1.
        -11    1    3    3    0    0 -0.12137235829E+02 -0.28496041928E+01 -0.83596001432E+00  0.12495261783E+02  0.51100000000E-03 0.  1.
         12    1    3    3    0    0  0.17391762944E+02  0.34551417016E+02 -0.54612036384E+01  0.39065311739E+02  0.00000000000E+00 0. -1.
</event>
<event>
 7    1  0.3440346E-013  0.7246130E+02  0.7816164E-02  0.1226709E+00
        -11   -1    0    0    0    0  0.00000000000E+00  0.00000000000E+00  0.45593999997E+02  0.45594000000E+02  0.51100000000E-03 0.  1.
         11   -1    0    0    0    0 -0.00000000000E+00 -0.00000000000E+00 -0.45593999997E+02  0.45594000000E+02  0.51100000000E-03 0. -1.
    9900012    2    1    2    0    0  0.18015310120E+02  0.22832136646E+01  0.45743706788E+01  0.72461298997E+02  0.69999646583E+02 0.  0.
        -12    1    1    2    0    0 -0.18015310120E+02 -0.22832136646E+01 -0.45743706788E+01  0.18726701003E+02  0.00000000000E+00 0.  1.
         11    1    3    3    0    0  0.12511842191E+02 -0.14409270946E+02 -0.81336549769E+01  0.20744387862E+02  0.51100000000E-03 0. -1.
        -11    1    3    3    0    0 -0.12423226951E+02 -0.77386687267E+01  0.15460347595E+02  0.21289572790E+02  0.51100000000E-03 0.  1.
        -12    1    3    3    0    0  0.17926694880E+02  0.24431153337E+02 -0.27523219395E+01  0.30427338345E+02  0.00000000000E+00 0.  1.
</event>
<event>
 7    1  0.3440346E-013  0.7246165E+02  0.7816164E-02  0.1226708E+00
        -11   -1    0    0    0    0  0.00000000000E+00  0.00000000000E+00  0.45593999997E+02  0.45594000000E+02  0.51100000000E-03 0. -1.
         11   -1    0    0    0    0 -0.00000000000E+00 -0.00000000000E+00 -0.45593999997E+02  0.45594000000E+02  0.51100000000E-03 0.  1.
    9900012    2    1    2    0    0  0.60740969827E+01 -0.55885007055E-01  0.17713790996E+02  0.72461650416E+02  0.70000104374E+02 0.  0.
        -12    1    1    2    0    0 -0.60740969827E+01  0.55885007055E-01 -0.17713790996E+02  0.18726349584E+02  0.00000000000E+00 0.  1.
         11    1    3    3    0    0  0.21134327149E+02  0.21001246640E+02  0.21024839817E+02  0.36465820079E+02  0.51100000000E-03 0. -1.
        -11    1    3    3    0    0 -0.16183582157E+02 -0.65587639898E+01  0.63012189370E+01  0.18564241887E+02  0.51100000000E-03 0.  1.
        -12    1    3    3    0    0  0.11233519903E+01 -0.14498367657E+02 -0.96122677579E+01  0.17431588450E+02  0.00000000000E+00 0.  1.
</event>
<event>
 7    1  0.3440346E-013  0.7246157E+02  0.7816164E-02  0.1226708E+00
        -11   -1    0    0    0    0  0.00000000000E+00  0.00000000000E+00  0.45593999997E+02  0.45594000000E+02  0.51100000000E-03 0.  1.
         11   -1    0    0    0    0 -0.00000000000E+00 -0.00000000000E+00 -0.45593999997E+02  0.45594000000E+02  0.51100000000E-03 0. -1.
    9900012    2    1    2    0    0  0.25291904128E+01 -0.15336880014E+02 -0.10443306391E+02  0.72461565714E+02  0.69999994033E+02 0.  0.
        -12    1    1    2    0    0 -0.25291904128E+01  0.15336880014E+02  0.10443306391E+02  0.18726434286E+02  0.00000000000E+00 0.  1.
         11    1    3    3    0    0 -0.30493204694E+01  0.24548303747E+02 -0.68930434831E+01  0.25679400712E+02  0.51100000000E-03 0. -1.
        -11    1    3    3    0    0  0.14160166757E+02 -0.16536268730E+02 -0.15343773484E+01  0.21824592097E+02  0.51100000000E-03 0.  1.
        -12    1    3    3    0    0 -0.85816558750E+01 -0.23348915031E+02 -0.20158855591E+01  0.24957572905E+02  0.00000000000E+00 0.  1.
</event>
<event>
 7    1  0.3440346E-013  0.7246156E+02  0.7816164E-02  0.1226708E+00
        -11   -1    0    0    0    0  0.00000000000E+00  0.00000000000E+00  0.45593999997E+02  0.45594000000E+02  0.51100000000E-03 0.  1.
         11   -1    0    0    0    0 -0.00000000000E+00 -0.00000000000E+00 -0.45593999997E+02  0.45594000000E+02  0.51100000000E-03 0. -1.
    9900012    2    1    2    0    0 -0.26160558599E+01  0.18301164055E+02 -0.29838277101E+01  0.72461559285E+02  0.69999985659E+02 0.  0.
        -12    1    1    2    0    0  0.26160558599E+01 -0.18301164055E+02  0.29838277101E+01  0.18726440715E+02  0.00000000000E+00 0.  1.
         11    1    3    3    0    0 -0.26449180675E+02  0.27944412590E+02 -0.13197162135E+02  0.40676952222E+02  0.51100000000E-03 0. -1.
        -11    1    3    3    0    0 -0.22806023828E+01 -0.46813167458E+00  0.14887141464E+01  0.27634334738E+01  0.51100000000E-03 0.  1.
        -12    1    3    3    0    0  0.26113727197E+02 -0.91751168605E+01  0.87246202781E+01  0.29021173590E+02  0.00000000000E+00 0.  1.
</event>
<event>
 7    1  0.3440346E-013  0.7246155E+02  0.7816164E-02  0.1226708E+00
        -11   -1    0    0    0    0  0.00000000000E+00  0.00000000000E+00  0.45593999997E+02  0.45594000000E+02  0.51100000000E-03 0.  1.
         11   -1    0    0    0    0 -0.00000000000E+00 -0.00000000000E+00 -0.45593999997E+02  0.45594000000E+02  0.51100000000E-03 0. -1.
    9900012    2    1    2    0    0  0.96778262750E+01  0.15731788573E+02  0.30871634387E+01  0.72461546219E+02  0.69999968637E+02 0.  0.
        -12    1    1    2    0    0 -0.96778262750E+01 -0.15731788573E+02 -0.30871634387E+01  0.18726453781E+02  0.00000000000E+00 0.  1.
         11    1    3    3    0    0 -0.11821506916E+02  0.45398561772E+01  0.20825745337E+01  0.12833371998E+02  0.51100000000E-03 0. -1.
        -11    1    3    3    0    0  0.22319669026E+02  0.24634472956E+01  0.25283115966E+02  0.33815265062E+02  0.51100000000E-03 0.  1.
         12    1    3    3    0    0 -0.82033583507E+00  0.87284851003E+01 -0.24278527061E+02  0.25812909159E+02  0.00000000000E+00 0. -1.
</event>
<event>
 7    1  0.3440346E-013  0.7246161E+02  0.7816164E-02  0.1226708E+00
        -11   -1    0    0    0    0  0.00000000000E+00  0.00000000000E+00  0.45593999997E+02  0.45594000000E+02  0.51100000000E-03 0.  1.
         11   -1    0    0    0    0 -0.00000000000E+00 -0.00000000000E+00 -0.45593999997E+02  0.45594000000E+02  0.51100000000E-03 0. -1.
    9900012    2    1    2    0    0 -0.19607410202E+01  0.32900416610E+00 -0.18620548523E+02  0.72461612832E+02  0.70000055413E+02 0.  0.
        -12    1    1    2    0    0  0.19607410202E+01 -0.32900416610E+00  0.18620548523E+02  0.18726387168E+02  0.00000000000E+00 0.  1.
         11    1    3    3    0    0  0.80753793153E+01  0.24817180994E+02 -0.17927755753E+02  0.31662416998E+02  0.51100000000E-03 0. -1.
        -11    1    3    3    0    0 -0.97897844000E-01  0.21123379354E+01 -0.10535283451E+02  0.10745406143E+02  0.51100000000E-03 0.  1.
        -12    1    3    3    0    0 -0.99382224915E+01 -0.26600514763E+02  0.98424906802E+01  0.30053789690E+02  0.00000000000E+00 0.  1.
</event>
<event>
 7    1  0.3440346E-013  0.7246153E+02  0.7816164E-02  0.1226708E+00
        -11   -1    0    0    0    0  0.00000000000E+00  0.00000000000E+00  0.45593999997E+02  0.45594000000E+02  0.51100000000E-03 0. -1.
         11   -1    0    0    0    0 -0.00000000000E+00 -0.00000000000E+00 -0.45593999997E+02  0.45594000000E+02  0.51100000000E-03 0.  1.
    9900012    2    1    2    0    0  0.52382249741E+01 -0.15972306589E+02  0.82539121098E+01  0.72461530931E+02  0.69999948722E+02 0.  0.
        -12    1    1    2    0    0 -0.52382249741E+01  0.15972306589E+02 -0.82539121098E+01  0.18726469069E+02  0.00000000000E+00 0.  1.
         11    1    3    3    0    0  0.26800850702E+02  0.12589510233E+02  0.35077710368E+01  0.29817542223E+02  0.51100000000E-03 0. -1.
        -11    1    3    3    0    0  0.41954298412E+01 -0.64827264374E+01  0.40307611191E+01  0.87105917753E+01  0.51100000000E-03 0.  1.
        -12    1    3    3    0    0 -0.25758055570E+02 -0.22079090385E+02  0.71537995385E+00  0.33933396933E+02  0.00000000000E+00 0.  1.
</event>
<event>
 7    1  0.3440346E-013  0.7246159E+02  0.7816164E-02  0.1226708E+00
        -11   -1    0    0    0    0  0.00000000000E+00  0.00000000000E+00  0.45593999997E+02  0.45594000000E+02  0.51100000000E-03 0.  1.
         11   -1    0    0    0    0 -0.00000000000E+00 -0.00000000000E+00 -0.45593999997E+02  0.45594000000E+02  0.51100000000E-03 0. -1.
    9900012    2    1    2    0    0 -0.10998783363E+02 -0.12770272347E+02 -0.81624434739E+01  0.72461586175E+02  0.70000020688E+02 0.  0.
        -12    1    1    2    0    0  0.10998783363E+02  0.12770272347E+02  0.81624434739E+01  0.18726413825E+02  0.00000000000E+00 0.  1.
         11    1    3    3    0    0  0.11967264894E+02  0.16425096218E+02 -0.74213315306E+01  0.21635049729E+02  0.51100000000E-03 0. -1.
        -11    1    3    3    0    0  0.12522434576E+00  0.72231308976E+01  0.23420531905E+01  0.75943738721E+01  0.51100000000E-03 0.  1.
        -12    1    3    3    0    0 -0.23091272603E+02 -0.36418499463E+02 -0.30831651338E+01  0.43232162574E+02  0.00000000000E+00 0.  1.
</event>
<event>
 7    1  0.3440346E-013  0.7246153E+02  0.7816164E-02  0.1226708E+00
        -11   -1    0    0    0    0  0.00000000000E+00  0.00000000000E+00  0.45593999997E+02  0.45594000000E+02  0.51100000000E-03 0.  1.
         11   -1    0    0    0    0 -0.00000000000E+00 -0.00000000000E+00 -0.45593999997E+02  0.45594000000E+02  0.51100000000E-03 0. -1.
    9900012    2    1    2    0    0  0.15470268750E+02  0.87687648056E+01  0.58702968677E+01  0.72461525779E+02  0.69999942011E+02 0.  0.
        -12    1    1    2    0    0 -0.15470268750E+02 -0.87687648056E+01 -0.58702968677E+01  0.18726474221E+02  0.00000000000E+00 0.  1.
         11    1    3    3    0    0 -0.25941757149E+01 -0.19044705118E+02 -0.59348595986E+00  0.19229736517E+02  0.51100000000E-03 0. -1.
        -11    1    3    3    0    0  0.18656902749E+02 -0.46629818357E+01 -0.28503983195E+01  0.19440889657E+02  0.51100000000E-03 0.  1.
         12    1    3    3    0    0 -0.59245828442E+00  0.32476451760E+02  0.93141811470E+01  0.33790899605E+02  0.00000000000E+00 0. -1.
</event>
<event>
 7    1  0.3440346E-013  0.7246155E+02  0.7816164E-02  0.1226708E+00
        -11   -1    0    0    0    0  0.00000000000E+00  0.00000000000E+00  0.45593999997E+02  0.45594000000E+02  0.51100000000E-03 0.  1.
         11   -1    0    0    0    0 -0.00000000000E+00 -0.00000000000E+00 -0.45593999997E+02  0.45594000000E+02  0.51100000000E-03 0. -1.
    9900012    2    1    2    0    0 -0.63892137088E+01 -0.14876936184E+02 -0.94092844727E+01  0.72461550354E+02  0.69999974024E+02 0.  0.
        -12    1    1    2    0    0  0.63892137088E+01  0.14876936184E+02  0.94092844727E+01  0.18726449646E+02  0.00000000000E+00 0.  1.
         11    1    3    3    0    0 -0.18947730053E+02 -0.40429315168E+00 -0.96994784744E+01  0.21289899249E+02  0.51100000000E-03 0. -1.
        -11    1    3    3    0    0  0.63194616771E+01  0.16141732029E+02 -0.76302542205E+01  0.18939690824E+02  0.51100000000E-03 0.  1.
        -12    1    3    3    0    0  0.62390546668E+01 -0.30614375061E+02  0.79204482222E+01  0.32231960281E+02  0.00000000000E+00 0.  1.
</event>
<event>
 7    1  0.3440346E-013  0.7246156E+02  0.7816164E-02  0.1226708E+00
        -11   -1    0    0    0    0  0.00000000000E+00  0.00000000000E+00  0.45593999997E+02  0.45594000000E+02  0.51100000000E-03 0.  1.
         11   -1    0    0    0    0 -0.00000000000E+00 -0.00000000000E+00 -0.45593999997E+02  0.45594000000E+02  0.51100000000E-03 0. -1.
    9900012    2    1    2    0    0 -0.75163011045E+01 -0.15634630988E+02 -0.70528812953E+01  0.72461558721E+02  0.69999984924E+02 0.  0.
        -12    1    1    2    0    0  0.75163011045E+01  0.15634630988E+02  0.70528812953E+01  0.18726441279E+02  0.00000000000E+00 0.  1.
         11    1    3    3    0    0  0.39120926491E+01  0.11614018724E+02  0.30133180531E+01  0.12620221304E+02  0.51100000000E-03 0. -1.
        -11    1    3    3    0    0 -0.20343137578E+02  0.75824044556E+01  0.22733529541E+01  0.21828977021E+02  0.51100000000E-03 0.  1.
        -12    1    3    3    0    0  0.89147438246E+01 -0.34831054167E+02 -0.12339552303E+02  0.38012360396E+02  0.00000000000E+00 0.  1.
</event>
<event>
 7    1  0.3440346E-013  0.7246160E+02  0.7816164E-02  0.1226708E+00
        -11   -1    0    0    0    0  0.00000000000E+00  0.00000000000E+00  0.45593999997E+02  0.45594000000E+02  0.51100000000E-03 0.  1.
         11   -1    0    0    0    0 -0.00000000000E+00 -0.00000000000E+00 -0.45593999997E+02  0.45594000000E+02  0.51100000000E-03 0. -1.
    9900012    2    1    2    0    0  0.74217321456E+00 -0.75521090372E+01 -0.17119959530E+02  0.72461596547E+02  0.70000034198E+02 0.  0.
        -12    1    1    2    0    0 -0.74217321456E+00  0.75521090372E+01  0.17119959530E+02  0.18726403453E+02  0.00000000000E+00 0.  1.
         11    1    3    3    0    0 -0.19978735360E+02 -0.11334500126E+02 -0.21188436521E+02  0.31250129634E+02  0.51100000000E-03 0. -1.
        -11    1    3    3    0    0  0.96971677225E+01 -0.10837823665E+02 -0.10396440105E+02  0.17876785247E+02  0.51100000000E-03 0.  1.
        -12    1    3    3    0    0  0.11023740852E+02  0.14620214754E+02  0.14464917096E+02  0.23334681665E+02  0.00000000000E+00 0.  1.
</event>
<event>
 7    1  0.3440346E-013  0.7246155E+02  0.7816164E-02  0.1226708E+00
        -11   -1    0    0    0    0  0.00000000000E+00  0.00000000000E+00  0.45593999997E+02  0.45594000000E+02  0.51100000000E-03 0.  1.
         11   -1    0    0    0    0 -0.00000000000E+00 -0.00000000000E+00 -0.45593999997E+02  0.45594000000E+02  0.51100000000E-03 0. -1.
    9900012    2    1    2    0    0 -0.11244666993E+01 -0.11040555381E+02 -0.15083825599E+02  0.72461545899E+02  0.69999968220E+02 0.  0.
        -12    1    1    2    0    0  0.11244666993E+01  0.11040555381E+02  0.15083825599E+02  0.18726454101E+02  0.00000000000E+00 0.  1.
         11    1    3    3    0    0 -0.34731359157E+01 -0.11454108838E+02  0.10455081318E+02  0.15892388366E+02  0.51100000000E-03 0. -1.
        -11    1    3    3    0    0  0.51144214054E+01  0.14947132264E+02  0.95699898756E+01  0.18470483905E+02  0.51100000000E-03 0.  1.
         12    1    3    3    0    0 -0.27657521890E+01 -0.14533578807E+02 -0.35108896793E+02  0.38098673627E+02  0.00000000000E+00 0. -1.
</event>
<event>
 7    1  0.3440346E-013  0.7246151E+02  0.7816164E-02  0.1226708E+00
        -11   -1    0    0    0    0  0.00000000000E+00  0.00000000000E+00  0.45593999997E+02  0.45594000000E+02  0.51100000000E-03 0. -1.
         11   -1    0    0    0    0 -0.00000000000E+00 -0.00000000000E+00 -0.45593999997E+02  0.45594000000E+02  0.51100000000E-03 0.  1.
    9900012    2    1    2    0    0 -0.63556360953E+01  0.14943266453E+02  0.93266431138E+01  0.72461505554E+02  0.69999915664E+02 0.  0.
        -12    1    1    2    0    0  0.63556360953E+01 -0.14943266453E+02 -0.93266431138E+01  0.18726494446E+02  0.00000000000E+00 0.  1.
         11    1    3    3    0    0 -0.57150018777E+01 -0.29244929175E+01  0.17649899901E+02  0.18781183990E+02  0.51100000000E-03 0. -1.
        -11    1    3    3    0    0  0.41555302974E+00 -0.15199911909E+02 -0.13327332923E+02  0.20219490831E+02  0.51100000000E-03 0.  1.
        -12    1    3    3    0    0 -0.10561872473E+01  0.33067671280E+02  0.50040761357E+01  0.33460830733E+02  0.00000000000E+00 0.  1.
</event>
<event>
 7    1  0.3440346E-013  0.7246179E+02  0.7816164E-02  0.1226707E+00
        -11   -1    0    0    0    0  0.00000000000E+00  0.00000000000E+00  0.45593999997E+02  0.45594000000E+02  0.51100000000E-03 0.  1.
         11   -1    0    0    0    0 -0.00000000000E+00 -0.00000000000E+00 -0.45593999997E+02  0.45594000000E+02  0.51100000000E-03 0. -1.
    9900012    2    1    2    0    0 -0.64810783457E+01  0.17564920301E+02  0.37412070225E+00  0.72461794618E+02  0.70000292223E+02 0.  0.
        -12    1    1    2    0    0  0.64810783457E+01 -0.17564920301E+02 -0.37412070225E+00  0.18726205382E+02  0.00000000000E+00 0.  1.
         11    1    3    3    0    0  0.20845947904E+02  0.21586846003E+02 -0.17634547288E+02  0.34806934980E+02  0.51100000000E-03 0. -1.
        -11    1    3    3    0    0 -0.26240076821E+01  0.85828466216E+00  0.11249047680E+02  0.11582881457E+02  0.51100000000E-03 0.  1.
        -12    1    3    3    0    0 -0.24703018568E+02 -0.48802103648E+01  0.67596203102E+01  0.26071978181E+02  0.00000000000E+00 0.  1.
</event>
<event>
 7    1  0.3440346E-013  0.7246158E+02  0.7816164E-02  0.1226708E+00
        -11   -1    0    0    0    0  0.00000000000E+00  0.00000000000E+00  0.45593999997E+02  0.45594000000E+02  0.51100000000E-03 0. -1.
         11   -1    0    0    0    0 -0.00000000000E+00 -0.00000000000E+00 -0.45593999997E+02  0.45594000000E+02  0.51100000000E-03 0.  1.
    9900012    2    1    2    0    0 -0.32728243058E+01  0.89655813776E+01  0.16111662985E+02  0.72461582496E+02  0.70000015896E+02 0.  0.
        -12    1    1    2    0    0  0.32728243058E+01 -0.89655813776E+01 -0.16111662985E+02  0.18726417504E+02  0.00000000000E+00 0.  1.
         11    1    3    3    0    0  0.86583111686E+01  0.94628655684E+01 -0.63643338310E+01  0.14318412008E+02  0.51100000000E-03 0. -1.
        -11    1    3    3    0    0  0.99439651805E+01  0.18694048696E+02  0.19682066265E+02  0.28909057973E+02  0.51100000000E-03 0.  1.
         12    1    3    3    0    0 -0.21875100655E+02 -0.19191332887E+02  0.27939305509E+01  0.29234112515E+02  0.00000000000E+00 0. -1.
</event>
<event>
 7    1  0.3440346E-013  0.7246207E+02  0.7816164E-02  0.1226707E+00
        -11   -1    0    0    0    0  0.00000000000E+00  0.00000000000E+00  0.45593999997E+02  0.45594000000E+02  0.51100000000E-03 0.  1.
         11   -1    0    0    0    0 -0.00000000000E+00 -0.00000000000E+00 -0.45593999997E+02  0.45594000000E+02  0.51100000000E-03 0. -1.
    9900012    2    1    2    0    0  0.65336362552E+01 -0.24312762172E+01 -0.17379903477E+02  0.72462067403E+02  0.70000647573E+02 0.  0.
        -12    1    1    2    0    0 -0.65336362552E+01  0.24312762172E+01  0.17379903477E+02  0.18725932597E+02  0.00000000000E+00 0.  1.
         11    1    3    3    0    0 -0.51639605109E+01  0.74040339451E+01 -0.41193629643E+02  0.42171095910E+02  0.51100000000E-03 0. -1.
        -11    1    3    3    0    0  0.10233538428E+01  0.14785337508E+01  0.76506872165E+01  0.78591558252E+01  0.51100000000E-03 0.  1.
        -12    1    3    3    0    0  0.10674242923E+02 -0.11313843913E+02  0.16163038949E+02  0.22431815668E+02  0.00000000000E+00 0.  1.
</event>
<event>
 7    1  0.3451090E-013  0.7246153E+02  0.7816164E-02  0.1226708E+00
        -11   -1    0    0    0    0  0.00000000000E+00  0.00000000000E+00  0.45593999997E+02  0.45594000000E+02  0.51100000000E-03 0. -1.
         11   -1    0    0    0    0 -0.00000000000E+00 -0.00000000000E+00 -0.45593999997E+02  0.45594000000E+02  0.51100000000E-03 0.  1.
    9900012    2    1    2    0    0 -0.64702395459E+01  0.10324101951E+01  0.17542830449E+02  0.72461527541E+02  0.69999944306E+02 0.  0.
        -12    1    1    2    0    0  0.64702395459E+01 -0.10324101951E+01 -0.17542830449E+02  0.18726472459E+02  0.00000000000E+00 0.  1.
         11    1    3    3    0    0  0.72531981847E+01 -0.11737799987E+02  0.13772132576E+02  0.19495037019E+02  0.51100000000E-03 0. -1.
        -11    1    3    3    0    0 -0.24094427575E+02  0.78909253673E+01 -0.16095448085E+02  0.30031177011E+02  0.51100000000E-03 0.  1.
         12    1    3    3    0    0  0.10370989844E+02  0.48792848144E+01  0.19866145958E+02  0.22935313512E+02  0.00000000000E+00 0. -1.
</event>
<event>
 7    1  0.3440346E-013  0.7246165E+02  0.7816164E-02  0.1226708E+00
        -11   -1    0    0    0    0  0.00000000000E+00  0.00000000000E+00  0.45593999997E+02  0.45594000000E+02  0.51100000000E-03 0. -1.
         11   -1    0    0    0    0 -0.00000000000E+00 -0.00000000000E+00 -0.45593999997E+02  0.45594000000E+02  0.51100000000E-03 0.  1.
    9900012    2    1    2    0    0 -0.19073058219E+01 -0.15355358782E+02  0.10547583016E+02  0.72461645141E+02  0.70000097501E+02 0.  0.
        -12    1    1    2    0    0  0.19073058219E+01  0.15355358782E+02 -0.10547583016E+02  0.18726354859E+02  0.00000000000E+00 0.  1.
         11    1    3    3    0    0  0.87308032859E+01 -0.46535411268E+01 -0.37442131459E-01  0.98936228557E+01  0.51100000000E-03 0. -1.
        -11    1    3    3    0    0 -0.13851240962E+02 -0.29329717607E+02 -0.10648779300E+02  0.34139210769E+02  0.51100000000E-03 0.  1.
        -12    1    3    3    0    0  0.32131318540E+01  0.18627899951E+02  0.21233804448E+02  0.28428811516E+02  0.00000000000E+00 0.  1.
</event>
<event>
 7    1  0.3440346E-013  0.7246147E+02  0.7816164E-02  0.1226708E+00
        -11   -1    0    0    0    0  0.00000000000E+00  0.00000000000E+00  0.45593999997E+02  0.45594000000E+02  0.51100000000E-03 0.  1.
         11   -1    0    0    0    0 -0.00000000000E+00 -0.00000000000E+00 -0.45593999997E+02  0.45594000000E+02  0.51100000000E-03 0. -1.
    9900012    2    1    2    0    0 -0.65999626925E+01  0.12410754806E+02 -0.12373217188E+02  0.72461472132E+02  0.69999872125E+02 0.  0.
        -12    1    1    2    0    0  0.65999626925E+01 -0.12410754806E+02  0.12373217188E+02  0.18726527868E+02  0.00000000000E+00 0.  1.
         11    1    3    3    0    0 -0.82030964337E+00  0.47851310381E+01  0.42158210022E+00  0.48732041504E+01  0.51100000000E-03 0. -1.
        -11    1    3    3    0    0  0.15305044217E+02  0.28452181850E+02 -0.18757727816E+02  0.37358043091E+02  0.51100000000E-03 0.  1.
         12    1    3    3    0    0 -0.21084697266E+02 -0.20826558082E+02  0.59629285274E+01  0.30230224891E+02  0.00000000000E+00 0. -1.
</event>
<event>
 7    1  0.3440346E-013  0.7246158E+02  0.7816164E-02  0.1226708E+00
        -11   -1    0    0    0    0  0.00000000000E+00  0.00000000000E+00  0.45593999997E+02  0.45594000000E+02  0.51100000000E-03 0.  1.
         11   -1    0    0    0    0 -0.00000000000E+00 -0.00000000000E+00 -0.45593999997E+02  0.45594000000E+02  0.51100000000E-03 0. -1.
    9900012    2    1    2    0    0 -0.75303112697E+00 -0.99537467413E+01 -0.15844077649E+02  0.72461576780E+02  0.70000008448E+02 0.  0.
        -12    1    1    2    0    0  0.75303112697E+00  0.99537467413E+01  0.15844077649E+02  0.18726423220E+02  0.00000000000E+00 0.  1.
         11    1    3    3    0    0 -0.97972804053E+01 -0.65721799834E+01  0.44796012889E+01  0.12619313810E+02  0.51100000000E-03 0. -1.
        -11    1    3    3    0    0  0.23868838376E+02 -0.16847194304E+02  0.26845581125E+01  0.29338647785E+02  0.51100000000E-03 0.  1.
         12    1    3    3    0    0 -0.14824589098E+02  0.13465627546E+02 -0.23008237051E+02  0.30503615184E+02  0.00000000000E+00 0. -1.
</event>
<event>
 7    1  0.3440346E-013  0.7246162E+02  0.7816164E-02  0.1226708E+00
        -11   -1    0    0    0    0  0.00000000000E+00  0.00000000000E+00  0.45593999997E+02  0.45594000000E+02  0.51100000000E-03 0.  1.
         11   -1    0    0    0    0 -0.00000000000E+00 -0.00000000000E+00 -0.45593999997E+02  0.45594000000E+02  0.51100000000E-03 0. -1.
    9900012    2    1    2    0    0 -0.10161704029E+02  0.11531170754E+02 -0.10698088564E+02  0.72461622170E+02  0.70000067577E+02 0.  0.
        -12    1    1    2    0    0  0.10161704029E+02 -0.11531170754E+02  0.10698088564E+02  0.18726377830E+02  0.00000000000E+00 0.  1.
         11    1    3    3    0    0  0.65886229183E+01  0.75767712246E+01 -0.85320712663E+01  0.13176253432E+02  0.51100000000E-03 0. -1.
        -11    1    3    3    0    0  0.10460528252E+02  0.15084565041E+02 -0.18156313542E+02  0.25818955740E+02  0.51100000000E-03 0.  1.
         12    1    3    3    0    0 -0.27210855199E+02 -0.11130165512E+02  0.15990296245E+02  0.33466412998E+02  0.00000000000E+00 0. -1.
</event>
<event>
 7    1  0.3440346E-013  0.7246173E+02  0.7816164E-02  0.1226708E+00
        -11   -1    0    0    0    0  0.00000000000E+00  0.00000000000E+00  0.45593999997E+02  0.45594000000E+02  0.51100000000E-03 0. -1.
         11   -1    0    0    0    0 -0.00000000000E+00 -0.00000000000E+00 -0.45593999997E+02  0.45594000000E+02  0.51100000000E-03 0.  1.
    9900012    2    1    2    0    0  0.15707658299E+02 -0.61854206756E+01  0.81045246994E+01  0.72461727579E+02  0.70000204892E+02 0.  0.
        -12    1    1    2    0    0 -0.15707658299E+02  0.61854206756E+01 -0.81045246994E+01  0.18726272421E+02  0.00000000000E+00 0.  1.
         11    1    3    3    0    0  0.20354314915E+02 -0.14395482138E+02 -0.10308205920E+02  0.26977530487E+02  0.51100000000E-03 0. -1.
        -11    1    3    3    0    0  0.83805236891E+01  0.25381685122E+01 -0.10257294592E+02  0.13486569961E+02  0.51100000000E-03 0.  1.
        -12    1    3    3    0    0 -0.13027180305E+02  0.56718929505E+01  0.28670025212E+02  0.31997627131E+02  0.00000000000E+00 0.  1.
</event>
<event>
 7    1  0.3440346E-013  0.7246165E+02  0.7816164E-02  0.1226708E+00
        -11   -1    0    0    0    0  0.00000000000E+00  0.00000000000E+00  0.45593999997E+02  0.45594000000E+02  0.51100000000E-03 0. -1.
         11   -1    0    0    0    0 -0.00000000000E+00 -0.00000000000E+00 -0.45593999997E+02  0.45594000000E+02  0.51100000000E-03 0.  1.
    9900012    2    1    2    0    0 -0.10198609464E+02 -0.14750874210E+02 -0.53922428354E+01  0.72461649374E+02  0.70000103016E+02 0.  0.
        -12    1    1    2    0    0  0.10198609464E+02  0.14750874210E+02  0.53922428354E+01  0.18726350626E+02  0.00000000000E+00 0.  1.
         11    1    3    3    0    0  0.52317049118E+01 -0.14672070421E+02  0.97411170851E+01  0.18371982720E+02  0.51100000000E-03 0. -1.
        -11    1    3    3    0    0 -0.14604327156E+02 -0.88789241888E+01 -0.31301190521E+02  0.35663513494E+02  0.51100000000E-03 0.  1.
         12    1    3    3    0    0 -0.82598721962E+00  0.88001204005E+01  0.16167830601E+02  0.18426153160E+02  0.00000000000E+00 0. -1.
</event>
<event>
 7    1  0.3750830E-013  0.7246163E+02  0.7816164E-02  0.1226708E+00
        -11   -1    0    0    0    0  0.00000000000E+00  0.00000000000E+00  0.45593999997E+02  0.45594000000E+02  0.51100000000E-03 0.  1.
         11   -1    0    0    0    0 -0.00000000000E+00 -0.00000000000E+00 -0.45593999997E+02  0.45594000000E+02  0.51100000000E-03 0. -1.
    9900012    2    1    2    0    0  0.11436432657E+02  0.11825220356E+02  0.89470126836E+01  0.72461631843E+02  0.70000080178E+02 0.  0.
        -12    1    1    2    0    0 -0.11436432657E+02 -0.11825220356E+02 -0.89470126836E+01  0.18726368157E+02  0.00000000000E+00 0.  1.
         11    1    3    3    0    0 -0.19422243369E+02  0.15339518179E+02 -0.35665567695E+01  0.25004893179E+02  0.51100000000E-03 0.  1.
        -11    1    3    3    0    0  0.11736904947E+02 -0.83903089772E+01 -0.99731741250E+01  0.17538997259E+02  0.51100000000E-03 0. -1.
        -12    1    3    3    0    0  0.19121771079E+02  0.48760111546E+01  0.22486743578E+02  0.29917741404E+02  0.00000000000E+00 0.  1.
</event>
<event>
 7    1  0.3440346E-013  0.7246147E+02  0.7816164E-02  0.1226708E+00
        -11   -1    0    0    0    0  0.00000000000E+00  0.00000000000E+00  0.45593999997E+02  0.45594000000E+02  0.51100000000E-03 0. -1.
         11   -1    0    0    0    0 -0.00000000000E+00 -0.00000000000E+00 -0.45593999997E+02  0.45594000000E+02  0.51100000000E-03 0.  1.
    9900012    2    1    2    0    0  0.16717699042E+02  0.19579278729E+01  0.82077895767E+01  0.72461474626E+02  0.69999875375E+02 0.  0.
        -12    1    1    2    0    0 -0.16717699042E+02 -0.19579278729E+01 -0.82077895767E+01  0.18726525374E+02  0.00000000000E+00 0.  1.
         11    1    3    3    0    0  0.87250637858E+01 -0.26718164319E+02  0.90992857614E+01  0.29542918682E+02  0.51100000000E-03 0. -1.
        -11    1    3    3    0    0  0.15787546097E+01 -0.50395260518E+01 -0.62500890696E+01  0.81824753335E+01  0.51100000000E-03 0.  1.
        -12    1    3    3    0    0  0.64138806469E+01  0.33715618244E+02  0.53585928849E+01  0.34736080611E+02  0.00000000000E+00 0.  1.
</event>
<event>
 7    1  0.3440346E-013  0.7246154E+02  0.7816164E-02  0.1226708E+00
        -11   -1    0    0    0    0  0.00000000000E+00  0.00000000000E+00  0.45593999997E+02  0.45594000000E+02  0.51100000000E-03 0. -1.
         11   -1    0    0    0    0 -0.00000000000E+00 -0.00000000000E+00 -0.45593999997E+02  0.45594000000E+02  0.51100000000E-03 0.  1.
    9900012    2    1    2    0    0  0.16299228256E+02 -0.68817197096E+01 -0.61365604815E+01  0.72461540579E+02  0.69999961291E+02 0.  0.
        -12    1    1    2    0    0 -0.16299228256E+02  0.68817197096E+01  0.61365604815E+01  0.18726459421E+02  0.00000000000E+00 0.  1.
         11    1    3    3    0    0 -0.46685213855E+01 -0.63842032245E+01  0.19398157754E+02  0.20948548094E+02  0.51100000000E-03 0. -1.
        -11    1    3    3    0    0  0.28125226289E+02 -0.58111731516E+01 -0.50327999338E+01  0.29156940214E+02  0.51100000000E-03 0.  1.
         12    1    3    3    0    0 -0.71574766479E+01  0.53136566665E+01 -0.20501918301E+02  0.22356052272E+02  0.00000000000E+00 0. -1.
</event>
<event>
 7    1  0.3440346E-013  0.7246157E+02  0.7816164E-02  0.1226708E+00
        -11   -1    0    0    0    0  0.00000000000E+00  0.00000000000E+00  0.45593999997E+02  0.45594000000E+02  0.51100000000E-03 0. -1.
         11   -1    0    0    0    0 -0.00000000000E+00 -0.00000000000E+00 -0.45593999997E+02  0.45594000000E+02  0.51100000000E-03 0.  1.
    9900012    2    1    2    0    0 -0.39556384088E+01 -0.16297476527E+01  0.18231181835E+02  0.72461570983E+02  0.70000000897E+02 0.  0.
        -12    1    1    2    0    0  0.39556384088E+01  0.16297476527E+01 -0.18231181835E+02  0.18726429017E+02  0.00000000000E+00 0.  1.
         11    1    3    3    0    0  0.15225242693E+01  0.32843433272E+01  0.92615067057E+01  0.99438673544E+01  0.51100000000E-03 0. -1.
        -11    1    3    3    0    0  0.82687113747E+01 -0.30667149152E+02  0.10023157285E+02  0.33306295308E+02  0.51100000000E-03 0.  1.
         12    1    3    3    0    0 -0.13746874053E+02  0.25753058172E+02 -0.10534821563E+01  0.29211408321E+02  0.00000000000E+00 0. -1.
</event>
<event>
 7    1  0.5626751E-013  0.7246158E+02  0.7816164E-02  0.1226708E+00
        -11   -1    0    0    0    0  0.00000000000E+00  0.00000000000E+00  0.45593999997E+02  0.45594000000E+02  0.51100000000E-03 0. -1.
         11   -1    0    0    0    0 -0.00000000000E+00 -0.00000000000E+00 -0.45593999997E+02  0.45594000000E+02  0.51100000000E-03 0.  1.
    9900012    2    1    2    0    0 -0.74429445164E+01  0.53878654675E+00  0.17175303014E+02  0.72461581558E+02  0.70000014673E+02 0.  0.
        -12    1    1    2    0    0  0.74429445164E+01 -0.53878654675E+00 -0.17175303014E+02  0.18726418442E+02  0.00000000000E+00 0.  1.
         11    1    3    3    0    0 -0.91476080381E+01 -0.21048785401E+02  0.18974942828E+02  0.29778827298E+02  0.51100000000E-03 0. -1.
        -11    1    3    3    0    0 -0.94553320935E+01 -0.47043691038E+01  0.71468998733E+01  0.12751963446E+02  0.51100000000E-03 0.  1.
        -12    1    3    3    0    0  0.11159995615E+02  0.26291941052E+02 -0.89465396867E+01  0.29930790814E+02  0.00000000000E+00 0.  1.
</event>
<event>
 7    1  0.3440346E-013  0.7246158E+02  0.7816164E-02  0.1226708E+00
        -11   -1    0    0    0    0  0.00000000000E+00  0.00000000000E+00  0.45593999997E+02  0.45594000000E+02  0.51100000000E-03 0. -1.
         11   -1    0    0    0    0 -0.00000000000E+00 -0.00000000000E+00 -0.45593999997E+02  0.45594000000E+02  0.51100000000E-03 0.  1.
    9900012    2    1    2    0    0  0.10117522779E+00  0.45402720783E+01  0.18167406419E+02  0.72461575809E+02  0.70000007184E+02 0.  0.
        -12    1    1    2    0    0 -0.10117522779E+00 -0.45402720783E+01 -0.18167406419E+02  0.18726424191E+02  0.00000000000E+00 0.  1.
         11    1    3    3    0    0  0.37222950651E+01  0.11109539247E+02 -0.11837220056E+02  0.16655243071E+02  0.51100000000E-03 0. -1.
        -11    1    3    3    0    0 -0.17816051217E+02  0.13544174283E+02  0.12929405927E+02  0.25846196546E+02  0.51100000000E-03 0.  1.
         12    1    3    3    0    0  0.14194931380E+02 -0.20113441452E+02  0.17075220548E+02  0.29960136193E+02  0.00000000000E+00 0. -1.
</event>
<event>
 7    1  0.3440346E-013  0.7246152E+02  0.7816164E-02  0.1226708E+00
        -11   -1    0    0    0    0  0.00000000000E+00  0.00000000000E+00  0.45593999997E+02  0.45594000000E+02  0.51100000000E-03 0.  1.
         11   -1    0    0    0    0 -0.00000000000E+00 -0.00000000000E+00 -0.45593999997E+02  0.45594000000E+02  0.51100000000E-03 0. -1.
    9900012    2    1    2    0    0  0.31985184409E+01 -0.84048254539E+01 -0.16425877663E+02  0.72461519602E+02  0.69999933963E+02 0.  0.
        -12    1    1    2    0    0 -0.31985184409E+01  0.84048254539E+01  0.16425877663E+02  0.18726480398E+02  0.00000000000E+00 0.  1.
         11    1    3    3    0    0  0.46827418903E+01 -0.17920274843E+02 -0.80044092276E+01  0.20177583835E+02  0.51100000000E-03 0. -1.
        -11    1    3    3    0    0 -0.16093806610E+02 -0.98927988388E+01  0.10389609401E+02  0.21559732462E+02  0.51100000000E-03 0.  1.
         12    1    3    3    0    0  0.14609583161E+02  0.19408248228E+02 -0.18811077836E+02  0.30724203305E+02  0.00000000000E+00 0. -1.
</event>
<event>
 7    1  0.3440346E-013  0.7246165E+02  0.7816164E-02  0.1226708E+00
        -11   -1    0    0    0    0  0.00000000000E+00  0.00000000000E+00  0.45593999997E+02  0.45594000000E+02  0.51100000000E-03 0. -1.
         11   -1    0    0    0    0 -0.00000000000E+00 -0.00000000000E+00 -0.45593999997E+02  0.45594000000E+02  0.51100000000E-03 0.  1.
    9900012    2    1    2    0    0 -0.14630054969E+01  0.12177291919E+02  0.14150945717E+02  0.72461652565E+02  0.70000107173E+02 0.  0.
        -12    1    1    2    0    0  0.14630054969E+01 -0.12177291919E+02 -0.14150945717E+02  0.18726347435E+02  0.00000000000E+00 0.  1.
         11    1    3    3    0    0  0.30841709686E+01  0.99893220400E+01 -0.45557824651E+01  0.11404114149E+02  0.51100000000E-03 0. -1.
        -11    1    3    3    0    0 -0.20475614518E+02 -0.20374009724E+02  0.23999458619E+01  0.28984664955E+02  0.51100000000E-03 0.  1.
         12    1    3    3    0    0  0.15928438053E+02  0.22561979604E+02  0.16306782320E+02  0.32072873462E+02  0.00000000000E+00 0. -1.
</event>
<event>
 7    1  0.3440346E-013  0.7246156E+02  0.7816164E-02  0.1226708E+00
        -11   -1    0    0    0    0  0.00000000000E+00  0.00000000000E+00  0.45593999997E+02  0.45594000000E+02  0.51100000000E-03 0. -1.
         11   -1    0    0    0    0 -0.00000000000E+00 -0.00000000000E+00 -0.45593999997E+02  0.45594000000E+02  0.51100000000E-03 0.  1.
    9900012    2    1    2    0    0 -0.27137297390E+01 -0.10970858054E+02  0.14931694291E+02  0.72461560137E+02  0.69999986768E+02 0.  0.
        -12    1    1    2    0    0  0.27137297390E+01  0.10970858054E+02 -0.14931694291E+02  0.18726439863E+02  0.00000000000E+00 0.  1.
         11    1    3    3    0    0  0.45800268608E+01 -0.26338099014E+01  0.77493798990E-01  0.52839006607E+01  0.51100000000E-03 0.  1.
        -11    1    3    3    0    0  0.19634589811E+02 -0.26530115554E+02  0.68624420411E+01  0.33711381748E+02  0.51100000000E-03 0. -1.
         12    1    3    3    0    0 -0.26928346411E+02  0.18193067401E+02  0.79917584511E+01  0.33466277728E+02  0.00000000000E+00 0. -1.
</event>
<event>
 7    1  0.3440346E-013  0.7246156E+02  0.7816164E-02  0.1226708E+00
        -11   -1    0    0    0    0  0.00000000000E+00  0.00000000000E+00  0.45593999997E+02  0.45594000000E+02  0.51100000000E-03 0.  1.
         11   -1    0    0    0    0 -0.00000000000E+00 -0.00000000000E+00 -0.45593999997E+02  0.45594000000E+02  0.51100000000E-03 0. -1.
    9900012    2    1    2    0    0  0.17181072662E+00  0.18582723044E+02 -0.23092263381E+01  0.72461557708E+02  0.69999983604E+02 0.  0.
        -12    1    1    2    0    0 -0.17181072662E+00 -0.18582723044E+02  0.23092263381E+01  0.18726442292E+02  0.00000000000E+00 0.  1.
         11    1    3    3    0    0 -0.24334486610E+02  0.32656635873E+01  0.16886637238E+02  0.29799166342E+02  0.51100000000E-03 0. -1.
        -11    1    3    3    0    0  0.73757665609E+01 -0.32704918859E+01  0.34021655274E+01  0.87562994508E+01  0.51100000000E-03 0.  1.
        -12    1    3    3    0    0  0.17130530775E+02  0.18587551342E+02 -0.22598029104E+02  0.33906091915E+02  0.00000000000E+00 0.  1.
</event>
<event>
 7    1  0.3440346E-013  0.7246157E+02  0.7816164E-02  0.1226708E+00
        -11   -1    0    0    0    0  0.00000000000E+00  0.00000000000E+00  0.45593999997E+02  0.45594000000E+02  0.51100000000E-03 0.  1.
         11   -1    0    0    0    0 -0.00000000000E+00 -0.00000000000E+00 -0.45593999997E+02  0.45594000000E+02  0.51100000000E-03 0. -1.
    9900012    2    1    2    0    0 -0.12685564603E+02  0.13487288754E+02 -0.28015230573E+01  0.72461573788E+02  0.70000004551E+02 0.  0.
        -12    1    1    2    0    0  0.12685564603E+02 -0.13487288754E+02  0.28015230573E+01  0.18726426212E+02  0.00000000000E+00 0.  1.
         11    1    3    3    0    0 -0.15683456453E+01  0.11817723364E+02  0.10818483161E+02  0.16098381029E+02  0.51100000000E-03 0. -1.
        -11    1    3    3    0    0  0.15317994932E+02 -0.16493093765E+02 -0.73824498035E+01  0.23688893517E+02  0.51100000000E-03 0.  1.
         12    1    3    3    0    0 -0.26435213890E+02  0.18162659154E+02 -0.62375564150E+01  0.32674299243E+02  0.00000000000E+00 0. -1.
</event>
<event>
 7    1  0.3440346E-013  0.7246158E+02  0.7816164E-02  0.1226708E+00
        -11   -1    0    0    0    0  0.00000000000E+00  0.00000000000E+00  0.45593999997E+02  0.45594000000E+02  0.51100000000E-03 0.  1.
         11   -1    0    0    0    0 -0.00000000000E+00 -0.00000000000E+00 -0.45593999997E+02  0.45594000000E+02  0.51100000000E-03 0. -1.
    9900012    2    1    2    0    0  0.35756689472E+01  0.74915301530E+01 -0.16786022086E+02  0.72461575624E+02  0.70000006943E+02 0.  0.
        -12    1    1    2    0    0 -0.35756689472E+01 -0.74915301530E+01  0.16786022086E+02  0.18726424376E+02  0.00000000000E+00 0.  1.
         11    1    3    3    0    0 -0.21442111543E+02 -0.14462854845E+02 -0.26552493815E+01  0.25999782061E+02  0.51100000000E-03 0. -1.
        -11    1    3    3    0    0 -0.55302835237E+01  0.84217667752E+01  0.27067666750E+00  0.10078861919E+02  0.51100000000E-03 0.  1.
        -12    1    3    3    0    0  0.30548064014E+02  0.13532618223E+02 -0.14401449372E+02  0.36382931643E+02  0.00000000000E+00 0.  1.
</event>
<event>
 7    1  0.3440346E-013  0.7246158E+02  0.7816164E-02  0.1226708E+00
        -11   -1    0    0    0    0  0.00000000000E+00  0.00000000000E+00  0.45593999997E+02  0.45594000000E+02  0.51100000000E-03 0.  1.
         11   -1    0    0    0    0 -0.00000000000E+00 -0.00000000000E+00 -0.45593999997E+02  0.45594000000E+02  0.51100000000E-03 0. -1.
    9900012    2    1    2    0    0 -0.16706811975E+02  0.83855342560E+01  0.11153244684E+01  0.72461582836E+02  0.70000016338E+02 0.  0.
        -12    1    1    2    0    0  0.16706811975E+02 -0.83855342560E+01 -0.11153244684E+01  0.18726417164E+02  0.00000000000E+00 0.  1.
         11    1    3    3    0    0 -0.12639196105E+01 -0.75240674035E+01 -0.15794623187E+02  0.17540786897E+02  0.51100000000E-03 0. -1.
        -11    1    3    3    0    0 -0.19046779990E+02 -0.12968015265E+02  0.92354683519E+01  0.24824244678E+02  0.51100000000E-03 0.  1.
         12    1    3    3    0    0  0.36038876252E+01  0.28877616924E+02  0.76744793038E+01  0.30096551261E+02  0.00000000000E+00 0. -1.
</event>
<event>
 7    1  0.3440346E-013  0.7246156E+02  0.7816164E-02  0.1226708E+00
        -11   -1    0    0    0    0  0.00000000000E+00  0.00000000000E+00  0.45593999997E+02  0.45594000000E+02  0.51100000000E-03 0.  1.
         11   -1    0    0    0    0 -0.00000000000E+00 -0.00000000000E+00 -0.45593999997E+02  0.45594000000E+02  0.51100000000E-03 0. -1.
    9900012    2    1    2    0    0  0.68251156344E+01 -0.17162548629E+02 -0.30894085737E+01  0.72461555484E+02  0.69999980707E+02 0.  0.
        -12    1    1    2    0    0 -0.68251156344E+01  0.17162548629E+02  0.30894085737E+01  0.18726444516E+02  0.00000000000E+00 0.  1.
         11    1    3    3    0    0 -0.87846405043E+01 -0.13973682417E+02  0.56362384899E+01  0.17441355843E+02  0.51100000000E-03 0. -1.
        -11    1    3    3    0    0  0.11243245344E+02 -0.14757289596E+01  0.21567058457E+02  0.24366500623E+02  0.51100000000E-03 0.  1.
         12    1    3    3    0    0  0.43665107944E+01 -0.17131372527E+01 -0.30292705521E+02  0.30653699019E+02  0.00000000000E+00 0. -1.
</event>
<event>
 7    1  0.3440346E-013  0.7246156E+02  0.7816164E-02  0.1226708E+00
        -11   -1    0    0    0    0  0.00000000000E+00  0.00000000000E+00  0.45593999997E+02  0.45594000000E+02  0.51100000000E-03 0. -1.
         11   -1    0    0    0    0 -0.00000000000E+00 -0.00000000000E+00 -0.45593999997E+02  0.45594000000E+02  0.51100000000E-03 0.  1.
    9900012    2    1    2    0    0  0.17287328195E+02  0.55166802368E+01 -0.46253799951E+01  0.72461558345E+02  0.69999984434E+02 0.  0.
        -12    1    1    2    0    0 -0.17287328195E+02 -0.55166802368E+01  0.46253799951E+01  0.18726441655E+02  0.00000000000E+00 0.  1.
         11    1    3    3    0    0 -0.27261645686E+01 -0.31992164337E+01 -0.11600860188E+02  0.12338837725E+02  0.51100000000E-03 0. -1.
        -11    1    3    3    0    0  0.12173905994E+02  0.30668856889E+01 -0.24320138276E+02  0.27369305819E+02  0.51100000000E-03 0.  1.
         12    1    3    3    0    0  0.78395867696E+01  0.56490109816E+01  0.31295618469E+02  0.32753414801E+02  0.00000000000E+00 0. -1.
</event>
<event>
 7    1  0.3440346E-013  0.7246155E+02  0.7816164E-02  0.1226708E+00
        -11   -1    0    0    0    0  0.00000000000E+00  0.00000000000E+00  0.45593999997E+02  0.45594000000E+02  0.51100000000E-03 0. -1.
         11   -1    0    0    0    0 -0.00000000000E+00 -0.00000000000E+00 -0.45593999997E+02  0.45594000000E+02  0.51100000000E-03 0.  1.
    9900012    2    1    2    0    0 -0.17990810021E+02  0.51913873056E+01 -0.24510714225E+00  0.72461552796E+02  0.69999977205E+02 0.  0.
        -12    1    1    2    0    0  0.17990810021E+02 -0.51913873056E+01  0.24510714225E+00  0.18726447204E+02  0.00000000000E+00 0.  1.
         11    1    3    3    0    0  0.24968025208E+01 -0.49766873768E+01  0.56743788078E+01  0.79498437211E+01  0.51100000000E-03 0. -1.
        -11    1    3    3    0    0  0.20988519555E+02  0.62403921820E+01 -0.65167043132E+01  0.22845741027E+02  0.51100000000E-03 0.  1.
        -12    1    3    3    0    0 -0.41476132097E+02  0.39276825004E+01  0.59721836321E+00  0.41665968048E+02  0.00000000000E+00 0.  1.
</event>
<event>
 7    1  0.3440346E-013  0.7246138E+02  0.7816164E-02  0.1226709E+00
        -11   -1    0    0    0    0  0.00000000000E+00  0.00000000000E+00  0.45593999997E+02  0.45594000000E+02  0.51100000000E-03 0.  1.
         11   -1    0    0    0    0 -0.00000000000E+00 -0.00000000000E+00 -0.45593999997E+02  0.45594000000E+02  0.51100000000E-03 0. -1.
    9900012    2    1    2    0    0  0.71298526939E+01  0.78967514266E+01 -0.15410801935E+02  0.72461379942E+02  0.69999752030E+02 0.  0.
        -12    1    1    2    0    0 -0.71298526939E+01 -0.78967514266E+01  0.15410801935E+02  0.18726620058E+02  0.00000000000E+00 0.  1.
         11    1    3    3    0    0  0.36793999213E+01  0.54203276291E+01 -0.36097189806E+02  0.36686851154E+02  0.51100000000E-03 0. -1.
        -11    1    3    3    0    0  0.37191187353E+01 -0.48432175497E+01 -0.57224914953E+01  0.83687220993E+01  0.51100000000E-03 0.  1.
        -12    1    3    3    0    0 -0.26866596275E+00  0.73196413472E+01  0.26408879367E+02  0.27405806689E+02  0.00000000000E+00 0.  1.
</event>
<event>
 7    1  0.3909481E-013  0.7246159E+02  0.7816164E-02  0.1226708E+00
        -11   -1    0    0    0    0  0.00000000000E+00  0.00000000000E+00  0.45593999997E+02  0.45594000000E+02  0.51100000000E-03 0. -1.
         11   -1    0    0    0    0 -0.00000000000E+00 -0.00000000000E+00 -0.45593999997E+02  0.45594000000E+02  0.51100000000E-03 0.  1.
    9900012    2    1    2    0    0  0.87332654043E+01 -0.25384035061E+01  0.16369638762E+02  0.72461588433E+02  0.70000023629E+02 0.  0.
        -12    1    1    2    0    0 -0.87332654043E+01  0.25384035061E+01 -0.16369638762E+02  0.18726411567E+02  0.00000000000E+00 0.  1.
         11    1    3    3    0    0 -0.59093105747E+01  0.10142942038E+01  0.25639772094E+02  0.26331476554E+02  0.51100000000E-03 0. -1.
        -11    1    3    3    0    0 -0.29830003538E+01 -0.15158904545E+02  0.92885925955E+01  0.18026886331E+02  0.51100000000E-03 0.  1.
        -12    1    3    3    0    0  0.17625576333E+02  0.11606206835E+02 -0.18558725928E+02  0.28103225549E+02  0.00000000000E+00 0.  1.
</event>
<event>
 7    1  0.3440346E-013  0.7246155E+02  0.7816164E-02  0.1226708E+00
        -11   -1    0    0    0    0  0.00000000000E+00  0.00000000000E+00  0.45593999997E+02  0.45594000000E+02  0.51100000000E-03 0.  1.
         11   -1    0    0    0    0 -0.00000000000E+00 -0.00000000000E+00 -0.45593999997E+02  0.45594000000E+02  0.51100000000E-03 0. -1.
    9900012    2    1    2    0    0 -0.45241913729E+01  0.39216637934E+01 -0.17743509139E+02  0.72461551564E+02  0.69999975600E+02 0.  0.
        -12    1    1    2    0    0  0.45241913729E+01 -0.39216637934E+01  0.17743509139E+02  0.18726448436E+02  0.00000000000E+00 0.  1.
         11    1    3    3    0    0 -0.62714535613E+01  0.27398326142E+02  0.68551458127E+01  0.28930821446E+02  0.51100000000E-03 0. -1.
        -11    1    3    3    0    0  0.66235487205E+01 -0.10681954745E+02  0.28217880708E+01  0.12881694105E+02  0.51100000000E-03 0.  1.
        -12    1    3    3    0    0 -0.48762865320E+01 -0.12794707604E+02 -0.27420443022E+02  0.30649036013E+02  0.00000000000E+00 0.  1.
</event>
<event>
 7    1  0.3440346E-013  0.7246143E+02  0.7816164E-02  0.1226708E+00
        -11   -1    0    0    0    0  0.00000000000E+00  0.00000000000E+00  0.45593999997E+02  0.45594000000E+02  0.51100000000E-03 0.  1.
         11   -1    0    0    0    0 -0.00000000000E+00 -0.00000000000E+00 -0.45593999997E+02  0.45594000000E+02  0.51100000000E-03 0. -1.
    9900012    2    1    2    0    0 -0.46396341148E+01 -0.63821230036E+01 -0.16983129519E+02  0.72461430986E+02  0.69999818525E+02 0.  0.
        -12    1    1    2    0    0  0.46396341148E+01  0.63821230036E+01  0.16983129519E+02  0.18726569014E+02  0.00000000000E+00 0.  1.
         11    1    3    3    0    0  0.82936545771E+00  0.24682307926E+02 -0.12271966858E+02  0.27577261329E+02  0.51100000000E-03 0. -1.
        -11    1    3    3    0    0  0.11739454368E+02 -0.15051687064E+02  0.45436417908E+01  0.19621741853E+02  0.51100000000E-03 0.  1.
        -12    1    3    3    0    0 -0.17208453941E+02 -0.16012743865E+02 -0.92548044521E+01  0.25262427805E+02  0.00000000000E+00 0.  1.
</event>
<event>
 7    1  0.3440346E-013  0.7246159E+02  0.7816164E-02  0.1226708E+00
        -11   -1    0    0    0    0  0.00000000000E+00  0.00000000000E+00  0.45593999997E+02  0.45594000000E+02  0.51100000000E-03 0.  1.
         11   -1    0    0    0    0 -0.00000000000E+00 -0.00000000000E+00 -0.45593999997E+02  0.45594000000E+02  0.51100000000E-03 0. -1.
    9900012    2    1    2    0    0 -0.13110242904E+02  0.10098273190E+02 -0.87649831333E+01  0.72461587643E+02  0.70000022600E+02 0.  0.
        -12    1    1    2    0    0  0.13110242904E+02 -0.10098273190E+02  0.87649831333E+01  0.18726412357E+02  0.00000000000E+00 0.  1.
         11    1    3    3    0    0  0.65481151399E+01  0.10399234751E+02 -0.27403977072E+02  0.30033312420E+02  0.51100000000E-03 0. -1.
        -11    1    3    3    0    0  0.47053251436E+01  0.86723409327E+01 -0.93800754066E+00  0.99110766503E+01  0.51100000000E-03 0.  1.
        -12    1    3    3    0    0 -0.24363683188E+02 -0.89733024928E+01  0.19577001479E+02  0.32517198573E+02  0.00000000000E+00 0.  1.
</event>
<event>
 7    1  0.3440346E-013  0.7246181E+02  0.7816164E-02  0.1226707E+00
        -11   -1    0    0    0    0  0.00000000000E+00  0.00000000000E+00  0.45593999997E+02  0.45594000000E+02  0.51100000000E-03 0.  1.
         11   -1    0    0    0    0 -0.00000000000E+00 -0.00000000000E+00 -0.45593999997E+02  0.45594000000E+02  0.51100000000E-03 0. -1.
    9900012    2    1    2    0    0 -0.16529103238E+02  0.41310290021E+01 -0.77713393247E+01  0.72461805262E+02  0.70000306088E+02 0.  0.
        -12    1    1    2    0    0  0.16529103238E+02 -0.41310290021E+01  0.77713393247E+01  0.18726194738E+02  0.00000000000E+00 0.  1.
         11    1    3    3    0    0 -0.20320684981E+02  0.25360804194E+01 -0.10895182044E+02  0.23196269830E+02  0.51100000000E-03 0. -1.
        -11    1    3    3    0    0  0.14148456011E+02 -0.83095996467E+01 -0.17604683410E+02  0.24065600595E+02  0.51100000000E-03 0.  1.
         12    1    3    3    0    0 -0.10356874269E+02  0.99045482293E+01  0.20728526130E+02  0.25199934836E+02  0.00000000000E+00 0. -1.
</event>
<event>
 7    1  0.3440346E-013  0.7246156E+02  0.7816164E-02  0.1226708E+00
        -11   -1    0    0    0    0  0.00000000000E+00  0.00000000000E+00  0.45593999997E+02  0.45594000000E+02  0.51100000000E-03 0.  1.
         11   -1    0    0    0    0 -0.00000000000E+00 -0.00000000000E+00 -0.45593999997E+02  0.45594000000E+02  0.51100000000E-03 0. -1.
    9900012    2    1    2    0    0  0.12685013526E+02  0.78699600011E+01 -0.11306355851E+02  0.72461560904E+02  0.69999987767E+02 0.  0.
        -12    1    1    2    0    0 -0.12685013526E+02 -0.78699600011E+01  0.11306355851E+02  0.18726439096E+02  0.00000000000E+00 0.  1.
         11    1    3    3    0    0 -0.30893012370E+01  0.31518418879E+01  0.45373855724E+01  0.63297517734E+01  0.51100000000E-03 0. -1.
        -11    1    3    3    0    0  0.16675377478E+02  0.17834624160E+02  0.17664899753E+02  0.30136202755E+02  0.51100000000E-03 0.  1.
         12    1    3    3    0    0 -0.90106271437E+00 -0.13116506047E+02 -0.33508641176E+02  0.35995606376E+02  0.00000000000E+00 0. -1.
</event>
<event>
 7    1  0.3440346E-013  0.7246174E+02  0.7816164E-02  0.1226708E+00
        -11   -1    0    0    0    0  0.00000000000E+00  0.00000000000E+00  0.45593999997E+02  0.45594000000E+02  0.51100000000E-03 0.  1.
         11   -1    0    0    0    0 -0.00000000000E+00 -0.00000000000E+00 -0.45593999997E+02  0.45594000000E+02  0.51100000000E-03 0. -1.
    9900012    2    1    2    0    0  0.10678654913E+02  0.96728888020E+01 -0.11961374988E+02  0.72461736621E+02  0.70000216671E+02 0.  0.
        -12    1    1    2    0    0 -0.10678654913E+02 -0.96728888020E+01  0.11961374988E+02  0.18726263379E+02  0.00000000000E+00 0.  1.
         11    1    3    3    0    0  0.15384753671E+02  0.21845543393E+02 -0.45667143357E+01  0.27106701971E+02  0.51100000000E-03 0. -1.
        -11    1    3    3    0    0  0.12925638839E+02 -0.17459024022E+02 -0.13948761739E+02  0.25815840361E+02  0.51100000000E-03 0.  1.
        -12    1    3    3    0    0 -0.17631737597E+02  0.52863694312E+01  0.65541010869E+01  0.19539194290E+02  0.00000000000E+00 0.  1.
</event>
<event>
 7    1  0.3440346E-013  0.7246155E+02  0.7816164E-02  0.1226708E+00
        -11   -1    0    0    0    0  0.00000000000E+00  0.00000000000E+00  0.45593999997E+02  0.45594000000E+02  0.51100000000E-03 0. -1.
         11   -1    0    0    0    0 -0.00000000000E+00 -0.00000000000E+00 -0.45593999997E+02  0.45594000000E+02  0.51100000000E-03 0.  1.
    9900012    2    1    2    0    0 -0.11872144658E+02 -0.13038844236E+02  0.63024309534E+01  0.72461550424E+02  0.69999974115E+02 0.  0.
        -12    1    1    2    0    0  0.11872144658E+02  0.13038844236E+02 -0.63024309534E+01  0.18726449576E+02  0.00000000000E+00 0.  1.
         11    1    3    3    0    0 -0.26970131878E+02 -0.99351072017E+01  0.58106529128E+01  0.29323336375E+02  0.51100000000E-03 0. -1.
        -11    1    3    3    0    0 -0.78165391147E+01  0.12533358359E+02 -0.33100218611E+01  0.15137357777E+02  0.51100000000E-03 0.  1.
         12    1    3    3    0    0  0.22914526334E+02 -0.15637095393E+02  0.38017999018E+01  0.28000856272E+02  0.00000000000E+00 0. -1.
</event>
<event>
 7    1  0.3440346E-013  0.7246167E+02  0.7816164E-02  0.1226708E+00
        -11   -1    0    0    0    0  0.00000000000E+00  0.00000000000E+00  0.45593999997E+02  0.45594000000E+02  0.51100000000E-03 0. -1.
         11   -1    0    0    0    0 -0.00000000000E+00 -0.00000000000E+00 -0.45593999997E+02  0.45594000000E+02  0.51100000000E-03 0.  1.
    9900012    2    1    2    0    0  0.95078577750E+01  0.13025994378E+02  0.95183881277E+01  0.72461665560E+02  0.70000124101E+02 0.  0.
        -12    1    1    2    0    0 -0.95078577750E+01 -0.13025994378E+02 -0.95183881277E+01  0.18726334440E+02  0.00000000000E+00 0.  1.
         11    1    3    3    0    0  0.22698645962E+02 -0.10570064485E+02 -0.10585926656E+02  0.27184860403E+02  0.51100000000E-03 0. -1.
        -11    1    3    3    0    0  0.26764597481E+01 -0.42183358860E+01 -0.29658493692E+01  0.58098241946E+01  0.51100000000E-03 0.  1.
         12    1    3    3    0    0 -0.15867247935E+02  0.27814394749E+02  0.23070164152E+02  0.39466980962E+02  0.00000000000E+00 0. -1.
</event>
<event>
 7    1  0.3440346E-013  0.7246158E+02  0.7816164E-02  0.1226708E+00
        -11   -1    0    0    0    0  0.00000000000E+00  0.00000000000E+00  0.45593999997E+02  0.45594000000E+02  0.51100000000E-03 0. -1.
         11   -1    0    0    0    0 -0.00000000000E+00 -0.00000000000E+00 -0.45593999997E+02  0.45594000000E+02  0.51100000000E-03 0.  1.
    9900012    2    1    2    0    0  0.18550704302E+02  0.21522435454E+01 -0.13849281013E+01  0.72461579941E+02  0.70000012567E+02 0.  0.
        -12    1    1    2    0    0 -0.18550704302E+02 -0.21522435454E+01  0.13849281013E+01  0.18726420059E+02  0.00000000000E+00 0.  1.
         11    1    3    3    0    0 -0.28421572974E+01  0.25456578656E+01 -0.14219695389E+02  0.14722702513E+02  0.51100000000E-03 0. -1.
        -11    1    3    3    0    0  0.18188771162E+01 -0.24764305368E+02  0.32420779914E+01  0.25041769192E+02  0.51100000000E-03 0.  1.
         12    1    3    3    0    0  0.19573984483E+02  0.24370891048E+02  0.95926892966E+01  0.32697108235E+02  0.00000000000E+00 0. -1.
</event>
<event>
 7    1  0.3440346E-013  0.7246184E+02  0.7816164E-02  0.1226707E+00
        -11   -1    0    0    0    0  0.00000000000E+00  0.00000000000E+00  0.45593999997E+02  0.45594000000E+02  0.51100000000E-03 0.  1.
         11   -1    0    0    0    0 -0.00000000000E+00 -0.00000000000E+00 -0.45593999997E+02  0.45594000000E+02  0.51100000000E-03 0. -1.
    9900012    2    1    2    0    0  0.16862686208E+02 -0.66325902774E+01 -0.47252307799E+01  0.72461835260E+02  0.70000345166E+02 0.  0.
        -12    1    1    2    0    0 -0.16862686208E+02  0.66325902774E+01  0.47252307799E+01  0.18726164740E+02  0.00000000000E+00 0.  1.
         11    1    3    3    0    0  0.27477688574E+01  0.24742200996E+02 -0.11637856285E+02  0.27480291901E+02  0.51100000000E-03 0. -1.
        -11    1    3    3    0    0 -0.65714642583E+01 -0.49106532511E+00  0.39708102655E+01  0.76936741598E+01  0.51100000000E-03 0.  1.
        -12    1    3    3    0    0  0.20686381609E+02 -0.30883725948E+02  0.29418152397E+01  0.37287869199E+02  0.00000000000E+00 0.  1.
</event>
<event>
 7    1  0.3440346E-013  0.7246157E+02  0.7816164E-02  0.1226708E+00
        -11   -1    0    0    0    0  0.00000000000E+00  0.00000000000E+00  0.45593999997E+02  0.45594000000E+02  0.51100000000E-03 0. -1.
         11   -1    0    0    0    0 -0.00000000000E+00 -0.00000000000E+00 -0.45593999997E+02  0.45594000000E+02  0.51100000000E-03 0.  1.
    9900012    2    1    2    0    0  0.13539904296E+02 -0.12722174982E+02  0.23444421915E+01  0.72461570714E+02  0.70000000546E+02 0.  0.
        -12    1    1    2    0    0 -0.13539904296E+02  0.12722174982E+02 -0.23444421915E+01  0.18726429286E+02  0.00000000000E+00 0.  1.
         11    1    3    3    0    0 -0.79181534822E+01  0.41351973968E+01  0.15805047923E+01  0.90716595911E+01  0.51100000000E-03 0. -1.
        -11    1    3    3    0    0 -0.19319623114E+02 -0.42138158303E+01 -0.47669286038E+01  0.20340297188E+02  0.51100000000E-03 0.  1.
         12    1    3    3    0    0  0.40777680892E+02 -0.12643556549E+02  0.55308660030E+01  0.43049613934E+02  0.00000000000E+00 0. -1.
</event>
<event>
 7    1  0.3440346E-013  0.7246155E+02  0.7816164E-02  0.1226708E+00
        -11   -1    0    0    0    0  0.00000000000E+00  0.00000000000E+00  0.45593999997E+02  0.45594000000E+02  0.51100000000E-03 0.  1.
         11   -1    0    0    0    0 -0.00000000000E+00 -0.00000000000E+00 -0.45593999997E+02  0.45594000000E+02  0.51100000000E-03 0. -1.
    9900012    2    1    2    0    0 -0.17420745609E+02  0.20226871660E+01  0.65655488063E+01  0.72461546196E+02  0.69999968608E+02 0.  0.
        -12    1    1    2    0    0  0.17420745609E+02 -0.20226871660E+01 -0.65655488063E+01  0.18726453804E+02  0.00000000000E+00 0.  1.
         11    1    3    3    0    0  0.78765438065E+01  0.21429117773E+01 -0.99488569327E+01  0.12869023574E+02  0.51100000000E-03 0. -1.
        -11    1    3    3    0    0 -0.10411418221E+01  0.23292280746E+02  0.93928398415E+01  0.25136422959E+02  0.51100000000E-03 0.  1.
         12    1    3    3    0    0 -0.24256147593E+02 -0.23412505357E+02  0.71215658974E+01  0.34456099663E+02  0.00000000000E+00 0. -1.
</event>
<event>
 7    1  0.3440346E-013  0.7246163E+02  0.7816164E-02  0.1226708E+00
        -11   -1    0    0    0    0  0.00000000000E+00  0.00000000000E+00  0.45593999997E+02  0.45594000000E+02  0.51100000000E-03 0. -1.
         11   -1    0    0    0    0 -0.00000000000E+00 -0.00000000000E+00 -0.45593999997E+02  0.45594000000E+02  0.51100000000E-03 0.  1.
    9900012    2    1    2    0    0  0.92660088551E+01 -0.90007035594E+01  0.13557484589E+02  0.72461628941E+02  0.70000076398E+02 0.  0.
        -12    1    1    2    0    0 -0.92660088551E+01  0.90007035594E+01 -0.13557484589E+02  0.18726371059E+02  0.00000000000E+00 0.  1.
         11    1    3    3    0    0 -0.12462507077E+02  0.83412793058E+00  0.24120439389E+02  0.27162574411E+02  0.51100000000E-03 0. -1.
        -11    1    3    3    0    0  0.21298520358E+02 -0.28253040135E+01  0.99060803548E+01  0.23658819507E+02  0.51100000000E-03 0.  1.
         12    1    3    3    0    0  0.42999557416E+00 -0.70095274765E+01 -0.20469035155E+02  0.21640235022E+02  0.00000000000E+00 0. -1.
</event>
<event>
 7    1  0.3440346E-013  0.7246160E+02  0.7816164E-02  0.1226708E+00
        -11   -1    0    0    0    0  0.00000000000E+00  0.00000000000E+00  0.45593999997E+02  0.45594000000E+02  0.51100000000E-03 0.  1.
         11   -1    0    0    0    0 -0.00000000000E+00 -0.00000000000E+00 -0.45593999997E+02  0.45594000000E+02  0.51100000000E-03 0. -1.
    9900012    2    1    2    0    0  0.62685992123E+01 -0.82006084341E+00 -0.17626978945E+02  0.72461595577E+02  0.70000032936E+02 0.  0.
        -12    1    1    2    0    0 -0.62685992123E+01  0.82006084341E+00  0.17626978945E+02  0.18726404423E+02  0.00000000000E+00 0.  1.
         11    1    3    3    0    0  0.48802794340E+01  0.11511619521E+02  0.25140227819E+01  0.12753619963E+02  0.51100000000E-03 0. -1.
        -11    1    3    3    0    0  0.11399954472E+02 -0.24891034677E+02  0.69209235628E+01  0.28238657058E+02  0.51100000000E-03 0.  1.
         12    1    3    3    0    0 -0.10011634694E+02  0.12559354313E+02 -0.27061925290E+02  0.31469318556E+02  0.00000000000E+00 0. -1.
</event>
<event>
 7    1  0.3440346E-013  0.7246160E+02  0.7816164E-02  0.1226708E+00
        -11   -1    0    0    0    0  0.00000000000E+00  0.00000000000E+00  0.45593999997E+02  0.45594000000E+02  0.51100000000E-03 0. -1.
         11   -1    0    0    0    0 -0.00000000000E+00 -0.00000000000E+00 -0.45593999997E+02  0.45594000000E+02  0.51100000000E-03 0.  1.
    9900012    2    1    2    0    0  0.43525307778E+00 -0.17300432742E+02  0.71542850931E+01  0.72461595820E+02  0.70000033253E+02 0.  0.
        -12    1    1    2    0    0 -0.43525307778E+00  0.17300432742E+02 -0.71542850931E+01  0.18726404180E+02  0.00000000000E+00 0.  1.
         11    1    3    3    0    0 -0.18100411124E+01 -0.46846596831E+01 -0.30939910432E+01  0.58987342720E+01  0.51100000000E-03 0. -1.
        -11    1    3    3    0    0  0.12093128997E+02 -0.36114515973E+02 -0.23135058374E+01  0.38155659376E+02  0.51100000000E-03 0.  1.
         12    1    3    3    0    0 -0.98478348064E+01  0.23498742914E+02  0.12561781974E+02  0.28407202173E+02  0.00000000000E+00 0. -1.
</event>
<event>
 7    1  0.3440346E-013  0.7246154E+02  0.7816164E-02  0.1226708E+00
        -11   -1    0    0    0    0  0.00000000000E+00  0.00000000000E+00  0.45593999997E+02  0.45594000000E+02  0.51100000000E-03 0. -1.
         11   -1    0    0    0    0 -0.00000000000E+00 -0.00000000000E+00 -0.45593999997E+02  0.45594000000E+02  0.51100000000E-03 0.  1.
    9900012    2    1    2    0    0  0.14843427833E+02  0.11414911685E+02 -0.22963916725E+00  0.72461540304E+02  0.69999960932E+02 0.  0.
        -12    1    1    2    0    0 -0.14843427833E+02 -0.11414911685E+02  0.22963916725E+00  0.18726459696E+02  0.00000000000E+00 0.  1.
         11    1    3    3    0    0  0.11691691027E+02 -0.12440044529E+02  0.95690747024E+01  0.19570833857E+02  0.51100000000E-03 0. -1.
        -11    1    3    3    0    0  0.70287546486E+01 -0.13066350836E+02 -0.33520263921E+01  0.15210818429E+02  0.51100000000E-03 0.  1.
        -12    1    3    3    0    0 -0.38770178426E+01  0.36921307050E+02 -0.64466874776E+01  0.37679888018E+02  0.00000000000E+00 0.  1.
</event>
<event>
 7    1  0.3440346E-013  0.7246149E+02  0.7816164E-02  0.1226708E+00
        -11   -1    0    0    0    0  0.00000000000E+00  0.00000000000E+00  0.45593999997E+02  0.45594000000E+02  0.51100000000E-03 0. -1.
         11   -1    0    0    0    0 -0.00000000000E+00 -0.00000000000E+00 -0.45593999997E+02  0.45594000000E+02  0.51100000000E-03 0.  1.
    9900012    2    1    2    0    0 -0.52153439656E+01 -0.14650378359E+02  0.10433069324E+02  0.72461485795E+02  0.69999889924E+02 0.  0.
        -12    1    1    2    0    0  0.52153439656E+01  0.14650378359E+02 -0.10433069324E+02  0.18726514205E+02  0.00000000000E+00 0.  1.
         11    1    3    3    0    0  0.28301181108E+00 -0.19206680767E+02 -0.22047172614E+01  0.19334876784E+02  0.51100000000E-03 0. -1.
        -11    1    3    3    0    0 -0.85019506560E+01  0.64457711421E+01 -0.18731689569E+02  0.21557071345E+02  0.51100000000E-03 0.  1.
         12    1    3    3    0    0  0.30035948793E+01 -0.18894687337E+01  0.31369476154E+02  0.31569537667E+02  0.00000000000E+00 0. -1.
</event>
<event>
 7    1  0.3440346E-013  0.7246159E+02  0.7816164E-02  0.1226708E+00
        -11   -1    0    0    0    0  0.00000000000E+00  0.00000000000E+00  0.45593999997E+02  0.45594000000E+02  0.51100000000E-03 0. -1.
         11   -1    0    0    0    0 -0.00000000000E+00 -0.00000000000E+00 -0.45593999997E+02  0.45594000000E+02  0.51100000000E-03 0.  1.
    9900012    2    1    2    0    0 -0.16048964409E+02  0.48282073947E+01  0.83545043471E+01  0.72461585817E+02  0.70000020221E+02 0.  0.
        -12    1    1    2    0    0  0.16048964409E+02 -0.48282073947E+01 -0.83545043471E+01  0.18726414183E+02  0.00000000000E+00 0.  1.
         11    1    3    3    0    0 -0.11574639093E+02 -0.70669204837E+01  0.22965508643E+02  0.26670737199E+02  0.51100000000E-03 0. -1.
        -11    1    3    3    0    0 -0.20824765861E+02  0.94645508439E+00 -0.15678683437E+02  0.26084243615E+02  0.51100000000E-03 0.  1.
         12    1    3    3    0    0  0.16350440545E+02  0.10948672794E+02  0.10676791416E+01  0.19706605002E+02  0.00000000000E+00 0. -1.
</event>
<event>
 7    1  0.3440346E-013  0.7246159E+02  0.7816164E-02  0.1226708E+00
        -11   -1    0    0    0    0  0.00000000000E+00  0.00000000000E+00  0.45593999997E+02  0.45594000000E+02  0.51100000000E-03 0. -1.
         11   -1    0    0    0    0 -0.00000000000E+00 -0.00000000000E+00 -0.45593999997E+02  0.45594000000E+02  0.51100000000E-03 0.  1.
    9900012    2    1    2    0    0 -0.43036089002E+01 -0.12263395467E+02  0.13482085091E+02  0.72461587200E+02  0.70000022023E+02 0.  0.
        -12    1    1    2    0    0  0.43036089002E+01  0.12263395467E+02 -0.13482085091E+02  0.18726412800E+02  0.00000000000E+00 0.  1.
         11    1    3    3    0    0  0.88431900345E+01 -0.31371626474E+02  0.22633924315E+02  0.39682180986E+02  0.51100000000E-03 0. -1.
        -11    1    3    3    0    0 -0.11133098469E+02  0.46768725752E+01  0.44274969280E+01  0.12861638617E+02  0.51100000000E-03 0.  1.
        -12    1    3    3    0    0 -0.20137004660E+01  0.14431358432E+02 -0.13579336152E+02  0.19917767598E+02  0.00000000000E+00 0.  1.
</event>
<event>
 7    1  0.3440346E-013  0.7246157E+02  0.7816164E-02  0.1226708E+00
        -11   -1    0    0    0    0  0.00000000000E+00  0.00000000000E+00  0.45593999997E+02  0.45594000000E+02  0.51100000000E-03 0. -1.
         11   -1    0    0    0    0 -0.00000000000E+00 -0.00000000000E+00 -0.45593999997E+02  0.45594000000E+02  0.51100000000E-03 0.  1.
    9900012    2    1    2    0    0 -0.97167940636E+01 -0.38674373391E+01  0.15534028390E+02  0.72461569575E+02  0.69999999062E+02 0.  0.
        -12    1    1    2    0    0  0.97167940636E+01  0.38674373391E+01 -0.15534028390E+02  0.18726430425E+02  0.00000000000E+00 0.  1.
         11    1    3    3    0    0 -0.38353835979E+00  0.81053107581E+01  0.33801800652E+01  0.87902663039E+01  0.51100000000E-03 0. -1.
        -11    1    3    3    0    0 -0.29493886682E+02  0.41648114665E+01  0.20921341611E+02  0.36399691499E+02  0.51100000000E-03 0.  1.
        -12    1    3    3    0    0  0.20160630978E+02 -0.16137559564E+02 -0.87674932855E+01  0.27271611772E+02  0.00000000000E+00 0.  1.
</event>
<event>
 7    1  0.3440346E-013  0.7246163E+02  0.7816164E-02  0.1226708E+00
        -11   -1    0    0    0    0  0.00000000000E+00  0.00000000000E+00  0.45593999997E+02  0.45594000000E+02  0.51100000000E-03 0.  1.
         11   -1    0    0    0    0 -0.00000000000E+00 -0.00000000000E+00 -0.45593999997E+02  0.45594000000E+02  0.51100000000E-03 0. -1.
    9900012    2    1    2    0    0 -0.18197216139E+02  0.33076575818E+01  0.29321622664E+01  0.72461632241E+02  0.70000080697E+02 0.  0.
        -12    1    1    2    0    0  0.18197216139E+02 -0.33076575818E+01 -0.29321622664E+01  0.18726367759E+02  0.00000000000E+00 0.  1.
         11    1    3    3    0    0  0.82027537694E+01 -0.35887487560E+01 -0.57747738331E+01  0.10654215134E+02  0.51100000000E-03 0. -1.
        -11    1    3    3    0    0  0.73242236783E+01  0.22312455895E+02 -0.90486275114E+00  0.23501249273E+02  0.51100000000E-03 0.  1.
        -12    1    3    3    0    0 -0.33724193586E+02 -0.15416049557E+02  0.96117988506E+01  0.38306167834E+02  0.00000000000E+00 0.  1.
</event>
<event>
 7    1  0.3440346E-013  0.7246153E+02  0.7816164E-02  0.1226708E+00
        -11   -1    0    0    0    0  0.00000000000E+00  0.00000000000E+00  0.45593999997E+02  0.45594000000E+02  0.51100000000E-03 0.  1.
         11   -1    0    0    0    0 -0.00000000000E+00 -0.00000000000E+00 -0.45593999997E+02  0.45594000000E+02  0.51100000000E-03 0. -1.
    9900012    2    1    2    0    0  0.93108708871E+01 -0.10609825364E+02 -0.12305278699E+02  0.72461532239E+02  0.69999950426E+02 0.  0.
        -12    1    1    2    0    0 -0.93108708871E+01  0.10609825364E+02  0.12305278699E+02  0.18726467761E+02  0.00000000000E+00 0.  1.
         11    1    3    3    0    0  0.19976941971E+02 -0.14001832303E+02 -0.13623880686E+00  0.24395656983E+02  0.51100000000E-03 0. -1.
        -11    1    3    3    0    0 -0.53410606260E+01 -0.45436505685E+00  0.17176823726E+02  0.17993794758E+02  0.51100000000E-03 0.  1.
        -12    1    3    3    0    0 -0.53250104582E+01  0.38463719958E+01 -0.29345863619E+02  0.30072080497E+02  0.00000000000E+00 0.  1.
</event>
<event>
 7    1  0.3440346E-013  0.7246208E+02  0.7816164E-02  0.1226707E+00
        -11   -1    0    0    0    0  0.00000000000E+00  0.00000000000E+00  0.45593999997E+02  0.45594000000E+02  0.51100000000E-03 0.  1.
         11   -1    0    0    0    0 -0.00000000000E+00 -0.00000000000E+00 -0.45593999997E+02  0.45594000000E+02  0.51100000000E-03 0. -1.
    9900012    2    1    2    0    0 -0.16121923216E+02  0.89724491353E+01  0.31998287188E+01  0.72462077980E+02  0.70000661351E+02 0.  0.
        -12    1    1    2    0    0  0.16121923216E+02 -0.89724491353E+01 -0.31998287188E+01  0.18725922020E+02  0.00000000000E+00 0.  1.
         11    1    3    3    0    0 -0.14072444731E+02  0.23977646572E+02  0.85929605509E+01  0.29099831737E+02  0.51100000000E-03 0. -1.
        -11    1    3    3    0    0  0.18093117350E+02 -0.22157909496E+01  0.21110636605E+01  0.18350128474E+02  0.51100000000E-03 0.  1.
        -12    1    3    3    0    0 -0.20142595835E+02 -0.12789406487E+02 -0.75041954926E+01  0.25012117769E+02  0.00000000000E+00 0.  1.
</event>
<event>
 7    1  0.3440346E-013  0.7246131E+02  0.7816164E-02  0.1226709E+00
        -11   -1    0    0    0    0  0.00000000000E+00  0.00000000000E+00  0.45593999997E+02  0.45594000000E+02  0.51100000000E-03 0. -1.
         11   -1    0    0    0    0 -0.00000000000E+00 -0.00000000000E+00 -0.45593999997E+02  0.45594000000E+02  0.51100000000E-03 0.  1.
    9900012    2    1    2    0    0 -0.52299233845E+01 -0.17841776653E+02  0.22378480140E+01  0.72461306312E+02  0.69999656113E+02 0.  0.
        -12    1    1    2    0    0  0.52299233845E+01  0.17841776653E+02 -0.22378480140E+01  0.18726693688E+02  0.00000000000E+00 0.  1.
         11    1    3    3    0    0 -0.94477478227E+01 -0.58540545280E+00 -0.91019455370E+01  0.13131947734E+02  0.51100000000E-03 0. -1.
        -11    1    3    3    0    0  0.10310575109E+02 -0.61001607264E+01 -0.21224452235E+02  0.24372059677E+02  0.51100000000E-03 0.  1.
         12    1    3    3    0    0 -0.60927506708E+01 -0.11156210474E+02  0.32564245786E+02  0.34957298901E+02  0.00000000000E+00 0. -1.
</event>
<event>
 7    1  0.3440346E-013  0.7246153E+02  0.7816164E-02  0.1226708E+00
        -11   -1    0    0    0    0  0.00000000000E+00  0.00000000000E+00  0.45593999997E+02  0.45594000000E+02  0.51100000000E-03 0. -1.
         11   -1    0    0    0    0 -0.00000000000E+00 -0.00000000000E+00 -0.45593999997E+02  0.45594000000E+02  0.51100000000E-03 0.  1.
    9900012    2    1    2    0    0 -0.92443621907E+01 -0.68023583583E+01  0.14796973477E+02  0.72461528479E+02  0.69999945528E+02 0.  0.
        -12    1    1    2    0    0  0.92443621907E+01  0.68023583583E+01 -0.14796973477E+02  0.18726471521E+02  0.00000000000E+00 0.  1.
         11    1    3    3    0    0  0.61048352546E+01  0.81928670432E+01 -0.87397052783E+01  0.13445242002E+02  0.51100000000E-03 0. -1.
        -11    1    3    3    0    0  0.10737176019E+02 -0.26145828350E+01 -0.99002330578E+01  0.14837034985E+02  0.51100000000E-03 0.  1.
         12    1    3    3    0    0 -0.26086373465E+02 -0.12380642566E+02  0.33436911813E+02  0.44179251493E+02  0.00000000000E+00 0. -1.
</event>
<event>
 7    1  0.3440346E-013  0.7246155E+02  0.7816164E-02  0.1226708E+00
        -11   -1    0    0    0    0  0.00000000000E+00  0.00000000000E+00  0.45593999997E+02  0.45594000000E+02  0.51100000000E-03 0. -1.
         11   -1    0    0    0    0 -0.00000000000E+00 -0.00000000000E+00 -0.45593999997E+02  0.45594000000E+02  0.51100000000E-03 0.  1.
    9900012    2    1    2    0    0 -0.10150904609E+02  0.15015404729E+02 -0.47092012176E+01  0.72461552936E+02  0.69999977387E+02 0.  0.
        -12    1    1    2    0    0  0.10150904609E+02 -0.15015404729E+02  0.47092012176E+01  0.18726447064E+02  0.00000000000E+00 0.  1.
         11    1    3    3    0    0 -0.21404299897E+02 -0.14453138465E+02  0.45942848138E+01  0.26232512628E+02  0.51100000000E-03 0. -1.
        -11    1    3    3    0    0 -0.27247791963E+01  0.10395026591E+01 -0.13913392048E+02  0.14215747114E+02  0.51100000000E-03 0.  1.
         12    1    3    3    0    0  0.13978174485E+02  0.28429040535E+02  0.46099060169E+01  0.32013293194E+02  0.00000000000E+00 0. -1.
</event>
<event>
 7    1  0.3440346E-013  0.7246159E+02  0.7816164E-02  0.1226708E+00
        -11   -1    0    0    0    0  0.00000000000E+00  0.00000000000E+00  0.45593999997E+02  0.45594000000E+02  0.51100000000E-03 0.  1.
         11   -1    0    0    0    0 -0.00000000000E+00 -0.00000000000E+00 -0.45593999997E+02  0.45594000000E+02  0.51100000000E-03 0. -1.
    9900012    2    1    2    0    0 -0.16137180025E+02  0.12628550561E+00 -0.95001977373E+01  0.72461593931E+02  0.70000030792E+02 0.  0.
        -12    1    1    2    0    0  0.16137180025E+02 -0.12628550561E+00  0.95001977373E+01  0.18726406069E+02  0.00000000000E+00 0.  1.
         11    1    3    3    0    0 -0.18680936173E+01 -0.51182750330E+01 -0.14346930727E+02  0.15346691325E+02  0.51100000000E-03 0. -1.
        -11    1    3    3    0    0  0.24412536945E+01 -0.15777841243E+02  0.20536706260E+02  0.26012618057E+02  0.51100000000E-03 0.  1.
         12    1    3    3    0    0 -0.16710340102E+02  0.21022401781E+02 -0.15689973271E+02  0.31102284550E+02  0.00000000000E+00 0. -1.
</event>
<event>
 7    1  0.3440346E-013  0.7246160E+02  0.7816164E-02  0.1226708E+00
        -11   -1    0    0    0    0  0.00000000000E+00  0.00000000000E+00  0.45593999997E+02  0.45594000000E+02  0.51100000000E-03 0.  1.
         11   -1    0    0    0    0 -0.00000000000E+00 -0.00000000000E+00 -0.45593999997E+02  0.45594000000E+02  0.51100000000E-03 0. -1.
    9900012    2    1    2    0    0 -0.98075637704E+01 -0.14914496217E+02 -0.56610476878E+01  0.72461602443E+02  0.70000041880E+02 0.  0.
        -12    1    1    2    0    0  0.98075637704E+01  0.14914496217E+02  0.56610476878E+01  0.18726397557E+02  0.00000000000E+00 0.  1.
         11    1    3    3    0    0 -0.25915382155E+02 -0.12031903009E+02 -0.20220953632E+02  0.35003723921E+02  0.51100000000E-03 0. -1.
        -11    1    3    3    0    0 -0.61363370544E+01  0.57061585722E+01 -0.17610717282E+01  0.85624909920E+01  0.51100000000E-03 0.  1.
        -12    1    3    3    0    0  0.22244155439E+02 -0.85887517800E+01  0.16320977673E+02  0.28895387530E+02  0.00000000000E+00 0.  1.
</event>
<event>
 7    1  0.3440346E-013  0.7246156E+02  0.7816164E-02  0.1226708E+00
        -11   -1    0    0    0    0  0.00000000000E+00  0.00000000000E+00  0.45593999997E+02  0.45594000000E+02  0.51100000000E-03 0.  1.
         11   -1    0    0    0    0 -0.00000000000E+00 -0.00000000000E+00 -0.45593999997E+02  0.45594000000E+02  0.51100000000E-03 0. -1.
    9900012    2    1    2    0    0 -0.16879456886E+02  0.88285112830E-02 -0.81094656200E+01  0.72461559459E+02  0.69999985885E+02 0.  0.
        -12    1    1    2    0    0  0.16879456886E+02 -0.88285112830E-02  0.81094656200E+01  0.18726440541E+02  0.00000000000E+00 0.  1.
         11    1    3    3    0    0 -0.10645720327E+02  0.14165453685E+02 -0.45202170951E+01  0.18287257920E+02  0.51100000000E-03 0. -1.
        -11    1    3    3    0    0 -0.48605248721E+00  0.17002680900E+02  0.99630549389E+01  0.19712682942E+02  0.51100000000E-03 0.  1.
         12    1    3    3    0    0 -0.57476840721E+01 -0.31159306073E+02 -0.13552303464E+02  0.34461618597E+02  0.00000000000E+00 0. -1.
</event>
<event>
 7    1  0.3440346E-013  0.7246159E+02  0.7816164E-02  0.1226708E+00
        -11   -1    0    0    0    0  0.00000000000E+00  0.00000000000E+00  0.45593999997E+02  0.45594000000E+02  0.51100000000E-03 0. -1.
         11   -1    0    0    0    0 -0.00000000000E+00 -0.00000000000E+00 -0.45593999997E+02  0.45594000000E+02  0.51100000000E-03 0.  1.
    9900012    2    1    2    0    0 -0.32374567655E+00  0.15782390395E+02 -0.10074220466E+02  0.72461586146E+02  0.70000020649E+02 0.  0.
        -12    1    1    2    0    0  0.32374567655E+00 -0.15782390395E+02  0.10074220466E+02  0.18726413854E+02  0.00000000000E+00 0.  1.
         11    1    3    3    0    0 -0.24913522386E+02 -0.42414071789E+01  0.16482343205E+02  0.30171853943E+02  0.51100000000E-03 0. -1.
        -11    1    3    3    0    0  0.40487669683E+00  0.17241084112E+01  0.27993313053E+00  0.17929968689E+01  0.51100000000E-03 0.  1.
        -12    1    3    3    0    0  0.24184900013E+02  0.18299689163E+02 -0.26836496802E+02  0.40496735334E+02  0.00000000000E+00 0.  1.
</event>
<event>
 7    1  0.3440346E-013  0.7246135E+02  0.7816164E-02  0.1226709E+00
        -11   -1    0    0    0    0  0.00000000000E+00  0.00000000000E+00  0.45593999997E+02  0.45594000000E+02  0.51100000000E-03 0.  1.
         11   -1    0    0    0    0 -0.00000000000E+00 -0.00000000000E+00 -0.45593999997E+02  0.45594000000E+02  0.51100000000E-03 0. -1.
    9900012    2    1    2    0    0 -0.16062031058E+01  0.28458032023E+01 -0.18439328495E+02  0.72461352686E+02  0.69999716524E+02 0.  0.
        -12    1    1    2    0    0  0.16062031058E+01 -0.28458032023E+01  0.18439328495E+02  0.18726647314E+02  0.00000000000E+00 0.  1.
         11    1    3    3    0    0  0.42780851191E+01  0.25628004081E+02 -0.19816391956E+02  0.32676994902E+02  0.51100000000E-03 0. -1.
        -11    1    3    3    0    0  0.71990991461E+01 -0.90544545110E+01  0.13110497124E+02  0.17484144535E+02  0.51100000000E-03 0.  1.
        -12    1    3    3    0    0 -0.13083387371E+02 -0.13727746368E+02 -0.11733433663E+02  0.22300213249E+02  0.00000000000E+00 0.  1.
</event>
<event>
 7    1  0.3440346E-013  0.7246159E+02  0.7816164E-02  0.1226708E+00
        -11   -1    0    0    0    0  0.00000000000E+00  0.00000000000E+00  0.45593999997E+02  0.45594000000E+02  0.51100000000E-03 0. -1.
         11   -1    0    0    0    0 -0.00000000000E+00 -0.00000000000E+00 -0.45593999997E+02  0.45594000000E+02  0.51100000000E-03 0.  1.
    9900012    2    1    2    0    0  0.16219660168E+02  0.75808225962E+01 -0.54892879234E+01  0.72461587394E+02  0.70000022275E+02 0.  0.
        -12    1    1    2    0    0 -0.16219660168E+02 -0.75808225962E+01  0.54892879234E+01  0.18726412606E+02  0.00000000000E+00 0.  1.
         11    1    3    3    0    0  0.13856892295E+02  0.75708120833E+01 -0.98685354847E+01  0.18620382718E+02  0.51100000000E-03 0. -1.
        -11    1    3    3    0    0  0.77282215089E+00 -0.17946762269E+02 -0.17780445616E+02  0.25275042563E+02  0.51100000000E-03 0.  1.
        -12    1    3    3    0    0  0.15899457215E+01  0.17956772782E+02  0.22159693177E+02  0.28566162113E+02  0.00000000000E+00 0.  1.
</event>
<event>
 7    1  0.3440346E-013  0.7246157E+02  0.7816164E-02  0.1226708E+00
        -11   -1    0    0    0    0  0.00000000000E+00  0.00000000000E+00  0.45593999997E+02  0.45594000000E+02  0.51100000000E-03 0. -1.
         11   -1    0    0    0    0 -0.00000000000E+00 -0.00000000000E+00 -0.45593999997E+02  0.45594000000E+02  0.51100000000E-03 0.  1.
    9900012    2    1    2    0    0  0.15746121952E+02  0.15739560273E+01  0.10013068643E+02  0.72461568473E+02  0.69999997627E+02 0.  0.
        -12    1    1    2    0    0 -0.15746121952E+02 -0.15739560273E+01 -0.10013068643E+02  0.18726431527E+02  0.00000000000E+00 0.  1.
         11    1    3    3    0    0 -0.93674021193E+01  0.25387800290E+02 -0.70666714122E+01  0.27968311910E+02  0.51100000000E-03 0. -1.
        -11    1    3    3    0    0  0.78703885625E+01  0.39159449448E+00 -0.32096346342E+01  0.85087083109E+01  0.51100000000E-03 0.  1.
        -12    1    3    3    0    0  0.17243135509E+02 -0.24205438757E+02  0.20289374689E+02  0.35984548251E+02  0.00000000000E+00 0.  1.
</event>
<event>
 7    1  0.3440346E-013  0.7246159E+02  0.7816164E-02  0.1226708E+00
        -11   -1    0    0    0    0  0.00000000000E+00  0.00000000000E+00  0.45593999997E+02  0.45594000000E+02  0.51100000000E-03 0. -1.
         11   -1    0    0    0    0 -0.00000000000E+00 -0.00000000000E+00 -0.45593999997E+02  0.45594000000E+02  0.51100000000E-03 0.  1.
    9900012    2    1    2    0    0 -0.66803165963E-01 -0.17468503415E+02  0.67472573558E+01  0.72461586674E+02  0.70000021338E+02 0.  0.
        -12    1    1    2    0    0  0.66803165963E-01  0.17468503415E+02 -0.67472573558E+01  0.18726413326E+02  0.00000000000E+00 0.  1.
         11    1    3    3    0    0 -0.16951300906E+02 -0.17048890417E+01  0.23896473874E+01  0.17203594507E+02  0.51100000000E-03 0. -1.
        -11    1    3    3    0    0  0.14974636242E+02  0.14831461811E+02 -0.75271586791E+01  0.22380127525E+02  0.51100000000E-03 0.  1.
         12    1    3    3    0    0  0.19098614987E+01 -0.30595076184E+02  0.11884768647E+02  0.32877864642E+02  0.00000000000E+00 0. -1.
</event>
