<event>
 7    1  0.1284777E-011  0.5930193E+02  0.7816164E-02  0.1266605E+00
        -11   -1    0    0    0    0  0.00000000000E+00  0.00000000000E+00  0.45593999997E+02  0.45594000000E+02  0.51100000000E-03 0.  1.
         11   -1    0    0    0    0 -0.00000000000E+00 -0.00000000000E+00 -0.45593999997E+02  0.45594000000E+02  0.51100000000E-03 0. -1.
    9900012    2    1    2    0    0  0.29299632954E+02 -0.68039829399E+01 -0.10581044332E+02  0.59301934482E+02  0.49999982591E+02 0.  0.
        -12    1    1    2    0    0 -0.29299632954E+02  0.68039829399E+01  0.10581044332E+02  0.31886065518E+02  0.00000000000E+00 0.  1.
         11    1    3    3    0    0  0.36459126687E+02  0.71650148670E+01 -0.13682072833E+02  0.39595510782E+02  0.51100000000E-03 0. -1.
        -11    1    3    3    0    0 -0.12746500796E+01 -0.87920943894E+01 -0.34109870385E+01  0.95163275172E+01  0.51100000000E-03 0.  1.
        -12    1    3    3    0    0 -0.58848436538E+01 -0.51769034175E+01  0.65120155394E+01  0.10190096183E+02  0.00000000000E+00 0.  1.
</event>
<event>
 7    1  0.1284777E-011  0.5930207E+02  0.7816164E-02  0.1266604E+00
        -11   -1    0    0    0    0  0.00000000000E+00  0.00000000000E+00  0.45593999997E+02  0.45594000000E+02  0.51100000000E-03 0.  1.
         11   -1    0    0    0    0 -0.00000000000E+00 -0.00000000000E+00 -0.45593999997E+02  0.45594000000E+02  0.51100000000E-03 0. -1.
    9900012    2    1    2    0    0  0.14433723603E+02  0.21730933023E+02 -0.18334303515E+02  0.59302070305E+02  0.50000230300E+02 0.  0.
        -12    1    1    2    0    0 -0.14433723603E+02 -0.21730933023E+02  0.18334303515E+02  0.31885929695E+02  0.00000000000E+00 0.  1.
         11    1    3    3    0    0  0.10340827273E+02  0.28924302818E+02 -0.16823079639E+02  0.35022335887E+02  0.51100000000E-03 0. -1.
        -11    1    3    3    0    0  0.67126627367E+01  0.50496251878E+01 -0.66823628031E+01  0.10733709911E+02  0.51100000000E-03 0.  1.
        -12    1    3    3    0    0 -0.26197664061E+01 -0.12242994982E+02  0.51711389271E+01  0.13546024508E+02  0.00000000000E+00 0.  1.
</event>
<event>
 7    1  0.1284777E-011  0.5930195E+02  0.7816164E-02  0.1266605E+00
        -11   -1    0    0    0    0  0.00000000000E+00  0.00000000000E+00  0.45593999997E+02  0.45594000000E+02  0.51100000000E-03 0.  1.
         11   -1    0    0    0    0 -0.00000000000E+00 -0.00000000000E+00 -0.45593999997E+02  0.45594000000E+02  0.51100000000E-03 0. -1.
    9900012    2    1    2    0    0  0.90021590552E+01  0.29641683727E+02 -0.75532646805E+01  0.59301951497E+02  0.50000013622E+02 0.  0.
        -12    1    1    2    0    0 -0.90021590552E+01 -0.29641683727E+02  0.75532646805E+01  0.31886048503E+02  0.00000000000E+00 0.  1.
         11    1    3    3    0    0  0.78557841288E+01  0.14033464963E+02 -0.18615803989E+02  0.24600805710E+02  0.51100000000E-03 0. -1.
        -11    1    3    3    0    0  0.92652626937E+00  0.19783370954E+02 -0.29993382438E+01  0.20030882341E+02  0.51100000000E-03 0.  1.
         12    1    3    3    0    0  0.21984865699E+00 -0.41751521905E+01  0.14061877553E+02  0.14670263445E+02  0.00000000000E+00 0. -1.
</event>
<event>
 7    1  0.1284777E-011  0.5930198E+02  0.7816164E-02  0.1266605E+00
        -11   -1    0    0    0    0  0.00000000000E+00  0.00000000000E+00  0.45593999997E+02  0.45594000000E+02  0.51100000000E-03 0.  1.
         11   -1    0    0    0    0 -0.00000000000E+00 -0.00000000000E+00 -0.45593999997E+02  0.45594000000E+02  0.51100000000E-03 0. -1.
    9900012    2    1    2    0    0  0.20051110333E+02 -0.22576833359E+02 -0.10244893664E+02  0.59301979924E+02  0.50000065466E+02 0.  0.
        -12    1    1    2    0    0 -0.20051110333E+02  0.22576833359E+02  0.10244893664E+02  0.31886020076E+02  0.00000000000E+00 0.  1.
         11    1    3    3    0    0 -0.18079142864E+01 -0.16240714529E+02  0.71181190693E+00  0.16356528939E+02  0.51100000000E-03 0. -1.
        -11    1    3    3    0    0 -0.73809989148E+01 -0.77160147238E+01  0.21176464858E+01  0.10885791432E+02  0.51100000000E-03 0.  1.
         12    1    3    3    0    0  0.29240023534E+02  0.13798958933E+01 -0.13074352057E+02  0.32059659553E+02  0.00000000000E+00 0. -1.
</event>
<event>
 7    1  0.1284777E-011  0.5930192E+02  0.7816164E-02  0.1266605E+00
        -11   -1    0    0    0    0  0.00000000000E+00  0.00000000000E+00  0.45593999997E+02  0.45594000000E+02  0.51100000000E-03 0. -1.
         11   -1    0    0    0    0 -0.00000000000E+00 -0.00000000000E+00 -0.45593999997E+02  0.45594000000E+02  0.51100000000E-03 0.  1.
    9900012    2    1    2    0    0 -0.19226266952E+02  0.25374615586E+02 -0.17892886075E+01  0.59301921365E+02  0.49999958668E+02 0.  0.
        -12    1    1    2    0    0  0.19226266952E+02 -0.25374615586E+02  0.17892886075E+01  0.31886078635E+02  0.00000000000E+00 0.  1.
         11    1    3    3    0    0 -0.61721047032E+01  0.11439096157E+02  0.15531901172E+02  0.20253092396E+02  0.51100000000E-03 0. -1.
        -11    1    3    3    0    0 -0.14220982298E+02  0.21470052715E+01  0.37615721165E+01  0.14865913837E+02  0.51100000000E-03 0.  1.
         12    1    3    3    0    0  0.11668200498E+01  0.11788514158E+02 -0.21082761896E+02  0.24182915131E+02  0.00000000000E+00 0. -1.
</event>
<event>
 7    1  0.1284777E-011  0.5930182E+02  0.7816164E-02  0.1266605E+00
        -11   -1    0    0    0    0  0.00000000000E+00  0.00000000000E+00  0.45593999997E+02  0.45594000000E+02  0.51100000000E-03 0.  1.
         11   -1    0    0    0    0 -0.00000000000E+00 -0.00000000000E+00 -0.45593999997E+02  0.45594000000E+02  0.51100000000E-03 0. -1.
    9900012    2    1    2    0    0  0.48541124782E+01 -0.31508031094E+02  0.64050252343E+00  0.59301816866E+02  0.49999768087E+02 0.  0.
        -12    1    1    2    0    0 -0.48541124782E+01  0.31508031094E+02 -0.64050252343E+00  0.31886183134E+02  0.00000000000E+00 0.  1.
         11    1    3    3    0    0  0.97304423743E+01 -0.34167522406E+02  0.38921566176E+01  0.35738634271E+02  0.51100000000E-03 0. -1.
        -11    1    3    3    0    0  0.69428836353E+01 -0.10942073754E+01  0.50371104595E+01  0.86471616728E+01  0.51100000000E-03 0.  1.
         12    1    3    3    0    0 -0.11819213531E+02  0.37536986870E+01 -0.82887645537E+01  0.14916020922E+02  0.00000000000E+00 0. -1.
</event>
<event>
 7    1  0.1284777E-011  0.5930195E+02  0.7816164E-02  0.1266605E+00
        -11   -1    0    0    0    0  0.00000000000E+00  0.00000000000E+00  0.45593999997E+02  0.45594000000E+02  0.51100000000E-03 0. -1.
         11   -1    0    0    0    0 -0.00000000000E+00 -0.00000000000E+00 -0.45593999997E+02  0.45594000000E+02  0.51100000000E-03 0.  1.
    9900012    2    1    2    0    0 -0.11400743569E+02 -0.24720308695E+02  0.16602703841E+02  0.59301946768E+02  0.50000004998E+02 0.  0.
        -12    1    1    2    0    0  0.11400743569E+02  0.24720308695E+02 -0.16602703841E+02  0.31886053232E+02  0.00000000000E+00 0.  1.
         11    1    3    3    0    0 -0.31792866991E+01  0.58129266641E+00  0.21161303115E+02  0.21406693225E+02  0.51100000000E-03 0. -1.
        -11    1    3    3    0    0 -0.94778234437E+01  0.20985068427E+01  0.14524462707E+01  0.98154199415E+01  0.51100000000E-03 0.  1.
         12    1    3    3    0    0  0.12563665738E+01 -0.27400108204E+02 -0.60110455445E+01  0.28079833601E+02  0.00000000000E+00 0. -1.
</event>
<event>
 7    1  0.1284777E-011  0.5930193E+02  0.7816164E-02  0.1266605E+00
        -11   -1    0    0    0    0  0.00000000000E+00  0.00000000000E+00  0.45593999997E+02  0.45594000000E+02  0.51100000000E-03 0.  1.
         11   -1    0    0    0    0 -0.00000000000E+00 -0.00000000000E+00 -0.45593999997E+02  0.45594000000E+02  0.51100000000E-03 0. -1.
    9900012    2    1    2    0    0  0.52121031561E+01  0.28970830070E+02 -0.12257504511E+02  0.59301930454E+02  0.49999975245E+02 0.  0.
        -12    1    1    2    0    0 -0.52121031561E+01 -0.28970830070E+02  0.12257504511E+02  0.31886069546E+02  0.00000000000E+00 0.  1.
         11    1    3    3    0    0  0.78016663066E+01  0.29870917238E+02 -0.19641953607E+02  0.36591584218E+02  0.51100000000E-03 0. -1.
        -11    1    3    3    0    0  0.78933756205E+01 -0.10505480977E+01 -0.24544163884E+01  0.83326580429E+01  0.51100000000E-03 0.  1.
        -12    1    3    3    0    0 -0.10482938771E+02  0.15046092983E+00  0.98388654845E+01  0.14377688193E+02  0.00000000000E+00 0.  1.
</event>
<event>
 7    1  0.1284777E-011  0.5930194E+02  0.7816164E-02  0.1266605E+00
        -11   -1    0    0    0    0  0.00000000000E+00  0.00000000000E+00  0.45593999997E+02  0.45594000000E+02  0.51100000000E-03 0. -1.
         11   -1    0    0    0    0 -0.00000000000E+00 -0.00000000000E+00 -0.45593999997E+02  0.45594000000E+02  0.51100000000E-03 0.  1.
    9900012    2    1    2    0    0  0.22008411102E+02 -0.97524056865E+01  0.20910308249E+02  0.59301944004E+02  0.49999999958E+02 0.  0.
        -12    1    1    2    0    0 -0.22008411102E+02  0.97524056865E+01 -0.20910308249E+02  0.31886055996E+02  0.00000000000E+00 0.  1.
         11    1    3    3    0    0  0.39770748364E+01 -0.62473940659E+01 -0.58961476142E+01  0.94663410998E+01  0.51100000000E-03 0. -1.
        -11    1    3    3    0    0 -0.11337387712E+02 -0.37763036524E+00  0.25740774576E+01  0.11632060860E+02  0.51100000000E-03 0.  1.
        -12    1    3    3    0    0  0.29368723978E+02 -0.31273812553E+01  0.24232378405E+02  0.38203542045E+02  0.00000000000E+00 0.  1.
</event>
<event>
 7    1  0.1284777E-011  0.5930195E+02  0.7816164E-02  0.1266605E+00
        -11   -1    0    0    0    0  0.00000000000E+00  0.00000000000E+00  0.45593999997E+02  0.45594000000E+02  0.51100000000E-03 0.  1.
         11   -1    0    0    0    0 -0.00000000000E+00 -0.00000000000E+00 -0.45593999997E+02  0.45594000000E+02  0.51100000000E-03 0. -1.
    9900012    2    1    2    0    0  0.10361937253E+02  0.34166476051E+01 -0.29961258041E+02  0.59301949634E+02  0.50000010225E+02 0.  0.
        -12    1    1    2    0    0 -0.10361937253E+02 -0.34166476051E+01  0.29961258041E+02  0.31886050366E+02  0.00000000000E+00 0.  1.
         11    1    3    3    0    0  0.37945212475E+01  0.10335408738E+02 -0.24021116406E+02  0.26424100722E+02  0.51100000000E-03 0. -1.
        -11    1    3    3    0    0  0.12662913929E+02  0.44188285035E+01 -0.12584877596E+02  0.18391698641E+02  0.51100000000E-03 0.  1.
        -12    1    3    3    0    0 -0.60954979238E+01 -0.11337589637E+02  0.66447359609E+01  0.14486150272E+02  0.00000000000E+00 0.  1.
</event>
<event>
 7    1  0.1284777E-011  0.5930194E+02  0.7816164E-02  0.1266605E+00
        -11   -1    0    0    0    0  0.00000000000E+00  0.00000000000E+00  0.45593999997E+02  0.45594000000E+02  0.51100000000E-03 0. -1.
         11   -1    0    0    0    0 -0.00000000000E+00 -0.00000000000E+00 -0.45593999997E+02  0.45594000000E+02  0.51100000000E-03 0.  1.
    9900012    2    1    2    0    0  0.31344552540E+02  0.19251350059E+01  0.55257172635E+01  0.59301942389E+02  0.49999997011E+02 0.  0.
        -12    1    1    2    0    0 -0.31344552540E+02 -0.19251350059E+01 -0.55257172635E+01  0.31886057611E+02  0.00000000000E+00 0.  1.
         11    1    3    3    0    0  0.15393603019E+01 -0.98553014616E+01 -0.70376856856E+00  0.99995943667E+01  0.51100000000E-03 0. -1.
        -11    1    3    3    0    0  0.12866875153E+02  0.11440579898E+02 -0.14514530975E+02  0.22519213003E+02  0.51100000000E-03 0.  1.
         12    1    3    3    0    0  0.16938317085E+02  0.33985656934E+00  0.20744016807E+02  0.26783135019E+02  0.00000000000E+00 0. -1.
</event>
<event>
 7    1  0.1284777E-011  0.5930201E+02  0.7816164E-02  0.1266605E+00
        -11   -1    0    0    0    0  0.00000000000E+00  0.00000000000E+00  0.45593999997E+02  0.45594000000E+02  0.51100000000E-03 0.  1.
         11   -1    0    0    0    0 -0.00000000000E+00 -0.00000000000E+00 -0.45593999997E+02  0.45594000000E+02  0.51100000000E-03 0. -1.
    9900012    2    1    2    0    0 -0.50014872708E+01 -0.23875067830E+02  0.20534915650E+02  0.59302007784E+02  0.50000116277E+02 0.  0.
        -12    1    1    2    0    0  0.50014872708E+01  0.23875067830E+02 -0.20534915650E+02  0.31885992216E+02  0.00000000000E+00 0.  1.
         11    1    3    3    0    0  0.84382664310E+01 -0.33832599186E+01  0.37472318665E+01  0.98332362404E+01  0.51100000000E-03 0. -1.
        -11    1    3    3    0    0 -0.55703228330E+00  0.52036331496E+01 -0.92870693783E+01  0.10660100413E+02  0.51100000000E-03 0.  1.
        -12    1    3    3    0    0 -0.12882721419E+02 -0.25695441061E+02  0.26074753162E+02  0.38808671131E+02  0.00000000000E+00 0.  1.
</event>
<event>
 7    1  0.1284777E-011  0.5930190E+02  0.7816164E-02  0.1266605E+00
        -11   -1    0    0    0    0  0.00000000000E+00  0.00000000000E+00  0.45593999997E+02  0.45594000000E+02  0.51100000000E-03 0. -1.
         11   -1    0    0    0    0 -0.00000000000E+00 -0.00000000000E+00 -0.45593999997E+02  0.45594000000E+02  0.51100000000E-03 0.  1.
    9900012    2    1    2    0    0  0.17828559915E+02  0.26175230689E+02  0.37044477489E+01  0.59301902976E+02  0.49999925132E+02 0.  0.
        -12    1    1    2    0    0 -0.17828559915E+02 -0.26175230689E+02 -0.37044477489E+01  0.31886097024E+02  0.00000000000E+00 0.  1.
         11    1    3    3    0    0  0.19459642687E+02  0.67526520291E+01  0.89848601498E+01  0.22472287714E+02  0.51100000000E-03 0. -1.
        -11    1    3    3    0    0 -0.12288262913E-01 -0.79596826106E+00 -0.14519465534E+02  0.14541272163E+02  0.51100000000E-03 0.  1.
         12    1    3    3    0    0 -0.16187945096E+01  0.20218546921E+02  0.92390531333E+01  0.22288343098E+02  0.00000000000E+00 0. -1.
</event>
<event>
 7    1  0.1284777E-011  0.5930195E+02  0.7816164E-02  0.1266605E+00
        -11   -1    0    0    0    0  0.00000000000E+00  0.00000000000E+00  0.45593999997E+02  0.45594000000E+02  0.51100000000E-03 0. -1.
         11   -1    0    0    0    0 -0.00000000000E+00 -0.00000000000E+00 -0.45593999997E+02  0.45594000000E+02  0.51100000000E-03 0.  1.
    9900012    2    1    2    0    0  0.29683695063E+02 -0.10011570405E+02  0.59470286856E+01  0.59301945921E+02  0.50000003452E+02 0.  0.
        -12    1    1    2    0    0 -0.29683695063E+02  0.10011570405E+02 -0.59470286856E+01  0.31886054079E+02  0.00000000000E+00 0.  1.
         11    1    3    3    0    0  0.44636370831E+01 -0.17084419682E+02  0.60516884746E+01  0.18666129367E+02  0.51100000000E-03 0. -1.
        -11    1    3    3    0    0  0.15357098145E+02 -0.11547842230E+02 -0.27073083434E+01  0.19404191360E+02  0.51100000000E-03 0.  1.
        -12    1    3    3    0    0  0.98629598349E+01  0.18620691507E+02  0.26026485544E+01  0.21231625194E+02  0.00000000000E+00 0.  1.
</event>
<event>
 7    1  0.1284777E-011  0.5930192E+02  0.7816164E-02  0.1266605E+00
        -11   -1    0    0    0    0  0.00000000000E+00  0.00000000000E+00  0.45593999997E+02  0.45594000000E+02  0.51100000000E-03 0.  1.
         11   -1    0    0    0    0 -0.00000000000E+00 -0.00000000000E+00 -0.45593999997E+02  0.45594000000E+02  0.51100000000E-03 0. -1.
    9900012    2    1    2    0    0  0.16746070162E+02 -0.12547162830E+02 -0.24059512650E+02  0.59301916674E+02  0.49999950113E+02 0.  0.
        -12    1    1    2    0    0 -0.16746070162E+02  0.12547162830E+02  0.24059512650E+02  0.31886083326E+02  0.00000000000E+00 0.  1.
         11    1    3    3    0    0  0.14894017563E+02 -0.22685640438E+01 -0.15381673843E+02  0.21530769435E+02  0.51100000000E-03 0. -1.
        -11    1    3    3    0    0  0.11219576774E+01 -0.55349393077E+00  0.13492620046E+02  0.13550495951E+02  0.51100000000E-03 0.  1.
         12    1    3    3    0    0  0.73009492191E+00 -0.97251048559E+01 -0.22170458853E+02  0.24220651288E+02  0.00000000000E+00 0. -1.
</event>
<event>
 7    1  0.1284777E-011  0.5930170E+02  0.7816164E-02  0.1266606E+00
        -11   -1    0    0    0    0  0.00000000000E+00  0.00000000000E+00  0.45593999997E+02  0.45594000000E+02  0.51100000000E-03 0.  1.
         11   -1    0    0    0    0 -0.00000000000E+00 -0.00000000000E+00 -0.45593999997E+02  0.45594000000E+02  0.51100000000E-03 0. -1.
    9900012    2    1    2    0    0 -0.14535315492E+02  0.14983701634E+02 -0.24102889466E+02  0.59301702133E+02  0.49999558839E+02 0.  0.
        -12    1    1    2    0    0  0.14535315492E+02 -0.14983701634E+02  0.24102889466E+02  0.31886297867E+02  0.00000000000E+00 0.  1.
         11    1    3    3    0    0 -0.62139812356E+01  0.23948577993E+02 -0.19094471114E+02  0.31252948310E+02  0.51100000000E-03 0. -1.
        -11    1    3    3    0    0 -0.10619054443E+02  0.52083113346E+01 -0.66964099956E+01  0.13591641966E+02  0.51100000000E-03 0.  1.
        -12    1    3    3    0    0  0.22977201875E+01 -0.14173187694E+02  0.16879916433E+01  0.14457111857E+02  0.00000000000E+00 0.  1.
</event>
<event>
 7    1  0.1284777E-011  0.5930195E+02  0.7816164E-02  0.1266605E+00
        -11   -1    0    0    0    0  0.00000000000E+00  0.00000000000E+00  0.45593999997E+02  0.45594000000E+02  0.51100000000E-03 0.  1.
         11   -1    0    0    0    0 -0.00000000000E+00 -0.00000000000E+00 -0.45593999997E+02  0.45594000000E+02  0.51100000000E-03 0. -1.
    9900012    2    1    2    0    0 -0.16252704343E+02 -0.15346700170E+02 -0.22738699581E+02  0.59301951904E+02  0.50000014365E+02 0.  0.
        -12    1    1    2    0    0  0.16252704343E+02  0.15346700170E+02  0.22738699581E+02  0.31886048096E+02  0.00000000000E+00 0.  1.
         11    1    3    3    0    0  0.71843735134E+01 -0.66623767810E+01 -0.20708107754E+01  0.10014526683E+02  0.51100000000E-03 0.  1.
        -11    1    3    3    0    0  0.66951523799E+01 -0.10195685713E+02  0.85456223840E+00  0.12227319798E+02  0.51100000000E-03 0. -1.
         12    1    3    3    0    0 -0.30132230236E+02  0.15113623247E+01 -0.21522451044E+02  0.37060105424E+02  0.00000000000E+00 0. -1.
</event>
<event>
 7    1  0.1284777E-011  0.5930192E+02  0.7816164E-02  0.1266605E+00
        -11   -1    0    0    0    0  0.00000000000E+00  0.00000000000E+00  0.45593999997E+02  0.45594000000E+02  0.51100000000E-03 0. -1.
         11   -1    0    0    0    0 -0.00000000000E+00 -0.00000000000E+00 -0.45593999997E+02  0.45594000000E+02  0.51100000000E-03 0.  1.
    9900012    2    1    2    0    0  0.22369910084E+02 -0.22701648093E+02  0.97164440921E+00  0.59301924729E+02  0.49999964805E+02 0.  0.
        -12    1    1    2    0    0 -0.22369910084E+02  0.22701648093E+02 -0.97164440921E+00  0.31886075271E+02  0.00000000000E+00 0.  1.
         11    1    3    3    0    0  0.66223478512E+01 -0.67368403450E+01 -0.22317442372E+01  0.97067600927E+01  0.51100000000E-03 0. -1.
        -11    1    3    3    0    0 -0.41823581979E+01 -0.40241151703E+01 -0.17523843011E+02  0.18459975545E+02  0.51100000000E-03 0.  1.
         12    1    3    3    0    0  0.19929920431E+02 -0.11940692577E+02  0.20727231657E+02  0.31135189092E+02  0.00000000000E+00 0. -1.
</event>
<event>
 7    1  0.1284777E-011  0.5930195E+02  0.7816164E-02  0.1266605E+00
        -11   -1    0    0    0    0  0.00000000000E+00  0.00000000000E+00  0.45593999997E+02  0.45594000000E+02  0.51100000000E-03 0. -1.
         11   -1    0    0    0    0 -0.00000000000E+00 -0.00000000000E+00 -0.45593999997E+02  0.45594000000E+02  0.51100000000E-03 0.  1.
    9900012    2    1    2    0    0 -0.13598425526E+02 -0.82710780803E+01  0.27629549639E+02  0.59301954108E+02  0.50000018383E+02 0.  0.
        -12    1    1    2    0    0  0.13598425526E+02  0.82710780803E+01 -0.27629549639E+02  0.31886045892E+02  0.00000000000E+00 0.  1.
         11    1    3    3    0    0 -0.16691942235E+02  0.19269423592E+01  0.16206282728E+02  0.23344756211E+02  0.51100000000E-03 0. -1.
        -11    1    3    3    0    0 -0.10051852324E-01  0.11731135584E+02  0.20555512483E+01  0.11909867099E+02  0.51100000000E-03 0.  1.
        -12    1    3    3    0    0  0.31035685618E+01 -0.21929156024E+02  0.93677156631E+01  0.24047330797E+02  0.00000000000E+00 0.  1.
</event>
<event>
 7    1  0.1284777E-011  0.5930198E+02  0.7816164E-02  0.1266605E+00
        -11   -1    0    0    0    0  0.00000000000E+00  0.00000000000E+00  0.45593999997E+02  0.45594000000E+02  0.51100000000E-03 0.  1.
         11   -1    0    0    0    0 -0.00000000000E+00 -0.00000000000E+00 -0.45593999997E+02  0.45594000000E+02  0.51100000000E-03 0. -1.
    9900012    2    1    2    0    0 -0.39377638036E+01 -0.30533893134E+02 -0.83002172532E+01  0.59301980805E+02  0.50000067072E+02 0.  0.
        -12    1    1    2    0    0  0.39377638036E+01  0.30533893134E+02  0.83002172532E+01  0.31886019195E+02  0.00000000000E+00 0.  1.
         11    1    3    3    0    0 -0.81803894006E+00 -0.32150896122E+02 -0.14918940298E+02  0.35453125237E+02  0.51100000000E-03 0. -1.
        -11    1    3    3    0    0  0.69402925582E+00  0.32153225128E+01 -0.80035436063E+01  0.86531315712E+01  0.51100000000E-03 0.  1.
         12    1    3    3    0    0 -0.38137541194E+01 -0.15983195242E+01  0.14622266651E+02  0.15195723997E+02  0.00000000000E+00 0. -1.
</event>
<event>
 7    1  0.1284777E-011  0.5930193E+02  0.7816164E-02  0.1266605E+00
        -11   -1    0    0    0    0  0.00000000000E+00  0.00000000000E+00  0.45593999997E+02  0.45594000000E+02  0.51100000000E-03 0.  1.
         11   -1    0    0    0    0 -0.00000000000E+00 -0.00000000000E+00 -0.45593999997E+02  0.45594000000E+02  0.51100000000E-03 0. -1.
    9900012    2    1    2    0    0  0.13076602899E+02 -0.21248052436E+02 -0.19855577500E+02  0.59301933552E+02  0.49999980894E+02 0.  0.
        -12    1    1    2    0    0 -0.13076602899E+02  0.21248052436E+02  0.19855577500E+02  0.31886066448E+02  0.00000000000E+00 0.  1.
         11    1    3    3    0    0  0.18217819592E+02 -0.28595594798E+02 -0.14271544847E+02  0.36786872456E+02  0.51100000000E-03 0. -1.
        -11    1    3    3    0    0 -0.17409078152E+00 -0.61183659583E+01  0.17921351559E+01  0.63778098340E+01  0.51100000000E-03 0.  1.
        -12    1    3    3    0    0 -0.49671259115E+01  0.13465908321E+02 -0.73761678091E+01  0.16137251261E+02  0.00000000000E+00 0.  1.
</event>
<event>
 7    1  0.1284777E-011  0.5930193E+02  0.7816164E-02  0.1266605E+00
        -11   -1    0    0    0    0  0.00000000000E+00  0.00000000000E+00  0.45593999997E+02  0.45594000000E+02  0.51100000000E-03 0.  1.
         11   -1    0    0    0    0 -0.00000000000E+00 -0.00000000000E+00 -0.45593999997E+02  0.45594000000E+02  0.51100000000E-03 0. -1.
    9900012    2    1    2    0    0 -0.30702380944E+02 -0.74795441172E+01  0.42592836403E+01  0.59301932934E+02  0.49999979767E+02 0.  0.
        -12    1    1    2    0    0  0.30702380944E+02  0.74795441172E+01 -0.42592836403E+01  0.31886067066E+02  0.00000000000E+00 0.  1.
         11    1    3    3    0    0 -0.12253691054E+02 -0.90186974010E+01 -0.32433061150E+01  0.15556634664E+02  0.51100000000E-03 0. -1.
        -11    1    3    3    0    0 -0.85915592948E+01 -0.13184200883E+02 -0.10156639516E+02  0.18729532043E+02  0.51100000000E-03 0.  1.
         12    1    3    3    0    0 -0.98571305956E+01  0.14723354167E+02  0.17659229271E+02  0.25015766227E+02  0.00000000000E+00 0. -1.
</event>
<event>
 7    1  0.1284777E-011  0.5930194E+02  0.7816164E-02  0.1266605E+00
        -11   -1    0    0    0    0  0.00000000000E+00  0.00000000000E+00  0.45593999997E+02  0.45594000000E+02  0.51100000000E-03 0. -1.
         11   -1    0    0    0    0 -0.00000000000E+00 -0.00000000000E+00 -0.45593999997E+02  0.45594000000E+02  0.51100000000E-03 0.  1.
    9900012    2    1    2    0    0  0.23230374734E+02 -0.19399392542E+02  0.10036629169E+02  0.59301942446E+02  0.49999997114E+02 0.  0.
        -12    1    1    2    0    0 -0.23230374734E+02  0.19399392542E+02 -0.10036629169E+02  0.31886057554E+02  0.00000000000E+00 0.  1.
         11    1    3    3    0    0  0.20620268204E+02 -0.10424783447E+02  0.22962365941E+02  0.32575171842E+02  0.51100000000E-03 0. -1.
        -11    1    3    3    0    0  0.92008647565E+01 -0.12071524315E+02 -0.50402346936E+01  0.15993172843E+02  0.51100000000E-03 0.  1.
        -12    1    3    3    0    0 -0.65907582259E+01  0.30969152198E+01 -0.78855020777E+01  0.10733597761E+02  0.00000000000E+00 0.  1.
</event>
<event>
 7    1  0.1284777E-011  0.5930195E+02  0.7816164E-02  0.1266605E+00
        -11   -1    0    0    0    0  0.00000000000E+00  0.00000000000E+00  0.45593999997E+02  0.45594000000E+02  0.51100000000E-03 0.  1.
         11   -1    0    0    0    0 -0.00000000000E+00 -0.00000000000E+00 -0.45593999997E+02  0.45594000000E+02  0.51100000000E-03 0. -1.
    9900012    2    1    2    0    0  0.27009091326E+02  0.20125959302E+01 -0.16827920816E+02  0.59301945436E+02  0.50000002569E+02 0.  0.
        -12    1    1    2    0    0 -0.27009091326E+02 -0.20125959302E+01  0.16827920816E+02  0.31886054564E+02  0.00000000000E+00 0.  1.
         11    1    3    3    0    0  0.21472003277E+02 -0.76999088660E+01 -0.19339291796E+02  0.29905580227E+02  0.51100000000E-03 0. -1.
        -11    1    3    3    0    0  0.50626068929E+01 -0.88871883554E+00 -0.11043850684E+02  0.12181397617E+02  0.51100000000E-03 0.  1.
        -12    1    3    3    0    0  0.47448115666E+00  0.10601223632E+02  0.13555221664E+02  0.17214967593E+02  0.00000000000E+00 0.  1.
</event>
<event>
 7    1  0.1284777E-011  0.5930185E+02  0.7816164E-02  0.1266605E+00
        -11   -1    0    0    0    0  0.00000000000E+00  0.00000000000E+00  0.45593999997E+02  0.45594000000E+02  0.51100000000E-03 0. -1.
         11   -1    0    0    0    0 -0.00000000000E+00 -0.00000000000E+00 -0.45593999997E+02  0.45594000000E+02  0.51100000000E-03 0.  1.
    9900012    2    1    2    0    0 -0.17696758984E+02 -0.22909852673E+02  0.13367500960E+02  0.59301847677E+02  0.49999824280E+02 0.  0.
        -12    1    1    2    0    0  0.17696758984E+02  0.22909852673E+02 -0.13367500960E+02  0.31886152323E+02  0.00000000000E+00 0.  1.
         11    1    3    3    0    0 -0.17478986592E+01 -0.10332496974E+02  0.28210625229E+02  0.30094102737E+02  0.51100000000E-03 0. -1.
        -11    1    3    3    0    0 -0.18195680623E+01 -0.72335680362E+00  0.29761103132E+01  0.35624859096E+01  0.51100000000E-03 0.  1.
        -12    1    3    3    0    0 -0.14129292262E+02 -0.11853998896E+02 -0.17819234583E+02  0.25645259031E+02  0.00000000000E+00 0.  1.
</event>
<event>
 7    1  0.1284777E-011  0.5930194E+02  0.7816164E-02  0.1266605E+00
        -11   -1    0    0    0    0  0.00000000000E+00  0.00000000000E+00  0.45593999997E+02  0.45594000000E+02  0.51100000000E-03 0.  1.
         11   -1    0    0    0    0 -0.00000000000E+00 -0.00000000000E+00 -0.45593999997E+02  0.45594000000E+02  0.51100000000E-03 0. -1.
    9900012    2    1    2    0    0  0.21621358353E+02  0.17522783294E+02 -0.15562436857E+02  0.59301944861E+02  0.50000001521E+02 0.  0.
        -12    1    1    2    0    0 -0.21621358353E+02 -0.17522783294E+02  0.15562436857E+02  0.31886055139E+02  0.00000000000E+00 0.  1.
         11    1    3    3    0    0 -0.11598607958E+01  0.12889498884E+02 -0.36827694053E+01  0.13455379939E+02  0.51100000000E-03 0. -1.
        -11    1    3    3    0    0  0.49086739657E+01  0.19474043105E+02 -0.77533341668E+00  0.20098123721E+02  0.51100000000E-03 0.  1.
         12    1    3    3    0    0  0.17872545183E+02 -0.14840758695E+02 -0.11104334035E+02  0.25748441202E+02  0.00000000000E+00 0. -1.
</event>
<event>
 7    1  0.1284777E-011  0.5930195E+02  0.7816164E-02  0.1266605E+00
        -11   -1    0    0    0    0  0.00000000000E+00  0.00000000000E+00  0.45593999997E+02  0.45594000000E+02  0.51100000000E-03 0. -1.
         11   -1    0    0    0    0 -0.00000000000E+00 -0.00000000000E+00 -0.45593999997E+02  0.45594000000E+02  0.51100000000E-03 0.  1.
    9900012    2    1    2    0    0 -0.13593100966E+02  0.27853784394E+02 -0.74909404295E+01  0.59301954659E+02  0.50000019389E+02 0.  0.
        -12    1    1    2    0    0  0.13593100966E+02 -0.27853784394E+02  0.74909404295E+01  0.31886045341E+02  0.00000000000E+00 0.  1.
         11    1    3    3    0    0 -0.10317751368E+01  0.59262081440E+01 -0.46443411331E+01  0.75996320780E+01  0.51100000000E-03 0. -1.
        -11    1    3    3    0    0 -0.10882661059E+02 -0.12423859791E+02 -0.49603816341E+01  0.17244998986E+02  0.51100000000E-03 0.  1.
         12    1    3    3    0    0 -0.16786647707E+01  0.34351436042E+02  0.21137823377E+01  0.34457323595E+02  0.00000000000E+00 0. -1.
</event>
<event>
 7    1  0.1284777E-011  0.5930187E+02  0.7816164E-02  0.1266605E+00
        -11   -1    0    0    0    0  0.00000000000E+00  0.00000000000E+00  0.45593999997E+02  0.45594000000E+02  0.51100000000E-03 0.  1.
         11   -1    0    0    0    0 -0.00000000000E+00 -0.00000000000E+00 -0.45593999997E+02  0.45594000000E+02  0.51100000000E-03 0. -1.
    9900012    2    1    2    0    0  0.30870946190E+02 -0.40684127134E+00  0.79714598786E+01  0.59301874317E+02  0.49999872865E+02 0.  0.
        -12    1    1    2    0    0 -0.30870946190E+02  0.40684127134E+00 -0.79714598786E+01  0.31886125683E+02  0.00000000000E+00 0.  1.
         11    1    3    3    0    0  0.11000601216E+02  0.13924354796E+02  0.58595289591E+01  0.18687829288E+02  0.51100000000E-03 0. -1.
        -11    1    3    3    0    0  0.12084199231E+01  0.97380893009E+01 -0.15635848980E+01  0.99365718403E+01  0.51100000000E-03 0.  1.
        -12    1    3    3    0    0  0.18661925051E+02 -0.24069285369E+02  0.36755158175E+01  0.30677473189E+02  0.00000000000E+00 0.  1.
</event>
<event>
 7    1  0.1284777E-011  0.5930194E+02  0.7816164E-02  0.1266605E+00
        -11   -1    0    0    0    0  0.00000000000E+00  0.00000000000E+00  0.45593999997E+02  0.45594000000E+02  0.51100000000E-03 0.  1.
         11   -1    0    0    0    0 -0.00000000000E+00 -0.00000000000E+00 -0.45593999997E+02  0.45594000000E+02  0.51100000000E-03 0. -1.
    9900012    2    1    2    0    0  0.12434687405E+02 -0.28269942897E+02  0.79315678619E+01  0.59301938923E+02  0.49999990691E+02 0.  0.
        -12    1    1    2    0    0 -0.12434687405E+02  0.28269942897E+02 -0.79315678619E+01  0.31886061077E+02  0.00000000000E+00 0.  1.
         11    1    3    3    0    0  0.67972028151E+01 -0.10227689122E+02 -0.40923120612E+01  0.12944288669E+02  0.51100000000E-03 0. -1.
        -11    1    3    3    0    0  0.14204359498E+02  0.84107373481E+01  0.77097731583E+01  0.18219356024E+02  0.51100000000E-03 0.  1.
         12    1    3    3    0    0 -0.85668749081E+01 -0.26452991122E+02  0.43141067648E+01  0.28138294230E+02  0.00000000000E+00 0. -1.
</event>
<event>
 7    1  0.1284777E-011  0.5930194E+02  0.7816164E-02  0.1266605E+00
        -11   -1    0    0    0    0  0.00000000000E+00  0.00000000000E+00  0.45593999997E+02  0.45594000000E+02  0.51100000000E-03 0. -1.
         11   -1    0    0    0    0 -0.00000000000E+00 -0.00000000000E+00 -0.45593999997E+02  0.45594000000E+02  0.51100000000E-03 0.  1.
    9900012    2    1    2    0    0 -0.91553930353E+01 -0.29892274571E+02  0.62730875553E+01  0.59301938341E+02  0.49999989629E+02 0.  0.
        -12    1    1    2    0    0  0.91553930353E+01  0.29892274571E+02 -0.62730875553E+01  0.31886061659E+02  0.00000000000E+00 0.  1.
         11    1    3    3    0    0 -0.20722166186E+02 -0.11866957917E+02  0.16066733523E+02  0.28781466050E+02  0.51100000000E-03 0. -1.
        -11    1    3    3    0    0 -0.72365932267E+00 -0.63439051478E+00 -0.91653019670E+01  0.92156874159E+01  0.51100000000E-03 0.  1.
        -12    1    3    3    0    0  0.12290432474E+02 -0.17390926139E+02 -0.62834400093E+00  0.21304784875E+02  0.00000000000E+00 0.  1.
</event>
<event>
 7    1  0.1284777E-011  0.5930179E+02  0.7816164E-02  0.1266605E+00
        -11   -1    0    0    0    0  0.00000000000E+00  0.00000000000E+00  0.45593999997E+02  0.45594000000E+02  0.51100000000E-03 0. -1.
         11   -1    0    0    0    0 -0.00000000000E+00 -0.00000000000E+00 -0.45593999997E+02  0.45594000000E+02  0.51100000000E-03 0.  1.
    9900012    2    1    2    0    0  0.14218124086E+02 -0.28149076127E+01 -0.28401611902E+02  0.59301791131E+02  0.49999721153E+02 0.  0.
        -12    1    1    2    0    0 -0.14218124086E+02  0.28149076127E+01  0.28401611902E+02  0.31886208869E+02  0.00000000000E+00 0.  1.
         11    1    3    3    0    0  0.45246880207E+01  0.11520008609E+02  0.74012278664E+01  0.14420872866E+02  0.51100000000E-03 0. -1.
        -11    1    3    3    0    0 -0.48595995767E+01 -0.94508251422E+01 -0.87054957512E+01  0.13737520171E+02  0.51100000000E-03 0.  1.
        -12    1    3    3    0    0  0.14553035642E+02 -0.48840910796E+01 -0.27097344017E+02  0.31143398094E+02  0.00000000000E+00 0.  1.
</event>
<event>
 7    1  0.1284777E-011  0.5930194E+02  0.7816164E-02  0.1266605E+00
        -11   -1    0    0    0    0  0.00000000000E+00  0.00000000000E+00  0.45593999997E+02  0.45594000000E+02  0.51100000000E-03 0. -1.
         11   -1    0    0    0    0 -0.00000000000E+00 -0.00000000000E+00 -0.45593999997E+02  0.45594000000E+02  0.51100000000E-03 0.  1.
    9900012    2    1    2    0    0  0.13094161105E+02 -0.10251406354E+02  0.27206106420E+02  0.59301943269E+02  0.49999998617E+02 0.  0.
        -12    1    1    2    0    0 -0.13094161105E+02  0.10251406354E+02 -0.27206106420E+02  0.31886056731E+02  0.00000000000E+00 0.  1.
         11    1    3    3    0    0 -0.57968269391E+01 -0.54546883319E+01  0.42622427104E+01  0.90290387386E+01  0.51100000000E-03 0. -1.
        -11    1    3    3    0    0 -0.53760775086E+01 -0.11290576867E+02  0.21792596803E+02  0.25125616630E+02  0.51100000000E-03 0.  1.
         12    1    3    3    0    0  0.24267065553E+02  0.64938588450E+01  0.11512669064E+01  0.25147287900E+02  0.00000000000E+00 0. -1.
</event>
<event>
 7    1  0.1284777E-011  0.5930191E+02  0.7816164E-02  0.1266605E+00
        -11   -1    0    0    0    0  0.00000000000E+00  0.00000000000E+00  0.45593999997E+02  0.45594000000E+02  0.51100000000E-03 0.  1.
         11   -1    0    0    0    0 -0.00000000000E+00 -0.00000000000E+00 -0.45593999997E+02  0.45594000000E+02  0.51100000000E-03 0. -1.
    9900012    2    1    2    0    0 -0.18811217394E+02  0.69677793441E+01 -0.24785295388E+02  0.59301910301E+02  0.49999938490E+02 0.  0.
        -12    1    1    2    0    0  0.18811217394E+02 -0.69677793441E+01  0.24785295388E+02  0.31886089699E+02  0.00000000000E+00 0.  1.
         11    1    3    3    0    0 -0.19623019618E+02  0.89552445214E+01 -0.23066727989E+02  0.31580583334E+02  0.51100000000E-03 0. -1.
        -11    1    3    3    0    0 -0.12694217123E+02 -0.13178001376E+01  0.34888294273E+01  0.13230709603E+02  0.51100000000E-03 0.  1.
        -12    1    3    3    0    0  0.13506019347E+02 -0.66966503967E+00 -0.52073968260E+01  0.14490617363E+02  0.00000000000E+00 0.  1.
</event>
<event>
 7    1  0.1284777E-011  0.5930193E+02  0.7816164E-02  0.1266605E+00
        -11   -1    0    0    0    0  0.00000000000E+00  0.00000000000E+00  0.45593999997E+02  0.45594000000E+02  0.51100000000E-03 0.  1.
         11   -1    0    0    0    0 -0.00000000000E+00 -0.00000000000E+00 -0.45593999997E+02  0.45594000000E+02  0.51100000000E-03 0. -1.
    9900012    2    1    2    0    0  0.25445271288E+02 -0.74981876374E+01  0.17692845445E+02  0.59301930491E+02  0.49999975313E+02 0.  0.
        -12    1    1    2    0    0 -0.25445271288E+02  0.74981876374E+01 -0.17692845445E+02  0.31886069509E+02  0.00000000000E+00 0.  1.
         11    1    3    3    0    0 -0.84871184362E+00  0.10651545180E+01  0.74987558265E+01  0.76214306497E+01  0.51100000000E-03 0.  1.
        -11    1    3    3    0    0  0.19936070068E+02 -0.25058137037E+02  0.16955583392E+01  0.32066057442E+02  0.51100000000E-03 0. -1.
         12    1    3    3    0    0  0.63579130632E+01  0.16494794882E+02  0.84985312795E+01  0.19614442399E+02  0.00000000000E+00 0. -1.
</event>
<event>
 7    1  0.1284777E-011  0.5930191E+02  0.7816164E-02  0.1266605E+00
        -11   -1    0    0    0    0  0.00000000000E+00  0.00000000000E+00  0.45593999997E+02  0.45594000000E+02  0.51100000000E-03 0. -1.
         11   -1    0    0    0    0 -0.00000000000E+00 -0.00000000000E+00 -0.45593999997E+02  0.45594000000E+02  0.51100000000E-03 0.  1.
    9900012    2    1    2    0    0 -0.51898376161E+01 -0.43195668720E+01  0.31162954143E+02  0.59301909249E+02  0.49999936572E+02 0.  0.
        -12    1    1    2    0    0  0.51898376161E+01  0.43195668720E+01 -0.31162954143E+02  0.31886090751E+02  0.00000000000E+00 0.  1.
         11    1    3    3    0    0 -0.14857308879E+02 -0.12230134129E+02  0.60483583757E+01  0.20171723953E+02  0.51100000000E-03 0. -1.
        -11    1    3    3    0    0  0.10118239660E+02 -0.84078881397E+01  0.76248223827E+01  0.15205567185E+02  0.51100000000E-03 0.  1.
        -12    1    3    3    0    0 -0.45076839725E+00  0.16318455397E+02  0.17489773385E+02  0.23924618111E+02  0.00000000000E+00 0.  1.
</event>
<event>
 7    1  0.1284777E-011  0.5930199E+02  0.7816164E-02  0.1266605E+00
        -11   -1    0    0    0    0  0.00000000000E+00  0.00000000000E+00  0.45593999997E+02  0.45594000000E+02  0.51100000000E-03 0. -1.
         11   -1    0    0    0    0 -0.00000000000E+00 -0.00000000000E+00 -0.45593999997E+02  0.45594000000E+02  0.51100000000E-03 0.  1.
    9900012    2    1    2    0    0 -0.25818151274E+02 -0.16411736488E+01  0.18639930328E+02  0.59301993841E+02  0.50000090848E+02 0.  0.
        -12    1    1    2    0    0  0.25818151274E+02  0.16411736488E+01 -0.18639930328E+02  0.31886006159E+02  0.00000000000E+00 0.  1.
         11    1    3    3    0    0  0.53876287602E+00  0.12339401664E+02  0.84660447317E+01  0.14974144801E+02  0.51100000000E-03 0.  1.
        -11    1    3    3    0    0 -0.13214619987E+02  0.28852812064E+01  0.17145323572E+02  0.21838341277E+02  0.51100000000E-03 0. -1.
        -12    1    3    3    0    0 -0.13142294163E+02 -0.16865856519E+02 -0.69714379766E+01  0.22489507764E+02  0.00000000000E+00 0.  1.
</event>
<event>
 7    1  0.1284777E-011  0.5930194E+02  0.7816164E-02  0.1266605E+00
        -11   -1    0    0    0    0  0.00000000000E+00  0.00000000000E+00  0.45593999997E+02  0.45594000000E+02  0.51100000000E-03 0. -1.
         11   -1    0    0    0    0 -0.00000000000E+00 -0.00000000000E+00 -0.45593999997E+02  0.45594000000E+02  0.51100000000E-03 0.  1.
    9900012    2    1    2    0    0 -0.21957714244E+02  0.20977691520E+02  0.97219499210E+01  0.59301936169E+02  0.49999985668E+02 0.  0.
        -12    1    1    2    0    0  0.21957714244E+02 -0.20977691520E+02 -0.97219499210E+01  0.31886063831E+02  0.00000000000E+00 0.  1.
         11    1    3    3    0    0  0.55203687106E+01 -0.34814189006E+01  0.52782758344E+01  0.83937443556E+01  0.51100000000E-03 0. -1.
        -11    1    3    3    0    0 -0.16866413061E+02 -0.33446570252E+01 -0.76051649506E+01  0.18801626375E+02  0.51100000000E-03 0.  1.
         12    1    3    3    0    0 -0.10611669894E+02  0.27803767446E+02  0.12048839037E+02  0.32106565439E+02  0.00000000000E+00 0. -1.
</event>
<event>
 7    1  0.1284777E-011  0.5930202E+02  0.7816164E-02  0.1266604E+00
        -11   -1    0    0    0    0  0.00000000000E+00  0.00000000000E+00  0.45593999997E+02  0.45594000000E+02  0.51100000000E-03 0.  1.
         11   -1    0    0    0    0 -0.00000000000E+00 -0.00000000000E+00 -0.45593999997E+02  0.45594000000E+02  0.51100000000E-03 0. -1.
    9900012    2    1    2    0    0  0.20455853084E+02 -0.19107439547E+02 -0.15270215730E+02  0.59302020952E+02  0.50000140291E+02 0.  0.
        -12    1    1    2    0    0 -0.20455853084E+02  0.19107439547E+02  0.15270215730E+02  0.31885979048E+02  0.00000000000E+00 0.  1.
         11    1    3    3    0    0  0.21877496114E+02 -0.95537994766E+01 -0.63173514042E+01  0.24694308043E+02  0.51100000000E-03 0. -1.
        -11    1    3    3    0    0  0.14878456304E+02 -0.21873791421E+01 -0.70830685106E+01  0.16622964516E+02  0.51100000000E-03 0.  1.
        -12    1    3    3    0    0 -0.16300099335E+02 -0.73662609279E+01 -0.18697958150E+01  0.17984748393E+02  0.00000000000E+00 0.  1.
</event>
<event>
 7    1  0.1284777E-011  0.5930191E+02  0.7816164E-02  0.1266605E+00
        -11   -1    0    0    0    0  0.00000000000E+00  0.00000000000E+00  0.45593999997E+02  0.45594000000E+02  0.51100000000E-03 0. -1.
         11   -1    0    0    0    0 -0.00000000000E+00 -0.00000000000E+00 -0.45593999997E+02  0.45594000000E+02  0.51100000000E-03 0.  1.
    9900012    2    1    2    0    0  0.18784146100E+02  0.24963118876E+02  0.63813148171E+01  0.59301911693E+02  0.49999941030E+02 0.  0.
        -12    1    1    2    0    0 -0.18784146100E+02 -0.24963118876E+02 -0.63813148171E+01  0.31886088307E+02  0.00000000000E+00 0.  1.
         11    1    3    3    0    0  0.42436141332E+01  0.18203889276E+02  0.21335612298E+02  0.28365440206E+02  0.51100000000E-03 0. -1.
        -11    1    3    3    0    0 -0.21258613103E+01  0.81810043979E+00  0.42511628657E+01  0.48229618091E+01  0.51100000000E-03 0.  1.
        -12    1    3    3    0    0  0.16666393277E+02  0.59411291599E+01 -0.19205460347E+02  0.26113509678E+02  0.00000000000E+00 0.  1.
</event>
<event>
 7    1  0.1284777E-011  0.5930198E+02  0.7816164E-02  0.1266605E+00
        -11   -1    0    0    0    0  0.00000000000E+00  0.00000000000E+00  0.45593999997E+02  0.45594000000E+02  0.51100000000E-03 0.  1.
         11   -1    0    0    0    0 -0.00000000000E+00 -0.00000000000E+00 -0.45593999997E+02  0.45594000000E+02  0.51100000000E-03 0. -1.
    9900012    2    1    2    0    0  0.10182487322E+02 -0.11588933507E+02 -0.27905765010E+02  0.59301981925E+02  0.50000069115E+02 0.  0.
        -12    1    1    2    0    0 -0.10182487322E+02  0.11588933507E+02  0.27905765010E+02  0.31886018075E+02  0.00000000000E+00 0.  1.
         11    1    3    3    0    0 -0.21184118669E+01  0.13102175136E+02 -0.13861265195E+02  0.19190865932E+02  0.51100000000E-03 0. -1.
        -11    1    3    3    0    0  0.12385426285E+02 -0.56901841596E+00 -0.93681432090E+01  0.15539777143E+02  0.51100000000E-03 0.  1.
        -12    1    3    3    0    0 -0.84527095577E-01 -0.24122090227E+02 -0.46763566062E+01  0.24571338850E+02  0.00000000000E+00 0.  1.
</event>
<event>
 7    1  0.1284777E-011  0.5930195E+02  0.7816164E-02  0.1266605E+00
        -11   -1    0    0    0    0  0.00000000000E+00  0.00000000000E+00  0.45593999997E+02  0.45594000000E+02  0.51100000000E-03 0.  1.
         11   -1    0    0    0    0 -0.00000000000E+00 -0.00000000000E+00 -0.45593999997E+02  0.45594000000E+02  0.51100000000E-03 0. -1.
    9900012    2    1    2    0    0  0.17150082247E+01 -0.47509509221E+01 -0.31483451192E+02  0.59301945261E+02  0.50000002250E+02 0.  0.
        -12    1    1    2    0    0 -0.17150082247E+01  0.47509509221E+01  0.31483451192E+02  0.31886054739E+02  0.00000000000E+00 0.  1.
         11    1    3    3    0    0  0.35107516618E+01  0.13648260223E+01 -0.21995936266E+01  0.43619192663E+01  0.51100000000E-03 0. -1.
        -11    1    3    3    0    0  0.94987332499E+01  0.95961635624E+01  0.59399688613E+01  0.14751119239E+02  0.51100000000E-03 0.  1.
        -12    1    3    3    0    0 -0.11294476687E+02 -0.15711940507E+02 -0.35223826426E+02  0.40188906756E+02  0.00000000000E+00 0.  1.
</event>
<event>
 7    1  0.1284777E-011  0.5930194E+02  0.7816164E-02  0.1266605E+00
        -11   -1    0    0    0    0  0.00000000000E+00  0.00000000000E+00  0.45593999997E+02  0.45594000000E+02  0.51100000000E-03 0.  1.
         11   -1    0    0    0    0 -0.00000000000E+00 -0.00000000000E+00 -0.45593999997E+02  0.45594000000E+02  0.51100000000E-03 0. -1.
    9900012    2    1    2    0    0 -0.16650505341E+02 -0.12050414931E+01 -0.27166700437E+02  0.59301936183E+02  0.49999985694E+02 0.  0.
        -12    1    1    2    0    0  0.16650505341E+02  0.12050414931E+01  0.27166700437E+02  0.31886063817E+02  0.00000000000E+00 0.  1.
         11    1    3    3    0    0  0.32625265897E+01 -0.12712026346E+02 -0.40540535503E+01  0.13735903466E+02  0.51100000000E-03 0. -1.
        -11    1    3    3    0    0 -0.12161838828E+02 -0.10085991793E+02 -0.13141417590E+02  0.20550776400E+02  0.51100000000E-03 0.  1.
        -12    1    3    3    0    0 -0.77511931022E+01  0.21592976646E+02 -0.99712292964E+01  0.25015256317E+02  0.00000000000E+00 0.  1.
</event>
<event>
 7    1  0.1641350E-011  0.5930194E+02  0.7816164E-02  0.1266605E+00
        -11   -1    0    0    0    0  0.00000000000E+00  0.00000000000E+00  0.45593999997E+02  0.45594000000E+02  0.51100000000E-03 0. -1.
         11   -1    0    0    0    0 -0.00000000000E+00 -0.00000000000E+00 -0.45593999997E+02  0.45594000000E+02  0.51100000000E-03 0.  1.
    9900012    2    1    2    0    0 -0.15427986444E+02  0.25124307318E+02  0.12143606602E+02  0.59301940896E+02  0.49999994288E+02 0.  0.
        -12    1    1    2    0    0  0.15427986444E+02 -0.25124307318E+02 -0.12143606602E+02  0.31886059104E+02  0.00000000000E+00 0.  1.
         11    1    3    3    0    0 -0.84661968742E+01  0.10596734946E+02  0.15306731722E+02  0.20451486921E+02  0.51100000000E-03 0. -1.
        -11    1    3    3    0    0 -0.14284786872E+02 -0.59719252923E+01 -0.65664904954E+01  0.16817783010E+02  0.51100000000E-03 0.  1.
         12    1    3    3    0    0  0.73229973021E+01  0.20499497664E+02  0.34033653754E+01  0.22032670964E+02  0.00000000000E+00 0. -1.
</event>
<event>
 7    1  0.1284777E-011  0.5930194E+02  0.7816164E-02  0.1266605E+00
        -11   -1    0    0    0    0  0.00000000000E+00  0.00000000000E+00  0.45593999997E+02  0.45594000000E+02  0.51100000000E-03 0.  1.
         11   -1    0    0    0    0 -0.00000000000E+00 -0.00000000000E+00 -0.45593999997E+02  0.45594000000E+02  0.51100000000E-03 0. -1.
    9900012    2    1    2    0    0  0.89913920125E+01  0.16395620940E+01 -0.30548118109E+02  0.59301940127E+02  0.49999992887E+02 0.  0.
        -12    1    1    2    0    0 -0.89913920125E+01 -0.16395620940E+01  0.30548118109E+02  0.31886059873E+02  0.00000000000E+00 0.  1.
         11    1    3    3    0    0  0.51639496386E+01 -0.31752040442E+01 -0.25010012785E+02  0.25734199741E+02  0.51100000000E-03 0. -1.
        -11    1    3    3    0    0 -0.62767654445E+00  0.35484754308E+01 -0.18996194762E+02  0.19334970169E+02  0.51100000000E-03 0.  1.
        -12    1    3    3    0    0  0.44551189183E+01  0.12662907073E+01  0.13458089438E+02  0.14232770217E+02  0.00000000000E+00 0.  1.
</event>
<event>
 7    1  0.1284777E-011  0.5930183E+02  0.7816164E-02  0.1266605E+00
        -11   -1    0    0    0    0  0.00000000000E+00  0.00000000000E+00  0.45593999997E+02  0.45594000000E+02  0.51100000000E-03 0.  1.
         11   -1    0    0    0    0 -0.00000000000E+00 -0.00000000000E+00 -0.45593999997E+02  0.45594000000E+02  0.51100000000E-03 0. -1.
    9900012    2    1    2    0    0  0.11399849543E+02 -0.10840688361E+02 -0.27735371220E+02  0.59301828853E+02  0.49999789948E+02 0.  0.
        -12    1    1    2    0    0 -0.11399849543E+02  0.10840688361E+02  0.27735371220E+02  0.31886171147E+02  0.00000000000E+00 0.  1.
         11    1    3    3    0    0  0.17232189582E+01 -0.31816731870E+01 -0.20445568353E+02  0.20763279928E+02  0.51100000000E-03 0. -1.
        -11    1    3    3    0    0  0.14529694166E+02 -0.17217796936E+02 -0.13386319161E+02  0.26206069618E+02  0.51100000000E-03 0.  1.
         12    1    3    3    0    0 -0.48530635812E+01  0.95587817622E+01  0.60965162946E+01  0.12332479306E+02  0.00000000000E+00 0. -1.
</event>
<event>
 7    1  0.1284777E-011  0.5930193E+02  0.7816164E-02  0.1266605E+00
        -11   -1    0    0    0    0  0.00000000000E+00  0.00000000000E+00  0.45593999997E+02  0.45594000000E+02  0.51100000000E-03 0.  1.
         11   -1    0    0    0    0 -0.00000000000E+00 -0.00000000000E+00 -0.45593999997E+02  0.45594000000E+02  0.51100000000E-03 0. -1.
    9900012    2    1    2    0    0  0.28380321551E+02 -0.95862976801E+01  0.10926190480E+02  0.59301931052E+02  0.49999976335E+02 0.  0.
        -12    1    1    2    0    0 -0.28380321551E+02  0.95862976801E+01 -0.10926190480E+02  0.31886068948E+02  0.00000000000E+00 0.  1.
         11    1    3    3    0    0 -0.29730315305E+01 -0.38548475984E+01  0.10555813185E+02  0.11624283150E+02  0.51100000000E-03 0. -1.
        -11    1    3    3    0    0  0.11694980746E+02  0.10296208493E+02  0.12104512759E+02  0.19730780861E+02  0.51100000000E-03 0.  1.
         12    1    3    3    0    0  0.19658372335E+02 -0.16027658575E+02 -0.11734135464E+02  0.27946867040E+02  0.00000000000E+00 0. -1.
</event>
<event>
 7    1  0.1284777E-011  0.5930189E+02  0.7816164E-02  0.1266605E+00
        -11   -1    0    0    0    0  0.00000000000E+00  0.00000000000E+00  0.45593999997E+02  0.45594000000E+02  0.51100000000E-03 0. -1.
         11   -1    0    0    0    0 -0.00000000000E+00 -0.00000000000E+00 -0.45593999997E+02  0.45594000000E+02  0.51100000000E-03 0.  1.
    9900012    2    1    2    0    0  0.16628285622E+02 -0.48526105263E+01  0.26770806715E+02  0.59301893248E+02  0.49999907390E+02 0.  0.
        -12    1    1    2    0    0 -0.16628285622E+02  0.48526105263E+01 -0.26770806715E+02  0.31886106752E+02  0.00000000000E+00 0.  1.
         11    1    3    3    0    0  0.22864467700E+02  0.25806655178E+00  0.12307885703E+02  0.25967952023E+02  0.51100000000E-03 0. -1.
        -11    1    3    3    0    0  0.58182919067E+01  0.69562899339E+01  0.13483339579E+02  0.16249398044E+02  0.51100000000E-03 0.  1.
        -12    1    3    3    0    0 -0.12054473984E+02 -0.12066967012E+02  0.97958143258E+00  0.17084543181E+02  0.00000000000E+00 0.  1.
</event>
<event>
 7    1  0.1284777E-011  0.5930194E+02  0.7816164E-02  0.1266605E+00
        -11   -1    0    0    0    0  0.00000000000E+00  0.00000000000E+00  0.45593999997E+02  0.45594000000E+02  0.51100000000E-03 0.  1.
         11   -1    0    0    0    0 -0.00000000000E+00 -0.00000000000E+00 -0.45593999997E+02  0.45594000000E+02  0.51100000000E-03 0. -1.
    9900012    2    1    2    0    0  0.14555272305E+02  0.12482412517E+02 -0.25476542003E+02  0.59301940875E+02  0.49999994250E+02 0.  0.
        -12    1    1    2    0    0 -0.14555272305E+02 -0.12482412517E+02  0.25476542003E+02  0.31886059125E+02  0.00000000000E+00 0.  1.
         11    1    3    3    0    0 -0.31580938622E+01 -0.10859256556E+02 -0.18906179981E+02  0.22030448283E+02  0.51100000000E-03 0. -1.
        -11    1    3    3    0    0  0.49993335724E+01  0.89107467434E+01  0.81355571136E+01  0.13060705705E+02  0.51100000000E-03 0.  1.
        -12    1    3    3    0    0  0.12714032594E+02  0.14430922330E+02 -0.14705919135E+02  0.24210786888E+02  0.00000000000E+00 0.  1.
</event>
<event>
 7    1  0.1284777E-011  0.5930186E+02  0.7816164E-02  0.1266605E+00
        -11   -1    0    0    0    0  0.00000000000E+00  0.00000000000E+00  0.45593999997E+02  0.45594000000E+02  0.51100000000E-03 0.  1.
         11   -1    0    0    0    0 -0.00000000000E+00 -0.00000000000E+00 -0.45593999997E+02  0.45594000000E+02  0.51100000000E-03 0. -1.
    9900012    2    1    2    0    0 -0.20206676123E+02 -0.24499091246E+02 -0.28654721381E+01  0.59301856263E+02  0.49999839938E+02 0.  0.
        -12    1    1    2    0    0  0.20206676123E+02  0.24499091246E+02  0.28654721381E+01  0.31886143737E+02  0.00000000000E+00 0.  1.
         11    1    3    3    0    0 -0.21873582741E+02 -0.26338238526E+02 -0.25485843857E+00  0.34237718728E+02  0.51100000000E-03 0. -1.
        -11    1    3    3    0    0 -0.58280583082E+01 -0.94233887412E+01 -0.31686111313E+01  0.11524175275E+02  0.51100000000E-03 0.  1.
        -12    1    3    3    0    0  0.74949649261E+01  0.11262536021E+02  0.55799743180E+00  0.13539962260E+02  0.00000000000E+00 0.  1.
</event>
<event>
 7    1  0.1284777E-011  0.5930195E+02  0.7816164E-02  0.1266605E+00
        -11   -1    0    0    0    0  0.00000000000E+00  0.00000000000E+00  0.45593999997E+02  0.45594000000E+02  0.51100000000E-03 0.  1.
         11   -1    0    0    0    0 -0.00000000000E+00 -0.00000000000E+00 -0.45593999997E+02  0.45594000000E+02  0.51100000000E-03 0. -1.
    9900012    2    1    2    0    0  0.12222561673E+02 -0.27016790774E+02  0.11722732934E+02  0.59301945603E+02  0.50000002872E+02 0.  0.
        -12    1    1    2    0    0 -0.12222561673E+02  0.27016790774E+02 -0.11722732934E+02  0.31886054397E+02  0.00000000000E+00 0.  1.
         11    1    3    3    0    0  0.28456782835E+01 -0.59209847873E+01 -0.11645287865E+02  0.13370440362E+02  0.51100000000E-03 0. -1.
        -11    1    3    3    0    0 -0.45827136673E+01  0.46321127916E+01 -0.23903913210E+01  0.69405838659E+01  0.51100000000E-03 0.  1.
        -12    1    3    3    0    0  0.13959597056E+02 -0.25727918779E+02  0.25758412121E+02  0.38990921375E+02  0.00000000000E+00 0.  1.
</event>
<event>
 7    1  0.1284777E-011  0.5930195E+02  0.7816164E-02  0.1266605E+00
        -11   -1    0    0    0    0  0.00000000000E+00  0.00000000000E+00  0.45593999997E+02  0.45594000000E+02  0.51100000000E-03 0.  1.
         11   -1    0    0    0    0 -0.00000000000E+00 -0.00000000000E+00 -0.45593999997E+02  0.45594000000E+02  0.51100000000E-03 0. -1.
    9900012    2    1    2    0    0 -0.17584837775E+02 -0.76046289342E+01 -0.25488497984E+02  0.59301946147E+02  0.50000003865E+02 0.  0.
        -12    1    1    2    0    0  0.17584837775E+02  0.76046289342E+01  0.25488497984E+02  0.31886053853E+02  0.00000000000E+00 0.  1.
         11    1    3    3    0    0 -0.53018847798E+01 -0.89737831804E+00 -0.13682951781E+02  0.14701647519E+02  0.51100000000E-03 0. -1.
        -11    1    3    3    0    0  0.23839893507E+01 -0.18445807448E+02 -0.16905698427E+02  0.25134316326E+02  0.51100000000E-03 0.  1.
         12    1    3    3    0    0 -0.14666942346E+02  0.11738556832E+02  0.51001522233E+01  0.19465982302E+02  0.00000000000E+00 0. -1.
</event>
<event>
 7    1  0.1284777E-011  0.5930194E+02  0.7816164E-02  0.1266605E+00
        -11   -1    0    0    0    0  0.00000000000E+00  0.00000000000E+00  0.45593999997E+02  0.45594000000E+02  0.51100000000E-03 0. -1.
         11   -1    0    0    0    0 -0.00000000000E+00 -0.00000000000E+00 -0.45593999997E+02  0.45594000000E+02  0.51100000000E-03 0.  1.
    9900012    2    1    2    0    0  0.11028028510E+02  0.22095322037E+02  0.20171766866E+02  0.59301939609E+02  0.49999991941E+02 0.  0.
        -12    1    1    2    0    0 -0.11028028510E+02 -0.22095322037E+02 -0.20171766866E+02  0.31886060391E+02  0.00000000000E+00 0.  1.
         11    1    3    3    0    0  0.18836472285E+02  0.45083978588E+01  0.11290750920E+02  0.22419174739E+02  0.51100000000E-03 0. -1.
        -11    1    3    3    0    0  0.28921371885E+01  0.66887658366E+01  0.17773479974E+02  0.19209389282E+02  0.51100000000E-03 0.  1.
        -12    1    3    3    0    0 -0.10700580963E+02  0.10898158342E+02 -0.88924640273E+01  0.17673375588E+02  0.00000000000E+00 0.  1.
</event>
<event>
 7    1  0.1284777E-011  0.5930191E+02  0.7816164E-02  0.1266605E+00
        -11   -1    0    0    0    0  0.00000000000E+00  0.00000000000E+00  0.45593999997E+02  0.45594000000E+02  0.51100000000E-03 0. -1.
         11   -1    0    0    0    0 -0.00000000000E+00 -0.00000000000E+00 -0.45593999997E+02  0.45594000000E+02  0.51100000000E-03 0.  1.
    9900012    2    1    2    0    0 -0.23558591642E+02 -0.13393307674E+02  0.16802817323E+02  0.59301912115E+02  0.49999941799E+02 0.  0.
        -12    1    1    2    0    0  0.23558591642E+02  0.13393307674E+02 -0.16802817323E+02  0.31886087885E+02  0.00000000000E+00 0.  1.
         11    1    3    3    0    0  0.56528604240E+01  0.65279335912E+01  0.18908388360E+02  0.20786916524E+02  0.51100000000E-03 0. -1.
        -11    1    3    3    0    0 -0.13046056024E+02 -0.36032111728E+00 -0.14384828290E+01  0.13130066344E+02  0.51100000000E-03 0.  1.
        -12    1    3    3    0    0 -0.16165396042E+02 -0.19560920148E+02 -0.66708820728E+00  0.25384929248E+02  0.00000000000E+00 0.  1.
</event>
<event>
 7    1  0.1284777E-011  0.5930194E+02  0.7816164E-02  0.1266605E+00
        -11   -1    0    0    0    0  0.00000000000E+00  0.00000000000E+00  0.45593999997E+02  0.45594000000E+02  0.51100000000E-03 0.  1.
         11   -1    0    0    0    0 -0.00000000000E+00 -0.00000000000E+00 -0.45593999997E+02  0.45594000000E+02  0.51100000000E-03 0. -1.
    9900012    2    1    2    0    0 -0.23761600367E+02  0.19056329483E+02 -0.94320521606E+01  0.59301937945E+02  0.49999988907E+02 0.  0.
        -12    1    1    2    0    0  0.23761600367E+02 -0.19056329483E+02  0.94320521606E+01  0.31886062055E+02  0.00000000000E+00 0.  1.
         11    1    3    3    0    0 -0.21013722914E+02  0.10627141804E+01  0.13224523127E+02  0.24851437068E+02  0.51100000000E-03 0. -1.
        -11    1    3    3    0    0 -0.16367897010E+01  0.92758073738E+00  0.30447590253E+01  0.35791122269E+01  0.51100000000E-03 0.  1.
         12    1    3    3    0    0 -0.11110877523E+01  0.17066034565E+02 -0.25701334313E+02  0.30871388651E+02  0.00000000000E+00 0. -1.
</event>
<event>
 7    1  0.1284777E-011  0.5930194E+02  0.7816164E-02  0.1266605E+00
        -11   -1    0    0    0    0  0.00000000000E+00  0.00000000000E+00  0.45593999997E+02  0.45594000000E+02  0.51100000000E-03 0.  1.
         11   -1    0    0    0    0 -0.00000000000E+00 -0.00000000000E+00 -0.45593999997E+02  0.45594000000E+02  0.51100000000E-03 0. -1.
    9900012    2    1    2    0    0  0.83493108756E+01  0.30743164382E+02  0.13666600663E+01  0.59301938656E+02  0.49999990202E+02 0.  0.
        -12    1    1    2    0    0 -0.83493108756E+01 -0.30743164382E+02 -0.13666600663E+01  0.31886061344E+02  0.00000000000E+00 0.  1.
         11    1    3    3    0    0  0.13503923062E+02 -0.44939152382E+00 -0.11737160461E+02  0.17897453080E+02  0.51100000000E-03 0. -1.
        -11    1    3    3    0    0 -0.15621074936E+01 -0.37906969051E+01  0.10988157411E+01  0.42446388706E+01  0.51100000000E-03 0.  1.
         12    1    3    3    0    0 -0.35925046928E+01  0.34983252811E+02  0.12005004786E+02  0.37159846705E+02  0.00000000000E+00 0. -1.
</event>
<event>
 7    1  0.1284777E-011  0.5930194E+02  0.7816164E-02  0.1266605E+00
        -11   -1    0    0    0    0  0.00000000000E+00  0.00000000000E+00  0.45593999997E+02  0.45594000000E+02  0.51100000000E-03 0.  1.
         11   -1    0    0    0    0 -0.00000000000E+00 -0.00000000000E+00 -0.45593999997E+02  0.45594000000E+02  0.51100000000E-03 0. -1.
    9900012    2    1    2    0    0  0.31018502484E+01 -0.14343340107E+02 -0.28308437874E+02  0.59301944502E+02  0.50000000865E+02 0.  0.
        -12    1    1    2    0    0 -0.31018502484E+01  0.14343340107E+02  0.28308437874E+02  0.31886055498E+02  0.00000000000E+00 0.  1.
         11    1    3    3    0    0 -0.73434305761E+01  0.97262062299E+01 -0.12622705440E+02  0.17545875673E+02  0.51100000000E-03 0. -1.
        -11    1    3    3    0    0 -0.60627510653E+01 -0.76259896028E+01  0.46815979210E+01  0.10808793978E+02  0.51100000000E-03 0.  1.
        -12    1    3    3    0    0  0.16508031890E+02 -0.16443556734E+02 -0.20367330355E+02  0.30947274851E+02  0.00000000000E+00 0.  1.
</event>
<event>
 7    1  0.2731434E-011  0.5930191E+02  0.7816164E-02  0.1266605E+00
        -11   -1    0    0    0    0  0.00000000000E+00  0.00000000000E+00  0.45593999997E+02  0.45594000000E+02  0.51100000000E-03 0. -1.
         11   -1    0    0    0    0 -0.00000000000E+00 -0.00000000000E+00 -0.45593999997E+02  0.45594000000E+02  0.51100000000E-03 0.  1.
    9900012    2    1    2    0    0 -0.20664780736E+02 -0.80836370764E+01  0.22898564570E+02  0.59301911958E+02  0.49999941513E+02 0.  0.
        -12    1    1    2    0    0  0.20664780736E+02  0.80836370764E+01 -0.22898564570E+02  0.31886088042E+02  0.00000000000E+00 0.  1.
         11    1    3    3    0    0  0.56974176931E+01  0.71509853083E+01  0.28326114737E+01  0.95718779386E+01  0.51100000000E-03 0. -1.
        -11    1    3    3    0    0 -0.72849295018E+00 -0.57866777148E+01 -0.84318949518E+01  0.10252472565E+02  0.51100000000E-03 0.  1.
         12    1    3    3    0    0 -0.25633705479E+02 -0.94479446699E+01  0.28497848048E+02  0.39477561455E+02  0.00000000000E+00 0. -1.
</event>
<event>
 7    1  0.1284777E-011  0.5930195E+02  0.7816164E-02  0.1266605E+00
        -11   -1    0    0    0    0  0.00000000000E+00  0.00000000000E+00  0.45593999997E+02  0.45594000000E+02  0.51100000000E-03 0.  1.
         11   -1    0    0    0    0 -0.00000000000E+00 -0.00000000000E+00 -0.45593999997E+02  0.45594000000E+02  0.51100000000E-03 0. -1.
    9900012    2    1    2    0    0 -0.17735793390E+02 -0.83060506845E+01 -0.25162899894E+02  0.59301946995E+02  0.50000005412E+02 0.  0.
        -12    1    1    2    0    0  0.17735793390E+02  0.83060506845E+01  0.25162899894E+02  0.31886053005E+02  0.00000000000E+00 0.  1.
         11    1    3    3    0    0 -0.13315721939E+02 -0.20705710647E+01 -0.23058353304E+02  0.26707365513E+02  0.51100000000E-03 0. -1.
        -11    1    3    3    0    0 -0.52580676018E+01 -0.18516987487E+02  0.25843238458E+01  0.19421761776E+02  0.51100000000E-03 0.  1.
         12    1    3    3    0    0  0.83799615152E+00  0.12281507867E+02 -0.46888704366E+01  0.13172819706E+02  0.00000000000E+00 0. -1.
</event>
<event>
 7    1  0.1284777E-011  0.5930192E+02  0.7816164E-02  0.1266605E+00
        -11   -1    0    0    0    0  0.00000000000E+00  0.00000000000E+00  0.45593999997E+02  0.45594000000E+02  0.51100000000E-03 0.  1.
         11   -1    0    0    0    0 -0.00000000000E+00 -0.00000000000E+00 -0.45593999997E+02  0.45594000000E+02  0.51100000000E-03 0. -1.
    9900012    2    1    2    0    0 -0.17155458195E+02 -0.10552894436E+01 -0.26856999900E+02  0.59301924272E+02  0.49999963971E+02 0.  0.
        -12    1    1    2    0    0  0.17155458195E+02  0.10552894436E+01  0.26856999900E+02  0.31886075728E+02  0.00000000000E+00 0.  1.
         11    1    3    3    0    0  0.13222897108E+01 -0.11316888656E+02 -0.46911128060E+01  0.12321808250E+02  0.51100000000E-03 0. -1.
        -11    1    3    3    0    0  0.39839960160E+01 -0.96094791067E+01 -0.13858725964E+01  0.10494520288E+02  0.51100000000E-03 0.  1.
        -12    1    3    3    0    0 -0.22461743922E+02  0.19871078319E+02 -0.20780014498E+02  0.36485595734E+02  0.00000000000E+00 0.  1.
</event>
<event>
 7    1  0.1284777E-011  0.5930191E+02  0.7816164E-02  0.1266605E+00
        -11   -1    0    0    0    0  0.00000000000E+00  0.00000000000E+00  0.45593999997E+02  0.45594000000E+02  0.51100000000E-03 0.  1.
         11   -1    0    0    0    0 -0.00000000000E+00 -0.00000000000E+00 -0.45593999997E+02  0.45594000000E+02  0.51100000000E-03 0. -1.
    9900012    2    1    2    0    0  0.26384760390E+02  0.13612109278E+00 -0.17903871473E+02  0.59301910188E+02  0.49999938285E+02 0.  0.
        -12    1    1    2    0    0 -0.26384760390E+02 -0.13612109278E+00  0.17903871473E+02  0.31886089812E+02  0.00000000000E+00 0.  1.
         11    1    3    3    0    0 -0.87221781964E+01 -0.10382387248E+02 -0.23397696188E+01  0.13760264518E+02  0.51100000000E-03 0. -1.
        -11    1    3    3    0    0 -0.31131525647E+01 -0.15131422770E+00 -0.10445015744E+01  0.32871870477E+01  0.51100000000E-03 0.  1.
        -12    1    3    3    0    0  0.38220091151E+02  0.10669822569E+02 -0.14519600280E+02  0.42254458623E+02  0.00000000000E+00 0.  1.
</event>
<event>
 7    1  0.1284777E-011  0.5930182E+02  0.7816164E-02  0.1266605E+00
        -11   -1    0    0    0    0  0.00000000000E+00  0.00000000000E+00  0.45593999997E+02  0.45594000000E+02  0.51100000000E-03 0. -1.
         11   -1    0    0    0    0 -0.00000000000E+00 -0.00000000000E+00 -0.45593999997E+02  0.45594000000E+02  0.51100000000E-03 0.  1.
    9900012    2    1    2    0    0 -0.23359181395E+01  0.31263326160E+02 -0.58203232276E+01  0.59301823707E+02  0.49999780563E+02 0.  0.
        -12    1    1    2    0    0  0.23359181395E+01 -0.31263326160E+02  0.58203232276E+01  0.31886176293E+02  0.00000000000E+00 0.  1.
         11    1    3    3    0    0  0.14338023336E+02  0.40357164452E+01  0.70551259191E+01  0.16481526701E+02  0.51100000000E-03 0. -1.
        -11    1    3    3    0    0  0.42651240815E+01 -0.14984327001E+01  0.10524128558E+01  0.46415683845E+01  0.51100000000E-03 0.  1.
        -12    1    3    3    0    0 -0.20939065557E+02  0.28726042414E+02 -0.13927862002E+02  0.38178728621E+02  0.00000000000E+00 0.  1.
</event>
<event>
 7    1  0.1284777E-011  0.5930194E+02  0.7816164E-02  0.1266605E+00
        -11   -1    0    0    0    0  0.00000000000E+00  0.00000000000E+00  0.45593999997E+02  0.45594000000E+02  0.51100000000E-03 0.  1.
         11   -1    0    0    0    0 -0.00000000000E+00 -0.00000000000E+00 -0.45593999997E+02  0.45594000000E+02  0.51100000000E-03 0. -1.
    9900012    2    1    2    0    0 -0.69405962184E+01 -0.20112523106E+02 -0.23749431663E+02  0.59301937749E+02  0.49999988549E+02 0.  0.
        -12    1    1    2    0    0  0.69405962184E+01  0.20112523106E+02  0.23749431663E+02  0.31886062251E+02  0.00000000000E+00 0.  1.
         11    1    3    3    0    0 -0.19126501596E+02 -0.23723711122E+02 -0.10637372464E+02  0.32276790824E+02  0.51100000000E-03 0. -1.
        -11    1    3    3    0    0 -0.21403298359E+01  0.34890318971E+01  0.32867936121E+01  0.52495112053E+01  0.51100000000E-03 0.  1.
        -12    1    3    3    0    0  0.14326235213E+02  0.12215611860E+00 -0.16398852811E+02  0.21775635720E+02  0.00000000000E+00 0.  1.
</event>
<event>
 7    1  0.1284777E-011  0.5930195E+02  0.7816164E-02  0.1266605E+00
        -11   -1    0    0    0    0  0.00000000000E+00  0.00000000000E+00  0.45593999997E+02  0.45594000000E+02  0.51100000000E-03 0. -1.
         11   -1    0    0    0    0 -0.00000000000E+00 -0.00000000000E+00 -0.45593999997E+02  0.45594000000E+02  0.51100000000E-03 0.  1.
    9900012    2    1    2    0    0 -0.86596605044E+01  0.20421494284E+02  0.22906182137E+02  0.59301947737E+02  0.50000006765E+02 0.  0.
        -12    1    1    2    0    0  0.86596605044E+01 -0.20421494284E+02 -0.22906182137E+02  0.31886052263E+02  0.00000000000E+00 0.  1.
         11    1    3    3    0    0 -0.56121172711E+01 -0.21517824367E+01  0.13154227795E+01  0.61527526580E+01  0.51100000000E-03 0. -1.
        -11    1    3    3    0    0 -0.14065677808E+02 -0.16154556909E+01 -0.55070987620E+01  0.15191482032E+02  0.51100000000E-03 0.  1.
         12    1    3    3    0    0  0.11018134575E+02  0.24188732411E+02  0.27097858119E+02  0.37957713048E+02  0.00000000000E+00 0. -1.
</event>
<event>
 7    1  0.1284777E-011  0.5930186E+02  0.7816164E-02  0.1266605E+00
        -11   -1    0    0    0    0  0.00000000000E+00  0.00000000000E+00  0.45593999997E+02  0.45594000000E+02  0.51100000000E-03 0. -1.
         11   -1    0    0    0    0 -0.00000000000E+00 -0.00000000000E+00 -0.45593999997E+02  0.45594000000E+02  0.51100000000E-03 0.  1.
    9900012    2    1    2    0    0 -0.12551461064E+01  0.31362989623E+02  0.56137023695E+01  0.59301856236E+02  0.49999839888E+02 0.  0.
        -12    1    1    2    0    0  0.12551461064E+01 -0.31362989623E+02 -0.56137023695E+01  0.31886143764E+02  0.00000000000E+00 0.  1.
         11    1    3    3    0    0  0.12323819636E+02  0.64936789873E+00  0.99862562372E+01  0.15875248754E+02  0.51100000000E-03 0. -1.
        -11    1    3    3    0    0  0.31919298000E+01  0.35524896725E+01 -0.99356390350E+01  0.11023861484E+02  0.51100000000E-03 0.  1.
         12    1    3    3    0    0 -0.16770895542E+02  0.27161132052E+02  0.55630851673E+01  0.32402745998E+02  0.00000000000E+00 0. -1.
</event>
<event>
 7    1  0.1284777E-011  0.5930195E+02  0.7816164E-02  0.1266605E+00
        -11   -1    0    0    0    0  0.00000000000E+00  0.00000000000E+00  0.45593999997E+02  0.45594000000E+02  0.51100000000E-03 0.  1.
         11   -1    0    0    0    0 -0.00000000000E+00 -0.00000000000E+00 -0.45593999997E+02  0.45594000000E+02  0.51100000000E-03 0. -1.
    9900012    2    1    2    0    0  0.21481245854E+02 -0.22443464609E+02 -0.71810054198E+01  0.59301954997E+02  0.50000020006E+02 0.  0.
        -12    1    1    2    0    0 -0.21481245854E+02  0.22443464609E+02  0.71810054198E+01  0.31886045003E+02  0.00000000000E+00 0.  1.
         11    1    3    3    0    0 -0.80825980263E+00 -0.14968251476E+02  0.57476544329E+01  0.16054200942E+02  0.51100000000E-03 0. -1.
        -11    1    3    3    0    0 -0.33207589587E+01  0.43768383336E+01  0.68543095324E+01  0.87844017034E+01  0.51100000000E-03 0.  1.
         12    1    3    3    0    0  0.25610264615E+02 -0.11852051466E+02 -0.19782969385E+02  0.34463352352E+02  0.00000000000E+00 0. -1.
</event>
<event>
 7    1  0.1284777E-011  0.5930193E+02  0.7816164E-02  0.1266605E+00
        -11   -1    0    0    0    0  0.00000000000E+00  0.00000000000E+00  0.45593999997E+02  0.45594000000E+02  0.51100000000E-03 0. -1.
         11   -1    0    0    0    0 -0.00000000000E+00 -0.00000000000E+00 -0.45593999997E+02  0.45594000000E+02  0.51100000000E-03 0.  1.
    9900012    2    1    2    0    0  0.26492788754E+02 -0.14910444312E+02  0.96193522824E+01  0.59301934958E+02  0.49999983459E+02 0.  0.
        -12    1    1    2    0    0 -0.26492788754E+02  0.14910444312E+02 -0.96193522824E+01  0.31886065042E+02  0.00000000000E+00 0.  1.
         11    1    3    3    0    0  0.71556001191E+01 -0.10953434477E+02  0.24439383841E+02  0.27721180038E+02  0.51100000000E-03 0. -1.
        -11    1    3    3    0    0  0.16593102906E+01  0.69257019676E+01 -0.34865184985E+01  0.79293423363E+01  0.51100000000E-03 0.  1.
        -12    1    3    3    0    0  0.17677878344E+02 -0.10882711802E+02 -0.11333513060E+02  0.23651412584E+02  0.00000000000E+00 0.  1.
</event>
<event>
 7    1  0.1284777E-011  0.5930195E+02  0.7816164E-02  0.1266605E+00
        -11   -1    0    0    0    0  0.00000000000E+00  0.00000000000E+00  0.45593999997E+02  0.45594000000E+02  0.51100000000E-03 0. -1.
         11   -1    0    0    0    0 -0.00000000000E+00 -0.00000000000E+00 -0.45593999997E+02  0.45594000000E+02  0.51100000000E-03 0.  1.
    9900012    2    1    2    0    0  0.17015851060E+02 -0.20999049578E+02  0.16918059309E+02  0.59301952875E+02  0.50000016135E+02 0.  0.
        -12    1    1    2    0    0 -0.17015851060E+02  0.20999049578E+02 -0.16918059309E+02  0.31886047125E+02  0.00000000000E+00 0.  1.
         11    1    3    3    0    0  0.26491240525E+02 -0.14921826423E+02  0.71635184432E+01  0.31237200981E+02  0.51100000000E-03 0. -1.
        -11    1    3    3    0    0  0.71933501786E+01 -0.55617536842E+01  0.77881924735E+00  0.91260040827E+01  0.51100000000E-03 0.  1.
        -12    1    3    3    0    0 -0.16668739644E+02 -0.51546947136E+00  0.89757216183E+01  0.18938747811E+02  0.00000000000E+00 0.  1.
</event>
<event>
 7    1  0.1284777E-011  0.5930195E+02  0.7816164E-02  0.1266605E+00
        -11   -1    0    0    0    0  0.00000000000E+00  0.00000000000E+00  0.45593999997E+02  0.45594000000E+02  0.51100000000E-03 0.  1.
         11   -1    0    0    0    0 -0.00000000000E+00 -0.00000000000E+00 -0.45593999997E+02  0.45594000000E+02  0.51100000000E-03 0. -1.
    9900012    2    1    2    0    0  0.14155389547E+02  0.21533886537E+02 -0.18778631563E+02  0.59301947783E+02  0.50000006849E+02 0.  0.
        -12    1    1    2    0    0 -0.14155389547E+02 -0.21533886537E+02  0.18778631563E+02  0.31886052217E+02  0.00000000000E+00 0.  1.
         11    1    3    3    0    0  0.17377160082E+01  0.13171328167E+02 -0.18711768159E+02  0.22948503448E+02  0.51100000000E-03 0. -1.
        -11    1    3    3    0    0 -0.96319701457E+01  0.10431579965E+02 -0.41065446774E+00  0.14204272132E+02  0.51100000000E-03 0.  1.
         12    1    3    3    0    0  0.22049643685E+02 -0.20690215953E+01  0.34379106409E+00  0.22149172203E+02  0.00000000000E+00 0. -1.
</event>
<event>
 7    1  0.1284777E-011  0.5930194E+02  0.7816164E-02  0.1266605E+00
        -11   -1    0    0    0    0  0.00000000000E+00  0.00000000000E+00  0.45593999997E+02  0.45594000000E+02  0.51100000000E-03 0.  1.
         11   -1    0    0    0    0 -0.00000000000E+00 -0.00000000000E+00 -0.45593999997E+02  0.45594000000E+02  0.51100000000E-03 0. -1.
    9900012    2    1    2    0    0  0.31490308261E+02  0.35225304647E+01  0.35599060984E+01  0.59301942441E+02  0.49999997106E+02 0.  0.
        -12    1    1    2    0    0 -0.31490308261E+02 -0.35225304647E+01 -0.35599060984E+01  0.31886057559E+02  0.00000000000E+00 0.  1.
         11    1    3    3    0    0 -0.39060121858E+00 -0.91420581580E+01 -0.81886244909E+01  0.12279387932E+02  0.51100000000E-03 0. -1.
        -11    1    3    3    0    0  0.30299231404E+01 -0.87951675267E+01  0.37605051350E+00  0.93100386846E+01  0.51100000000E-03 0.  1.
        -12    1    3    3    0    0  0.28850986339E+02  0.21459756149E+02  0.11372480076E+02  0.37712515824E+02  0.00000000000E+00 0.  1.
</event>
<event>
 7    1  0.1284777E-011  0.5930193E+02  0.7816164E-02  0.1266605E+00
        -11   -1    0    0    0    0  0.00000000000E+00  0.00000000000E+00  0.45593999997E+02  0.45594000000E+02  0.51100000000E-03 0. -1.
         11   -1    0    0    0    0 -0.00000000000E+00 -0.00000000000E+00 -0.45593999997E+02  0.45594000000E+02  0.51100000000E-03 0.  1.
    9900012    2    1    2    0    0  0.20857124798E+02 -0.19396309137E+02 -0.14334755679E+02  0.59301926498E+02  0.49999968031E+02 0.  0.
        -12    1    1    2    0    0 -0.20857124798E+02  0.19396309137E+02  0.14334755679E+02  0.31886073502E+02  0.00000000000E+00 0.  1.
         11    1    3    3    0    0  0.65621729512E+01  0.38132818071E+01  0.96365572958E+00  0.76506120414E+01  0.51100000000E-03 0. -1.
        -11    1    3    3    0    0 -0.32771806577E+00  0.32942431450E+01 -0.20648418606E+02  0.20912116780E+02  0.51100000000E-03 0.  1.
         12    1    3    3    0    0  0.14622669913E+02 -0.26503834089E+02  0.53500071978E+01  0.30739197677E+02  0.00000000000E+00 0. -1.
</event>
<event>
 7    1  0.1284777E-011  0.5930195E+02  0.7816164E-02  0.1266605E+00
        -11   -1    0    0    0    0  0.00000000000E+00  0.00000000000E+00  0.45593999997E+02  0.45594000000E+02  0.51100000000E-03 0.  1.
         11   -1    0    0    0    0 -0.00000000000E+00 -0.00000000000E+00 -0.45593999997E+02  0.45594000000E+02  0.51100000000E-03 0. -1.
    9900012    2    1    2    0    0  0.14908188321E+02  0.26598389530E+02 -0.93269436425E+01  0.59301948468E+02  0.50000008097E+02 0.  0.
        -12    1    1    2    0    0 -0.14908188321E+02 -0.26598389530E+02  0.93269436425E+01  0.31886051532E+02  0.00000000000E+00 0.  1.
         11    1    3    3    0    0  0.97032802655E+01  0.10264614949E+02 -0.18304164075E+02  0.23120518824E+02  0.51100000000E-03 0. -1.
        -11    1    3    3    0    0  0.82348179503E+01  0.24699040149E+02  0.53860265836E+01  0.26586915834E+02  0.51100000000E-03 0.  1.
         12    1    3    3    0    0 -0.30299098944E+01 -0.83652655677E+01  0.35911938485E+01  0.95945138097E+01  0.00000000000E+00 0. -1.
</event>
<event>
 7    1  0.1284777E-011  0.5930196E+02  0.7816164E-02  0.1266605E+00
        -11   -1    0    0    0    0  0.00000000000E+00  0.00000000000E+00  0.45593999997E+02  0.45594000000E+02  0.51100000000E-03 0.  1.
         11   -1    0    0    0    0 -0.00000000000E+00 -0.00000000000E+00 -0.45593999997E+02  0.45594000000E+02  0.51100000000E-03 0. -1.
    9900012    2    1    2    0    0  0.20915446904E+02 -0.23300254638E+00  0.24066763908E+02  0.59301963332E+02  0.50000035207E+02 0.  0.
        -12    1    1    2    0    0 -0.20915446904E+02  0.23300254638E+00 -0.24066763908E+02  0.31886036668E+02  0.00000000000E+00 0.  1.
         11    1    3    3    0    0  0.11613167419E+02  0.33519482900E+01 -0.36034567090E+01  0.12612934446E+02  0.51100000000E-03 0. -1.
        -11    1    3    3    0    0  0.15080715016E+02 -0.12565637417E+02  0.30665966770E+01  0.19867743317E+02  0.51100000000E-03 0.  1.
        -12    1    3    3    0    0 -0.57784355301E+01  0.89806865801E+01  0.24603623940E+02  0.26821285569E+02  0.00000000000E+00 0.  1.
</event>
<event>
 7    1  0.1284777E-011  0.5930190E+02  0.7816164E-02  0.1266605E+00
        -11   -1    0    0    0    0  0.00000000000E+00  0.00000000000E+00  0.45593999997E+02  0.45594000000E+02  0.51100000000E-03 0. -1.
         11   -1    0    0    0    0 -0.00000000000E+00 -0.00000000000E+00 -0.45593999997E+02  0.45594000000E+02  0.51100000000E-03 0.  1.
    9900012    2    1    2    0    0 -0.68721029055E+01  0.21451919847E+02  0.22567953575E+02  0.59301902841E+02  0.49999924886E+02 0.  0.
        -12    1    1    2    0    0  0.68721029055E+01 -0.21451919847E+02 -0.22567953575E+02  0.31886097159E+02  0.00000000000E+00 0.  1.
         11    1    3    3    0    0  0.47222734323E+01  0.94250595511E+01  0.11072326679E+01  0.10599885771E+02  0.51100000000E-03 0. -1.
        -11    1    3    3    0    0 -0.12836893660E+02  0.23936258244E+02  0.38887565849E+01  0.27438161848E+02  0.51100000000E-03 0.  1.
         12    1    3    3    0    0  0.12425173218E+01 -0.11909397948E+02  0.17571964322E+02  0.21263855223E+02  0.00000000000E+00 0. -1.
</event>
<event>
 7    1  0.1284777E-011  0.5930193E+02  0.7816164E-02  0.1266605E+00
        -11   -1    0    0    0    0  0.00000000000E+00  0.00000000000E+00  0.45593999997E+02  0.45594000000E+02  0.51100000000E-03 0.  1.
         11   -1    0    0    0    0 -0.00000000000E+00 -0.00000000000E+00 -0.45593999997E+02  0.45594000000E+02  0.51100000000E-03 0. -1.
    9900012    2    1    2    0    0 -0.20044642187E+02 -0.24505147171E+02  0.37988702711E+01  0.59301931983E+02  0.49999978033E+02 0.  0.
        -12    1    1    2    0    0  0.20044642187E+02  0.24505147171E+02 -0.37988702711E+01  0.31886068017E+02  0.00000000000E+00 0.  1.
         11    1    3    3    0    0 -0.20420938814E+02 -0.90696352353E+01 -0.11829216926E+02  0.25282472164E+02  0.51100000000E-03 0. -1.
        -11    1    3    3    0    0  0.46702286749E+01 -0.31140359818E+00 -0.57932833702E+01  0.74478279079E+01  0.51100000000E-03 0.  1.
         12    1    3    3    0    0 -0.42939320473E+01 -0.15124108337E+02  0.21421370568E+02  0.26571631911E+02  0.00000000000E+00 0. -1.
</event>
<event>
 7    1  0.1284777E-011  0.5930193E+02  0.7816164E-02  0.1266605E+00
        -11   -1    0    0    0    0  0.00000000000E+00  0.00000000000E+00  0.45593999997E+02  0.45594000000E+02  0.51100000000E-03 0. -1.
         11   -1    0    0    0    0 -0.00000000000E+00 -0.00000000000E+00 -0.45593999997E+02  0.45594000000E+02  0.51100000000E-03 0.  1.
    9900012    2    1    2    0    0 -0.50985798854E+01 -0.31351613518E+02 -0.27932580875E+01  0.59301929722E+02  0.49999973911E+02 0.  0.
        -12    1    1    2    0    0  0.50985798854E+01  0.31351613518E+02  0.27932580875E+01  0.31886070278E+02  0.00000000000E+00 0.  1.
         11    1    3    3    0    0 -0.69400752340E+01 -0.27127420234E+02 -0.51672255753E+01  0.28473879139E+02  0.51100000000E-03 0.  1.
        -11    1    3    3    0    0 -0.53088079822E+01  0.23540648450E+01 -0.12084982261E+02  0.13407902893E+02  0.51100000000E-03 0. -1.
         12    1    3    3    0    0  0.71503033308E+01 -0.65782581287E+01  0.14458949749E+02  0.17420147691E+02  0.00000000000E+00 0. -1.
</event>
<event>
 7    1  0.1284777E-011  0.5930182E+02  0.7816164E-02  0.1266605E+00
        -11   -1    0    0    0    0  0.00000000000E+00  0.00000000000E+00  0.45593999997E+02  0.45594000000E+02  0.51100000000E-03 0.  1.
         11   -1    0    0    0    0 -0.00000000000E+00 -0.00000000000E+00 -0.45593999997E+02  0.45594000000E+02  0.51100000000E-03 0. -1.
    9900012    2    1    2    0    0 -0.32201464159E+01  0.31237480276E+02  0.55298490244E+01  0.59301815732E+02  0.49999766018E+02 0.  0.
        -12    1    1    2    0    0  0.32201464159E+01 -0.31237480276E+02 -0.55298490244E+01  0.31886184268E+02  0.00000000000E+00 0.  1.
         11    1    3    3    0    0  0.21151867487E+01 -0.62962152787E+01 -0.44218892306E+01  0.79793136576E+01  0.51100000000E-03 0. -1.
        -11    1    3    3    0    0  0.99212975468E+01  0.59539672465E+01  0.11369575045E+02  0.16221871284E+02  0.51100000000E-03 0.  1.
         12    1    3    3    0    0 -0.15256630711E+02  0.31579728309E+02 -0.14178367900E+01  0.35100630790E+02  0.00000000000E+00 0. -1.
</event>
<event>
 7    1  0.1284777E-011  0.5930195E+02  0.7816164E-02  0.1266605E+00
        -11   -1    0    0    0    0  0.00000000000E+00  0.00000000000E+00  0.45593999997E+02  0.45594000000E+02  0.51100000000E-03 0. -1.
         11   -1    0    0    0    0 -0.00000000000E+00 -0.00000000000E+00 -0.45593999997E+02  0.45594000000E+02  0.51100000000E-03 0.  1.
    9900012    2    1    2    0    0  0.30462142257E+00 -0.29690770703E+02  0.11622634654E+02  0.59301948261E+02  0.50000007721E+02 0.  0.
        -12    1    1    2    0    0 -0.30462142257E+00  0.29690770703E+02 -0.11622634654E+02  0.31886051739E+02  0.00000000000E+00 0.  1.
         11    1    3    3    0    0 -0.96837674355E+01 -0.23334951053E+02  0.24565821991E+02  0.35238826637E+02  0.51100000000E-03 0. -1.
        -11    1    3    3    0    0 -0.31575576797E+01  0.23426928175E+01 -0.46570077831E+00  0.39591991127E+01  0.51100000000E-03 0.  1.
        -12    1    3    3    0    0  0.13145946538E+02 -0.86985124683E+01 -0.12477486559E+02  0.20103922512E+02  0.00000000000E+00 0.  1.
</event>
<event>
 7    1  0.1338547E-011  0.5930191E+02  0.7816164E-02  0.1266605E+00
        -11   -1    0    0    0    0  0.00000000000E+00  0.00000000000E+00  0.45593999997E+02  0.45594000000E+02  0.51100000000E-03 0.  1.
         11   -1    0    0    0    0 -0.00000000000E+00 -0.00000000000E+00 -0.45593999997E+02  0.45594000000E+02  0.51100000000E-03 0. -1.
    9900012    2    1    2    0    0 -0.16421050744E+02 -0.23278010045E+02  0.14325015172E+02  0.59301910261E+02  0.49999938417E+02 0.  0.
        -12    1    1    2    0    0  0.16421050744E+02  0.23278010045E+02 -0.14325015172E+02  0.31886089739E+02  0.00000000000E+00 0.  1.
         11    1    3    3    0    0  0.32439323902E+01 -0.39102165173E+00  0.12004659831E+02  0.12441376660E+02  0.51100000000E-03 0. -1.
        -11    1    3    3    0    0  0.39568595446E+01 -0.10131417360E+02 -0.12195872859E+02  0.16341409677E+02  0.51100000000E-03 0.  1.
         12    1    3    3    0    0 -0.23621842679E+02 -0.12755571033E+02  0.14516228200E+02  0.30519123924E+02  0.00000000000E+00 0. -1.
</event>
<event>
 7    1  0.1284777E-011  0.5930194E+02  0.7816164E-02  0.1266605E+00
        -11   -1    0    0    0    0  0.00000000000E+00  0.00000000000E+00  0.45593999997E+02  0.45594000000E+02  0.51100000000E-03 0.  1.
         11   -1    0    0    0    0 -0.00000000000E+00 -0.00000000000E+00 -0.45593999997E+02  0.45594000000E+02  0.51100000000E-03 0. -1.
    9900012    2    1    2    0    0 -0.30693985345E+02  0.84671787217E+01 -0.17049071294E+01  0.59301944110E+02  0.50000000150E+02 0.  0.
        -12    1    1    2    0    0  0.30693985345E+02 -0.84671787217E+01  0.17049071294E+01  0.31886055890E+02  0.00000000000E+00 0.  1.
         11    1    3    3    0    0 -0.18388220536E+02 -0.86007922232E+01  0.63529411993E+00  0.20310191536E+02  0.51100000000E-03 0. -1.
        -11    1    3    3    0    0 -0.14348938806E+02  0.46639096892E+01  0.12463896732E+02  0.19570202361E+02  0.51100000000E-03 0.  1.
         12    1    3    3    0    0  0.20431739966E+01  0.12404061256E+02 -0.14804097982E+02  0.19421550213E+02  0.00000000000E+00 0. -1.
</event>
<event>
 7    1  0.1284777E-011  0.5930194E+02  0.7816164E-02  0.1266605E+00
        -11   -1    0    0    0    0  0.00000000000E+00  0.00000000000E+00  0.45593999997E+02  0.45594000000E+02  0.51100000000E-03 0.  1.
         11   -1    0    0    0    0 -0.00000000000E+00 -0.00000000000E+00 -0.45593999997E+02  0.45594000000E+02  0.51100000000E-03 0. -1.
    9900012    2    1    2    0    0 -0.16678263325E+02 -0.26318949214E+02  0.67726719663E+01  0.59301942846E+02  0.49999997845E+02 0.  0.
        -12    1    1    2    0    0  0.16678263325E+02  0.26318949214E+02 -0.67726719663E+01  0.31886057154E+02  0.00000000000E+00 0.  1.
         11    1    3    3    0    0 -0.16825849394E+01 -0.10851032872E+02  0.15129695693E+02  0.18694483103E+02  0.51100000000E-03 0. -1.
        -11    1    3    3    0    0 -0.61116802726E+01 -0.48676574046E+01  0.12997553320E+02  0.15165194260E+02  0.51100000000E-03 0.  1.
         12    1    3    3    0    0 -0.88839981129E+01 -0.10600258938E+02 -0.21354577047E+02  0.25442265483E+02  0.00000000000E+00 0. -1.
</event>
<event>
 7    1  0.1284777E-011  0.5930203E+02  0.7816164E-02  0.1266604E+00
        -11   -1    0    0    0    0  0.00000000000E+00  0.00000000000E+00  0.45593999997E+02  0.45594000000E+02  0.51100000000E-03 0. -1.
         11   -1    0    0    0    0 -0.00000000000E+00 -0.00000000000E+00 -0.45593999997E+02  0.45594000000E+02  0.51100000000E-03 0.  1.
    9900012    2    1    2    0    0 -0.13714759263E+02  0.28189231091E+02  0.58298741278E+01  0.59302034380E+02  0.50000164781E+02 0.  0.
        -12    1    1    2    0    0  0.13714759263E+02 -0.28189231091E+02 -0.58298741278E+01  0.31885965620E+02  0.00000000000E+00 0.  1.
         11    1    3    3    0    0 -0.12348184793E+02  0.30794174495E+02 -0.29207708070E+00  0.33178971650E+02  0.51100000000E-03 0. -1.
        -11    1    3    3    0    0 -0.42205057748E+01  0.10770161137E+02  0.13872275150E+01  0.11650469534E+02  0.51100000000E-03 0.  1.
        -12    1    3    3    0    0  0.28539313043E+01 -0.13375104541E+02  0.47347236935E+01  0.14472593196E+02  0.00000000000E+00 0.  1.
</event>
<event>
 7    1  0.1284777E-011  0.5930194E+02  0.7816164E-02  0.1266605E+00
        -11   -1    0    0    0    0  0.00000000000E+00  0.00000000000E+00  0.45593999997E+02  0.45594000000E+02  0.51100000000E-03 0.  1.
         11   -1    0    0    0    0 -0.00000000000E+00 -0.00000000000E+00 -0.45593999997E+02  0.45594000000E+02  0.51100000000E-03 0. -1.
    9900012    2    1    2    0    0  0.28289849699E+02  0.28360783288E+01 -0.14434742368E+02  0.59301941550E+02  0.49999995481E+02 0.  0.
        -12    1    1    2    0    0 -0.28289849699E+02 -0.28360783288E+01  0.14434742368E+02  0.31886058450E+02  0.00000000000E+00 0.  1.
         11    1    3    3    0    0  0.24041613425E+02  0.88893458102E+01 -0.73656195816E+01  0.26669683108E+02  0.51100000000E-03 0. -1.
        -11    1    3    3    0    0  0.78708425315E+01  0.68768332215E+01 -0.14039581088E+02  0.17502880754E+02  0.51100000000E-03 0.  1.
        -12    1    3    3    0    0 -0.36226062576E+01 -0.12930100703E+02  0.69704583013E+01  0.15129377688E+02  0.00000000000E+00 0.  1.
</event>
<event>
 7    1  0.1284777E-011  0.5930195E+02  0.7816164E-02  0.1266605E+00
        -11   -1    0    0    0    0  0.00000000000E+00  0.00000000000E+00  0.45593999997E+02  0.45594000000E+02  0.51100000000E-03 0.  1.
         11   -1    0    0    0    0 -0.00000000000E+00 -0.00000000000E+00 -0.45593999997E+02  0.45594000000E+02  0.51100000000E-03 0. -1.
    9900012    2    1    2    0    0 -0.95662261950E+01  0.20982593582E+02 -0.22021318442E+02  0.59301946890E+02  0.50000005220E+02 0.  0.
        -12    1    1    2    0    0  0.95662261950E+01 -0.20982593582E+02  0.22021318442E+02  0.31886053110E+02  0.00000000000E+00 0.  1.
         11    1    3    3    0    0 -0.13296011427E+02 -0.26820602913E+01 -0.59073339932E+01  0.14794389560E+02  0.51100000000E-03 0. -1.
        -11    1    3    3    0    0 -0.57861384495E+01 -0.68088553616E+01 -0.68711751046E+01  0.11271777015E+02  0.51100000000E-03 0.  1.
         12    1    3    3    0    0  0.95159236814E+01  0.30473509235E+02 -0.92428093439E+01  0.33235780315E+02  0.00000000000E+00 0. -1.
</event>
<event>
 7    1  0.1284777E-011  0.5930195E+02  0.7816164E-02  0.1266605E+00
        -11   -1    0    0    0    0  0.00000000000E+00  0.00000000000E+00  0.45593999997E+02  0.45594000000E+02  0.51100000000E-03 0.  1.
         11   -1    0    0    0    0 -0.00000000000E+00 -0.00000000000E+00 -0.45593999997E+02  0.45594000000E+02  0.51100000000E-03 0. -1.
    9900012    2    1    2    0    0  0.22079786477E+02 -0.17994021581E+02 -0.14332417152E+02  0.59301953444E+02  0.50000017173E+02 0.  0.
        -12    1    1    2    0    0 -0.22079786477E+02  0.17994021581E+02  0.14332417152E+02  0.31886046556E+02  0.00000000000E+00 0.  1.
         11    1    3    3    0    0  0.11650246281E+02  0.36727283775E+01 -0.10080922767E+02  0.15837997861E+02  0.51100000000E-03 0. -1.
        -11    1    3    3    0    0  0.89677899773E+01 -0.93306614964E+00 -0.16884361557E+02  0.19140886473E+02  0.51100000000E-03 0.  1.
        -12    1    3    3    0    0  0.14617502187E+01 -0.20733683809E+02  0.12632867171E+02  0.24323069111E+02  0.00000000000E+00 0.  1.
</event>
<event>
 7    1  0.1284777E-011  0.5930202E+02  0.7816164E-02  0.1266605E+00
        -11   -1    0    0    0    0  0.00000000000E+00  0.00000000000E+00  0.45593999997E+02  0.45594000000E+02  0.51100000000E-03 0.  1.
         11   -1    0    0    0    0 -0.00000000000E+00 -0.00000000000E+00 -0.45593999997E+02  0.45594000000E+02  0.51100000000E-03 0. -1.
    9900012    2    1    2    0    0 -0.25352088313E+02 -0.18851387986E+02 -0.43142320506E+01  0.59302018613E+02  0.50000136025E+02 0.  0.
        -12    1    1    2    0    0  0.25352088313E+02  0.18851387986E+02  0.43142320506E+01  0.31885981387E+02  0.00000000000E+00 0.  1.
         11    1    3    3    0    0 -0.33064774349E+02 -0.21679417493E+02 -0.58282936350E+01  0.39965553325E+02  0.51100000000E-03 0.  1.
        -11    1    3    3    0    0 -0.33493256387E-01  0.30824123207E+01 -0.71052143471E+01  0.77450925555E+01  0.51100000000E-03 0. -1.
        -12    1    3    3    0    0  0.77461792919E+01 -0.25438281364E+00  0.86192759316E+01  0.11591372732E+02  0.00000000000E+00 0.  1.
</event>
<event>
 7    1  0.1284777E-011  0.5930199E+02  0.7816164E-02  0.1266605E+00
        -11   -1    0    0    0    0  0.00000000000E+00  0.00000000000E+00  0.45593999997E+02  0.45594000000E+02  0.51100000000E-03 0. -1.
         11   -1    0    0    0    0 -0.00000000000E+00 -0.00000000000E+00 -0.45593999997E+02  0.45594000000E+02  0.51100000000E-03 0.  1.
    9900012    2    1    2    0    0 -0.80529677949E+01 -0.24338325906E+02  0.18960835439E+02  0.59301989293E+02  0.50000082554E+02 0.  0.
        -12    1    1    2    0    0  0.80529677949E+01  0.24338325906E+02 -0.18960835439E+02  0.31886010707E+02  0.00000000000E+00 0.  1.
         11    1    3    3    0    0  0.11181327207E+00 -0.12506340463E+02  0.30522776486E+01  0.12873905899E+02  0.51100000000E-03 0. -1.
        -11    1    3    3    0    0  0.99875394184E+01 -0.26490170919E+01 -0.93920067352E+01  0.13963453225E+02  0.51100000000E-03 0.  1.
         12    1    3    3    0    0 -0.18152320485E+02 -0.91829683514E+01  0.25300564526E+02  0.32464630170E+02  0.00000000000E+00 0. -1.
</event>
<event>
 7    1  0.1284777E-011  0.5930192E+02  0.7816164E-02  0.1266605E+00
        -11   -1    0    0    0    0  0.00000000000E+00  0.00000000000E+00  0.45593999997E+02  0.45594000000E+02  0.51100000000E-03 0. -1.
         11   -1    0    0    0    0 -0.00000000000E+00 -0.00000000000E+00 -0.45593999997E+02  0.45594000000E+02  0.51100000000E-03 0.  1.
    9900012    2    1    2    0    0  0.75729674639E+01 -0.50808509594E+01  0.30554164874E+02  0.59301923511E+02  0.49999962583E+02 0.  0.
        -12    1    1    2    0    0 -0.75729674639E+01  0.50808509594E+01 -0.30554164874E+02  0.31886076489E+02  0.00000000000E+00 0.  1.
         11    1    3    3    0    0 -0.39597536413E+01 -0.84906119325E+01  0.36156697483E+01  0.10042071892E+02  0.51100000000E-03 0. -1.
        -11    1    3    3    0    0  0.20768112878E+01 -0.15427971296E+02  0.67160072010E+00  0.15581607466E+02  0.51100000000E-03 0.  1.
         12    1    3    3    0    0  0.94559098174E+01  0.18837732270E+02  0.26266894406E+02  0.33678244153E+02  0.00000000000E+00 0. -1.
</event>
<event>
 7    1  0.1284777E-011  0.5930196E+02  0.7816164E-02  0.1266605E+00
        -11   -1    0    0    0    0  0.00000000000E+00  0.00000000000E+00  0.45593999997E+02  0.45594000000E+02  0.51100000000E-03 0.  1.
         11   -1    0    0    0    0 -0.00000000000E+00 -0.00000000000E+00 -0.45593999997E+02  0.45594000000E+02  0.51100000000E-03 0. -1.
    9900012    2    1    2    0    0 -0.22959033329E+02 -0.11947338436E+02  0.18624272422E+02  0.59301958691E+02  0.50000026742E+02 0.  0.
        -12    1    1    2    0    0  0.22959033329E+02  0.11947338436E+02 -0.18624272422E+02  0.31886041309E+02  0.00000000000E+00 0.  1.
         11    1    3    3    0    0  0.47391582913E+01  0.51488767705E+01  0.12047970443E+01  0.71008513213E+01  0.51100000000E-03 0. -1.
        -11    1    3    3    0    0 -0.62159640253E+01 -0.25354939839E+02  0.10813795889E+02  0.28256846335E+02  0.51100000000E-03 0.  1.
         12    1    3    3    0    0 -0.21482227595E+02  0.82587246323E+01  0.66056794894E+01  0.23944261035E+02  0.00000000000E+00 0. -1.
</event>
<event>
 7    1  0.1284777E-011  0.5930193E+02  0.7816164E-02  0.1266605E+00
        -11   -1    0    0    0    0  0.00000000000E+00  0.00000000000E+00  0.45593999997E+02  0.45594000000E+02  0.51100000000E-03 0.  1.
         11   -1    0    0    0    0 -0.00000000000E+00 -0.00000000000E+00 -0.45593999997E+02  0.45594000000E+02  0.51100000000E-03 0. -1.
    9900012    2    1    2    0    0  0.17688489366E+02  0.56930869447E+01 -0.25911915654E+02  0.59301933013E+02  0.49999979912E+02 0.  0.
        -12    1    1    2    0    0 -0.17688489366E+02 -0.56930869447E+01  0.25911915654E+02  0.31886066987E+02  0.00000000000E+00 0.  1.
         11    1    3    3    0    0  0.14584182960E+00 -0.19032138936E+02 -0.86781437986E+01  0.20917785791E+02  0.51100000000E-03 0. -1.
        -11    1    3    3    0    0 -0.52722054159E+00 -0.18196966373E+01 -0.22714507988E+01  0.29578279774E+01  0.51100000000E-03 0.  1.
        -12    1    3    3    0    0  0.18069868078E+02  0.26544922518E+02 -0.14962321057E+02  0.35426319245E+02  0.00000000000E+00 0.  1.
</event>
<event>
 7    1  0.1284777E-011  0.5930196E+02  0.7816164E-02  0.1266605E+00
        -11   -1    0    0    0    0  0.00000000000E+00  0.00000000000E+00  0.45593999997E+02  0.45594000000E+02  0.51100000000E-03 0.  1.
         11   -1    0    0    0    0 -0.00000000000E+00 -0.00000000000E+00 -0.45593999997E+02  0.45594000000E+02  0.51100000000E-03 0. -1.
    9900012    2    1    2    0    0 -0.59535415289E+01 -0.30828969094E+02 -0.55542307498E+01  0.59301961185E+02  0.50000031290E+02 0.  0.
        -12    1    1    2    0    0  0.59535415289E+01  0.30828969094E+02  0.55542307498E+01  0.31886038815E+02  0.00000000000E+00 0.  1.
         11    1    3    3    0    0  0.22973668080E+01 -0.61595923054E+00 -0.50637233938E+01  0.55945147148E+01  0.51100000000E-03 0. -1.
        -11    1    3    3    0    0  0.17085123925E+02 -0.54302264710E+01 -0.30025396854E+01  0.18177020215E+02  0.51100000000E-03 0.  1.
         12    1    3    3    0    0 -0.25336032262E+02 -0.24782783392E+02  0.25120323293E+01  0.35530426255E+02  0.00000000000E+00 0. -1.
</event>
<event>
 7    1  0.1284777E-011  0.5930194E+02  0.7816164E-02  0.1266605E+00
        -11   -1    0    0    0    0  0.00000000000E+00  0.00000000000E+00  0.45593999997E+02  0.45594000000E+02  0.51100000000E-03 0.  1.
         11   -1    0    0    0    0 -0.00000000000E+00 -0.00000000000E+00 -0.45593999997E+02  0.45594000000E+02  0.51100000000E-03 0. -1.
    9900012    2    1    2    0    0  0.24500547387E+02 -0.13420532186E+02 -0.15373137798E+02  0.59301939218E+02  0.49999991229E+02 0.  0.
        -12    1    1    2    0    0 -0.24500547387E+02  0.13420532186E+02  0.15373137798E+02  0.31886060782E+02  0.00000000000E+00 0.  1.
         11    1    3    3    0    0  0.41583549621E+01  0.12334494274E+01 -0.22039163775E+01  0.48652400908E+01  0.51100000000E-03 0. -1.
        -11    1    3    3    0    0  0.16118304820E+02 -0.31106516619E+02 -0.43675836969E+01  0.35305678213E+02  0.51100000000E-03 0.  1.
         12    1    3    3    0    0  0.42238876057E+01  0.16452535006E+02 -0.88016377233E+01  0.19131020915E+02  0.00000000000E+00 0. -1.
</event>
<event>
 7    1  0.1284777E-011  0.5930194E+02  0.7816164E-02  0.1266605E+00
        -11   -1    0    0    0    0  0.00000000000E+00  0.00000000000E+00  0.45593999997E+02  0.45594000000E+02  0.51100000000E-03 0.  1.
         11   -1    0    0    0    0 -0.00000000000E+00 -0.00000000000E+00 -0.45593999997E+02  0.45594000000E+02  0.51100000000E-03 0. -1.
    9900012    2    1    2    0    0 -0.30608681911E+02  0.84655960767E+01  0.28570721106E+01  0.59301943701E+02  0.49999999404E+02 0.  0.
        -12    1    1    2    0    0  0.30608681911E+02 -0.84655960767E+01 -0.28570721106E+01  0.31886056299E+02  0.00000000000E+00 0.  1.
         11    1    3    3    0    0 -0.16987261429E+02  0.12609046789E+02 -0.80233985960E+01  0.22625870968E+02  0.51100000000E-03 0.  1.
        -11    1    3    3    0    0 -0.33320206144E+01  0.83312288207E+01 -0.78563349233E+01  0.11926178505E+02  0.51100000000E-03 0. -1.
        -12    1    3    3    0    0 -0.10289399867E+02 -0.12474679533E+02  0.18736805630E+02  0.24749894228E+02  0.00000000000E+00 0.  1.
</event>
<event>
 7    1  0.1284777E-011  0.5930196E+02  0.7816164E-02  0.1266605E+00
        -11   -1    0    0    0    0  0.00000000000E+00  0.00000000000E+00  0.45593999997E+02  0.45594000000E+02  0.51100000000E-03 0.  1.
         11   -1    0    0    0    0 -0.00000000000E+00 -0.00000000000E+00 -0.45593999997E+02  0.45594000000E+02  0.51100000000E-03 0. -1.
    9900012    2    1    2    0    0 -0.14840031338E+02  0.24636785821E+02 -0.13766689623E+02  0.59301960909E+02  0.50000030788E+02 0.  0.
        -12    1    1    2    0    0  0.14840031338E+02 -0.24636785821E+02  0.13766689623E+02  0.31886039091E+02  0.00000000000E+00 0.  1.
         11    1    3    3    0    0 -0.66053197467E+01  0.41629452103E+01 -0.93767602141E+00  0.78638157635E+01  0.51100000000E-03 0. -1.
        -11    1    3    3    0    0 -0.15576083894E+02  0.79561414615E+01  0.13013047242E+02  0.21800320531E+02  0.51100000000E-03 0.  1.
         12    1    3    3    0    0  0.73413723030E+01  0.12517699150E+02 -0.25842060844E+02  0.29637824615E+02  0.00000000000E+00 0. -1.
</event>
<event>
 7    1  0.1284777E-011  0.5930193E+02  0.7816164E-02  0.1266605E+00
        -11   -1    0    0    0    0  0.00000000000E+00  0.00000000000E+00  0.45593999997E+02  0.45594000000E+02  0.51100000000E-03 0.  1.
         11   -1    0    0    0    0 -0.00000000000E+00 -0.00000000000E+00 -0.45593999997E+02  0.45594000000E+02  0.51100000000E-03 0. -1.
    9900012    2    1    2    0    0 -0.27535358104E+02  0.15637732620E+02  0.37398872388E+01  0.59301931193E+02  0.49999976592E+02 0.  0.
        -12    1    1    2    0    0  0.27535358104E+02 -0.15637732620E+02 -0.37398872388E+01  0.31886068807E+02  0.00000000000E+00 0.  1.
         11    1    3    3    0    0 -0.17941010209E+00  0.62668980839E+00 -0.60606467348E+01  0.60956022841E+01  0.51100000000E-03 0. -1.
        -11    1    3    3    0    0 -0.37072747085E+02  0.16465267533E+02  0.19178536513E+01  0.40609995989E+02  0.51100000000E-03 0.  1.
         12    1    3    3    0    0  0.97167990824E+01 -0.14542247217E+01  0.78826803223E+01  0.12596332919E+02  0.00000000000E+00 0. -1.
</event>
<event>
 7    1  0.1284777E-011  0.5930195E+02  0.7816164E-02  0.1266605E+00
        -11   -1    0    0    0    0  0.00000000000E+00  0.00000000000E+00  0.45593999997E+02  0.45594000000E+02  0.51100000000E-03 0.  1.
         11   -1    0    0    0    0 -0.00000000000E+00 -0.00000000000E+00 -0.45593999997E+02  0.45594000000E+02  0.51100000000E-03 0. -1.
    9900012    2    1    2    0    0  0.25024394572E+02 -0.12274350658E+02  0.15486780763E+02  0.59301946839E+02  0.50000005127E+02 0.  0.
        -12    1    1    2    0    0 -0.25024394572E+02  0.12274350658E+02 -0.15486780763E+02  0.31886053161E+02  0.00000000000E+00 0.  1.
         11    1    3    3    0    0  0.46389795924E+01  0.11504436768E+01 -0.64557082991E+01  0.80324231846E+01  0.51100000000E-03 0. -1.
        -11    1    3    3    0    0  0.23331866820E+02 -0.14061222393E+02 -0.18336637742E+01  0.27303045757E+02  0.51100000000E-03 0.  1.
        -12    1    3    3    0    0 -0.29464518402E+01  0.63642805847E+00  0.23776152837E+02  0.23966477898E+02  0.00000000000E+00 0.  1.
</event>
<event>
 7    1  0.1284777E-011  0.5930193E+02  0.7816164E-02  0.1266605E+00
        -11   -1    0    0    0    0  0.00000000000E+00  0.00000000000E+00  0.45593999997E+02  0.45594000000E+02  0.51100000000E-03 0.  1.
         11   -1    0    0    0    0 -0.00000000000E+00 -0.00000000000E+00 -0.45593999997E+02  0.45594000000E+02  0.51100000000E-03 0. -1.
    9900012    2    1    2    0    0  0.35514183290E+01  0.29119906323E+02 -0.12495594332E+02  0.59301931034E+02  0.49999976302E+02 0.  0.
        -12    1    1    2    0    0 -0.35514183290E+01 -0.29119906323E+02  0.12495594332E+02  0.31886068966E+02  0.00000000000E+00 0.  1.
         11    1    3    3    0    0 -0.25854745895E+01 -0.92318516536E+01 -0.65391539336E+01  0.11604839432E+02  0.51100000000E-03 0. -1.
        -11    1    3    3    0    0 -0.85770004835E+01  0.16157122265E+02 -0.98646257682E+01  0.20782886686E+02  0.51100000000E-03 0.  1.
         12    1    3    3    0    0  0.14713893402E+02  0.22194635711E+02  0.39081853695E+01  0.26914204916E+02  0.00000000000E+00 0. -1.
</event>
<event>
 7    1  0.1284777E-011  0.5930195E+02  0.7816164E-02  0.1266605E+00
        -11   -1    0    0    0    0  0.00000000000E+00  0.00000000000E+00  0.45593999997E+02  0.45594000000E+02  0.51100000000E-03 0.  1.
         11   -1    0    0    0    0 -0.00000000000E+00 -0.00000000000E+00 -0.45593999997E+02  0.45594000000E+02  0.51100000000E-03 0. -1.
    9900012    2    1    2    0    0 -0.29025393626E+02 -0.97218980536E+01 -0.89292342441E+01  0.59301952878E+02  0.50000016140E+02 0.  0.
        -12    1    1    2    0    0  0.29025393626E+02  0.97218980536E+01  0.89292342441E+01  0.31886047122E+02  0.00000000000E+00 0.  1.
         11    1    3    3    0    0 -0.26798839703E+01 -0.36947203428E+01 -0.95365719567E+01  0.10572556051E+02  0.51100000000E-03 0. -1.
        -11    1    3    3    0    0 -0.20735810801E+02 -0.10916315985E+02  0.18171657014E+02  0.29653818020E+02  0.51100000000E-03 0.  1.
         12    1    3    3    0    0 -0.56096988549E+01  0.48891382741E+01 -0.17564319301E+02  0.19075578807E+02  0.00000000000E+00 0. -1.
</event>
<event>
 7    1  0.1284777E-011  0.5930195E+02  0.7816164E-02  0.1266605E+00
        -11   -1    0    0    0    0  0.00000000000E+00  0.00000000000E+00  0.45593999997E+02  0.45594000000E+02  0.51100000000E-03 0. -1.
         11   -1    0    0    0    0 -0.00000000000E+00 -0.00000000000E+00 -0.45593999997E+02  0.45594000000E+02  0.51100000000E-03 0.  1.
    9900012    2    1    2    0    0 -0.25151972316E+02 -0.15470732083E+02  0.12031424082E+02  0.59301946183E+02  0.50000003931E+02 0.  0.
        -12    1    1    2    0    0  0.25151972316E+02  0.15470732083E+02 -0.12031424082E+02  0.31886053817E+02  0.00000000000E+00 0.  1.
         11    1    3    3    0    0 -0.23363649760E+02 -0.23351921973E+02 -0.45402095995E+01  0.33343453532E+02  0.51100000000E-03 0.  1.
        -11    1    3    3    0    0 -0.32813992033E+01 -0.43031931630E+01  0.95807253870E-01  0.54124145647E+01  0.51100000000E-03 0. -1.
        -12    1    3    3    0    0  0.14930766475E+01  0.12184383053E+02  0.16475826428E+02  0.20546078087E+02  0.00000000000E+00 0.  1.
</event>
<event>
 7    1  0.1284777E-011  0.5930194E+02  0.7816164E-02  0.1266605E+00
        -11   -1    0    0    0    0  0.00000000000E+00  0.00000000000E+00  0.45593999997E+02  0.45594000000E+02  0.51100000000E-03 0. -1.
         11   -1    0    0    0    0 -0.00000000000E+00 -0.00000000000E+00 -0.45593999997E+02  0.45594000000E+02  0.51100000000E-03 0.  1.
    9900012    2    1    2    0    0  0.15920287682E+02  0.18840859941E+02 -0.20206127196E+02  0.59301935027E+02  0.49999983585E+02 0.  0.
        -12    1    1    2    0    0 -0.15920287682E+02 -0.18840859941E+02  0.20206127196E+02  0.31886064973E+02  0.00000000000E+00 0.  1.
         11    1    3    3    0    0 -0.41773543234E+01  0.26648515165E+01 -0.50302774542E+01  0.70608366555E+01  0.51100000000E-03 0. -1.
        -11    1    3    3    0    0 -0.49794272039E+00 -0.11808799695E+02  0.40946793139E+01  0.12508480968E+02  0.51100000000E-03 0.  1.
         12    1    3    3    0    0  0.20595584725E+02  0.27984808119E+02 -0.19270529056E+02  0.39732617404E+02  0.00000000000E+00 0. -1.
</event>
<event>
 7    1  0.1284777E-011  0.5930193E+02  0.7816164E-02  0.1266605E+00
        -11   -1    0    0    0    0  0.00000000000E+00  0.00000000000E+00  0.45593999997E+02  0.45594000000E+02  0.51100000000E-03 0.  1.
         11   -1    0    0    0    0 -0.00000000000E+00 -0.00000000000E+00 -0.45593999997E+02  0.45594000000E+02  0.51100000000E-03 0. -1.
    9900012    2    1    2    0    0 -0.23698991100E+02  0.97610707589E+01 -0.18968407435E+02  0.59301934671E+02  0.49999982936E+02 0.  0.
        -12    1    1    2    0    0  0.23698991100E+02 -0.97610707589E+01  0.18968407435E+02  0.31886065329E+02  0.00000000000E+00 0.  1.
         11    1    3    3    0    0 -0.96515230982E+01 -0.26022127870E+01  0.10464464400E+01  0.10050793994E+02  0.51100000000E-03 0. -1.
        -11    1    3    3    0    0 -0.28222801656E+02  0.65514364413E+01 -0.17139393058E+02  0.33663134842E+02  0.51100000000E-03 0.  1.
        -12    1    3    3    0    0  0.14175333654E+02  0.58118471047E+01 -0.28754608175E+01  0.15588005834E+02  0.00000000000E+00 0.  1.
</event>
<event>
 7    1  0.1284777E-011  0.5930192E+02  0.7816164E-02  0.1266605E+00
        -11   -1    0    0    0    0  0.00000000000E+00  0.00000000000E+00  0.45593999997E+02  0.45594000000E+02  0.51100000000E-03 0.  1.
         11   -1    0    0    0    0 -0.00000000000E+00 -0.00000000000E+00 -0.45593999997E+02  0.45594000000E+02  0.51100000000E-03 0. -1.
    9900012    2    1    2    0    0  0.24780519126E+02 -0.86649530606E+01 -0.18098802122E+02  0.59301918743E+02  0.49999953886E+02 0.  0.
        -12    1    1    2    0    0 -0.24780519126E+02  0.86649530606E+01  0.18098802122E+02  0.31886081257E+02  0.00000000000E+00 0.  1.
         11    1    3    3    0    0  0.23585650826E+02 -0.39807307301E+01  0.23721071542E+01  0.24036556214E+02  0.51100000000E-03 0. -1.
        -11    1    3    3    0    0  0.28243223303E+01 -0.49604779830E+00  0.69292262246E+01  0.74991357087E+01  0.51100000000E-03 0.  1.
         12    1    3    3    0    0 -0.16294540306E+01 -0.41881745322E+01 -0.27400135501E+02  0.27766226820E+02  0.00000000000E+00 0. -1.
</event>
<event>
 7    1  0.1284777E-011  0.5930194E+02  0.7816164E-02  0.1266605E+00
        -11   -1    0    0    0    0  0.00000000000E+00  0.00000000000E+00  0.45593999997E+02  0.45594000000E+02  0.51100000000E-03 0.  1.
         11   -1    0    0    0    0 -0.00000000000E+00 -0.00000000000E+00 -0.45593999997E+02  0.45594000000E+02  0.51100000000E-03 0. -1.
    9900012    2    1    2    0    0  0.14987668194E+02  0.57332829854E+01 -0.27553950714E+02  0.59301938286E+02  0.49999989528E+02 0.  0.
        -12    1    1    2    0    0 -0.14987668194E+02 -0.57332829854E+01  0.27553950714E+02  0.31886061714E+02  0.00000000000E+00 0.  1.
         11    1    3    3    0    0 -0.39771312879E+01 -0.12260363357E+02 -0.18489423881E+02  0.22538697359E+02  0.51100000000E-03 0. -1.
        -11    1    3    3    0    0 -0.37746059276E+01  0.54106561886E-01 -0.67160568571E+01  0.77042843534E+01  0.51100000000E-03 0.  1.
        -12    1    3    3    0    0  0.22739405409E+02  0.17939539780E+02 -0.23484699759E+01  0.29058956573E+02  0.00000000000E+00 0.  1.
</event>
<event>
 7    1  0.1284777E-011  0.5930229E+02  0.7816164E-02  0.1266604E+00
        -11   -1    0    0    0    0  0.00000000000E+00  0.00000000000E+00  0.45593999997E+02  0.45594000000E+02  0.51100000000E-03 0.  1.
         11   -1    0    0    0    0 -0.00000000000E+00 -0.00000000000E+00 -0.45593999997E+02  0.45594000000E+02  0.51100000000E-03 0. -1.
    9900012    2    1    2    0    0  0.42585006077E+01 -0.27968664305E+02 -0.14707741814E+02  0.59302287217E+02  0.50000625891E+02 0.  0.
        -12    1    1    2    0    0 -0.42585006077E+01  0.27968664305E+02  0.14707741814E+02  0.31885712783E+02  0.00000000000E+00 0.  1.
         11    1    3    3    0    0  0.29084803562E+01  0.43356486579E+01 -0.19400216692E+02  0.20090433425E+02  0.51100000000E-03 0. -1.
        -11    1    3    3    0    0  0.47109658567E+01 -0.13747317520E+00 -0.34737902774E+01  0.58548541681E+01  0.51100000000E-03 0.  1.
        -12    1    3    3    0    0 -0.33609456052E+01 -0.32166839788E+02  0.81662651555E+01  0.33356999624E+02  0.00000000000E+00 0.  1.
</event>
<event>
 7    1  0.1284777E-011  0.5930194E+02  0.7816164E-02  0.1266605E+00
        -11   -1    0    0    0    0  0.00000000000E+00  0.00000000000E+00  0.45593999997E+02  0.45594000000E+02  0.51100000000E-03 0.  1.
         11   -1    0    0    0    0 -0.00000000000E+00 -0.00000000000E+00 -0.45593999997E+02  0.45594000000E+02  0.51100000000E-03 0. -1.
    9900012    2    1    2    0    0  0.22844519463E+02  0.22108742485E+02 -0.24601466058E+01  0.59301939016E+02  0.49999990859E+02 0.  0.
        -12    1    1    2    0    0 -0.22844519463E+02 -0.22108742485E+02  0.24601466058E+01  0.31886060984E+02  0.00000000000E+00 0.  1.
         11    1    3    3    0    0  0.19309232597E+02 -0.51132275498E+01 -0.12137640636E+02  0.23373358336E+02  0.51100000000E-03 0. -1.
        -11    1    3    3    0    0 -0.37150960291E+00  0.65946692246E+01 -0.66197146393E+01  0.93513797770E+01  0.51100000000E-03 0.  1.
        -12    1    3    3    0    0  0.39067964692E+01  0.20627300811E+02  0.16297208669E+02  0.26577200902E+02  0.00000000000E+00 0.  1.
</event>
<event>
 7    1  0.1284777E-011  0.5930194E+02  0.7816164E-02  0.1266605E+00
        -11   -1    0    0    0    0  0.00000000000E+00  0.00000000000E+00  0.45593999997E+02  0.45594000000E+02  0.51100000000E-03 0.  1.
         11   -1    0    0    0    0 -0.00000000000E+00 -0.00000000000E+00 -0.45593999997E+02  0.45594000000E+02  0.51100000000E-03 0. -1.
    9900012    2    1    2    0    0 -0.11845282501E+02 -0.15233569415E+02 -0.25384018164E+02  0.59301941404E+02  0.49999995215E+02 0.  0.
        -12    1    1    2    0    0  0.11845282501E+02  0.15233569415E+02  0.25384018164E+02  0.31886058596E+02  0.00000000000E+00 0.  1.
         11    1    3    3    0    0 -0.29657353689E+01 -0.30075155418E+01 -0.27449933400E+02  0.27773000917E+02  0.51100000000E-03 0. -1.
        -11    1    3    3    0    0 -0.28025959523E+01  0.17571986008E+01 -0.10976997574E+02  0.11464587520E+02  0.51100000000E-03 0.  1.
        -12    1    3    3    0    0 -0.60769511797E+01 -0.13983252474E+02  0.13042912811E+02  0.20064352967E+02  0.00000000000E+00 0.  1.
</event>
<event>
 7    1  0.1284777E-011  0.5930196E+02  0.7816164E-02  0.1266605E+00
        -11   -1    0    0    0    0  0.00000000000E+00  0.00000000000E+00  0.45593999997E+02  0.45594000000E+02  0.51100000000E-03 0. -1.
         11   -1    0    0    0    0 -0.00000000000E+00 -0.00000000000E+00 -0.45593999997E+02  0.45594000000E+02  0.51100000000E-03 0.  1.
    9900012    2    1    2    0    0  0.23246170807E+02 -0.71601200019E-01  0.21824980946E+02  0.59301962661E+02  0.50000033982E+02 0.  0.
        -12    1    1    2    0    0 -0.23246170807E+02  0.71601200019E-01 -0.21824980946E+02  0.31886037339E+02  0.00000000000E+00 0.  1.
         11    1    3    3    0    0  0.27349204391E+02  0.70076005388E+01  0.23933577160E+02  0.37012181266E+02  0.51100000000E-03 0. -1.
        -11    1    3    3    0    0  0.48680187990E+01 -0.23614712227E+01 -0.86669391837E+01  0.10217141892E+02  0.51100000000E-03 0.  1.
        -12    1    3    3    0    0 -0.89710523823E+01 -0.47177305161E+01  0.65583429690E+01  0.12072639503E+02  0.00000000000E+00 0.  1.
</event>
<event>
 7    1  0.1284777E-011  0.5930190E+02  0.7816164E-02  0.1266605E+00
        -11   -1    0    0    0    0  0.00000000000E+00  0.00000000000E+00  0.45593999997E+02  0.45594000000E+02  0.51100000000E-03 0. -1.
         11   -1    0    0    0    0 -0.00000000000E+00 -0.00000000000E+00 -0.45593999997E+02  0.45594000000E+02  0.51100000000E-03 0.  1.
    9900012    2    1    2    0    0 -0.10536100029E+02  0.55186471822E+01  0.29584770000E+02  0.59301898223E+02  0.49999916464E+02 0.  0.
        -12    1    1    2    0    0  0.10536100029E+02 -0.55186471822E+01 -0.29584770000E+02  0.31886101777E+02  0.00000000000E+00 0.  1.
         11    1    3    3    0    0  0.13821687180E+01  0.22945693917E+01 -0.46756076792E+01  0.53885755530E+01  0.51100000000E-03 0. -1.
        -11    1    3    3    0    0  0.51505287884E+01 -0.11592483396E+02  0.27558971676E+02  0.30338268543E+02  0.51100000000E-03 0.  1.
         12    1    3    3    0    0 -0.17068797535E+02  0.14816561186E+02  0.67014060037E+01  0.23575054128E+02  0.00000000000E+00 0. -1.
</event>
<event>
 7    1  0.1284777E-011  0.5930195E+02  0.7816164E-02  0.1266605E+00
        -11   -1    0    0    0    0  0.00000000000E+00  0.00000000000E+00  0.45593999997E+02  0.45594000000E+02  0.51100000000E-03 0.  1.
         11   -1    0    0    0    0 -0.00000000000E+00 -0.00000000000E+00 -0.45593999997E+02  0.45594000000E+02  0.51100000000E-03 0. -1.
    9900012    2    1    2    0    0 -0.27836188295E+02  0.15466294081E+02  0.16311652081E+01  0.59301947699E+02  0.50000006695E+02 0.  0.
        -12    1    1    2    0    0  0.27836188295E+02 -0.15466294081E+02 -0.16311652081E+01  0.31886052301E+02  0.00000000000E+00 0.  1.
         11    1    3    3    0    0 -0.75109615401E+01  0.42514036432E+01 -0.14056367452E+02  0.16494557963E+02  0.51100000000E-03 0. -1.
        -11    1    3    3    0    0 -0.25060129531E+01 -0.17914786286E+01 -0.91101058189E+01  0.96168354925E+01  0.51100000000E-03 0.  1.
        -12    1    3    3    0    0 -0.17819213802E+02  0.13006369067E+02  0.24797638479E+02  0.33190554243E+02  0.00000000000E+00 0.  1.
</event>
<event>
 7    1  0.1284777E-011  0.5930193E+02  0.7816164E-02  0.1266605E+00
        -11   -1    0    0    0    0  0.00000000000E+00  0.00000000000E+00  0.45593999997E+02  0.45594000000E+02  0.51100000000E-03 0.  1.
         11   -1    0    0    0    0 -0.00000000000E+00 -0.00000000000E+00 -0.45593999997E+02  0.45594000000E+02  0.51100000000E-03 0. -1.
    9900012    2    1    2    0    0  0.64266492402E+01  0.23011697444E+02 -0.21115897139E+02  0.59301934836E+02  0.49999983236E+02 0.  0.
        -12    1    1    2    0    0 -0.64266492402E+01 -0.23011697444E+02  0.21115897139E+02  0.31886065164E+02  0.00000000000E+00 0.  1.
         11    1    3    3    0    0 -0.37175270315E+01  0.20155291365E+02 -0.25373684024E+02  0.32617167542E+02  0.51100000000E-03 0. -1.
        -11    1    3    3    0    0 -0.41347619509E+01  0.36314768478E+01 -0.66991877756E+01  0.86696596012E+01  0.51100000000E-03 0.  1.
        -12    1    3    3    0    0  0.14278938223E+02 -0.77507076948E+00  0.10956974661E+02  0.18015107693E+02  0.00000000000E+00 0.  1.
</event>
<event>
 7    1  0.1284777E-011  0.5930196E+02  0.7816164E-02  0.1266605E+00
        -11   -1    0    0    0    0  0.00000000000E+00  0.00000000000E+00  0.45593999997E+02  0.45594000000E+02  0.51100000000E-03 0.  1.
         11   -1    0    0    0    0 -0.00000000000E+00 -0.00000000000E+00 -0.45593999997E+02  0.45594000000E+02  0.51100000000E-03 0. -1.
    9900012    2    1    2    0    0  0.32166909222E+01  0.24998695215E+02 -0.19530428804E+02  0.59301960544E+02  0.50000030121E+02 0.  0.
        -12    1    1    2    0    0 -0.32166909222E+01 -0.24998695215E+02  0.19530428804E+02  0.31886039456E+02  0.00000000000E+00 0.  1.
         11    1    3    3    0    0 -0.13620798459E+02  0.16026035766E+02 -0.87990337915E+01  0.22798749285E+02  0.51100000000E-03 0. -1.
        -11    1    3    3    0    0  0.61876883547E+01  0.12965480274E+02  0.65706522537E+01  0.15797614922E+02  0.51100000000E-03 0.  1.
        -12    1    3    3    0    0  0.10649801026E+02 -0.39928208256E+01 -0.17302047267E+02  0.20705596337E+02  0.00000000000E+00 0.  1.
</event>
<event>
 7    1  0.1284777E-011  0.5930195E+02  0.7816164E-02  0.1266605E+00
        -11   -1    0    0    0    0  0.00000000000E+00  0.00000000000E+00  0.45593999997E+02  0.45594000000E+02  0.51100000000E-03 0.  1.
         11   -1    0    0    0    0 -0.00000000000E+00 -0.00000000000E+00 -0.45593999997E+02  0.45594000000E+02  0.51100000000E-03 0. -1.
    9900012    2    1    2    0    0 -0.68362743390E+01 -0.30480243854E+02 -0.63984592545E+01  0.59301949867E+02  0.50000010650E+02 0.  0.
        -12    1    1    2    0    0  0.68362743390E+01  0.30480243854E+02  0.63984592545E+01  0.31886050133E+02  0.00000000000E+00 0.  1.
         11    1    3    3    0    0 -0.30946467591E+01 -0.25123814828E+02 -0.15696579136E+02  0.29785323683E+02  0.51100000000E-03 0. -1.
        -11    1    3    3    0    0  0.25738986109E+00  0.79762803829E+01 -0.51153388771E+01  0.94791344740E+01  0.51100000000E-03 0.  1.
        -12    1    3    3    0    0 -0.39990174409E+01 -0.13332709408E+02  0.14413458758E+02  0.20037491710E+02  0.00000000000E+00 0.  1.
</event>
<event>
 7    1  0.1284777E-011  0.5930192E+02  0.7816164E-02  0.1266605E+00
        -11   -1    0    0    0    0  0.00000000000E+00  0.00000000000E+00  0.45593999997E+02  0.45594000000E+02  0.51100000000E-03 0.  1.
         11   -1    0    0    0    0 -0.00000000000E+00 -0.00000000000E+00 -0.45593999997E+02  0.45594000000E+02  0.51100000000E-03 0. -1.
    9900012    2    1    2    0    0  0.16458823589E+02 -0.25936396671E+02  0.85517453551E+01  0.59301923182E+02  0.49999961982E+02 0.  0.
        -12    1    1    2    0    0 -0.16458823589E+02  0.25936396671E+02 -0.85517453551E+01  0.31886076818E+02  0.00000000000E+00 0.  1.
         11    1    3    3    0    0 -0.32595299147E+01 -0.88816096138E+01 -0.10085872516E+02  0.13828678508E+02  0.51100000000E-03 0.  1.
        -11    1    3    3    0    0 -0.43503326890E+01  0.16311381294E+01 -0.50620037727E+01  0.68709452449E+01  0.51100000000E-03 0. -1.
        -12    1    3    3    0    0  0.24068686193E+02 -0.18685925187E+02  0.23699621644E+02  0.38602299429E+02  0.00000000000E+00 0.  1.
</event>
<event>
 7    1  0.1284777E-011  0.5930195E+02  0.7816164E-02  0.1266605E+00
        -11   -1    0    0    0    0  0.00000000000E+00  0.00000000000E+00  0.45593999997E+02  0.45594000000E+02  0.51100000000E-03 0.  1.
         11   -1    0    0    0    0 -0.00000000000E+00 -0.00000000000E+00 -0.45593999997E+02  0.45594000000E+02  0.51100000000E-03 0. -1.
    9900012    2    1    2    0    0 -0.60916191634E+00  0.22408936711E+02 -0.22675731354E+02  0.59301947952E+02  0.50000007157E+02 0.  0.
        -12    1    1    2    0    0  0.60916191634E+00 -0.22408936711E+02  0.22675731354E+02  0.31886052048E+02  0.00000000000E+00 0.  1.
         11    1    3    3    0    0 -0.30021867502E+01  0.82377411623E+01  0.55316899992E+01  0.10366923326E+02  0.51100000000E-03 0. -1.
        -11    1    3    3    0    0 -0.22397311267E+01  0.71878083518E+01  0.84584106058E+01  0.11323678495E+02  0.51100000000E-03 0.  1.
         12    1    3    3    0    0  0.46327559606E+01  0.69833871972E+01 -0.36665831959E+02  0.37611346131E+02  0.00000000000E+00 0. -1.
</event>
<event>
 7    1  0.1284777E-011  0.5930193E+02  0.7816164E-02  0.1266605E+00
        -11   -1    0    0    0    0  0.00000000000E+00  0.00000000000E+00  0.45593999997E+02  0.45594000000E+02  0.51100000000E-03 0. -1.
         11   -1    0    0    0    0 -0.00000000000E+00 -0.00000000000E+00 -0.45593999997E+02  0.45594000000E+02  0.51100000000E-03 0.  1.
    9900012    2    1    2    0    0  0.80550414443E+01 -0.29294223324E+02  0.96791625259E+01  0.59301930941E+02  0.49999976134E+02 0.  0.
        -12    1    1    2    0    0 -0.80550414443E+01  0.29294223324E+02 -0.96791625259E+01  0.31886069059E+02  0.00000000000E+00 0.  1.
         11    1    3    3    0    0  0.17167539712E+01  0.44111001747E+01 -0.67728675142E+01  0.82629766776E+01  0.51100000000E-03 0. -1.
        -11    1    3    3    0    0  0.58842185609E+01  0.19811736689E+01 -0.61947697047E+01  0.87706470191E+01  0.51100000000E-03 0.  1.
         12    1    3    3    0    0  0.45406891223E+00 -0.35686497167E+02  0.22646799745E+02  0.42268307245E+02  0.00000000000E+00 0. -1.
</event>
<event>
 7    1  0.1284777E-011  0.5930176E+02  0.7816164E-02  0.1266605E+00
        -11   -1    0    0    0    0  0.00000000000E+00  0.00000000000E+00  0.45593999997E+02  0.45594000000E+02  0.51100000000E-03 0. -1.
         11   -1    0    0    0    0 -0.00000000000E+00 -0.00000000000E+00 -0.45593999997E+02  0.45594000000E+02  0.51100000000E-03 0.  1.
    9900012    2    1    2    0    0 -0.18622833396E+02  0.89682134629E+00  0.25867316092E+02  0.59301760741E+02  0.49999665729E+02 0.  0.
        -12    1    1    2    0    0  0.18622833396E+02 -0.89682134629E+00 -0.25867316092E+02  0.31886239259E+02  0.00000000000E+00 0.  1.
         11    1    3    3    0    0  0.10488784447E+02 -0.93598646453E+01  0.87052566664E+01  0.16534907294E+02  0.51100000000E-03 0. -1.
        -11    1    3    3    0    0  0.20715634600E+01 -0.36327393161E+01 -0.69903284693E+00  0.42399076983E+01  0.51100000000E-03 0.  1.
         12    1    3    3    0    0 -0.31183181303E+02  0.13889425308E+02  0.17861092273E+02  0.38526945749E+02  0.00000000000E+00 0. -1.
</event>
<event>
 7    1  0.1284777E-011  0.5930232E+02  0.7816164E-02  0.1266603E+00
        -11   -1    0    0    0    0  0.00000000000E+00  0.00000000000E+00  0.45593999997E+02  0.45594000000E+02  0.51100000000E-03 0.  1.
         11   -1    0    0    0    0 -0.00000000000E+00 -0.00000000000E+00 -0.45593999997E+02  0.45594000000E+02  0.51100000000E-03 0. -1.
    9900012    2    1    2    0    0  0.16852398707E+02 -0.23066843247E+02  0.14163825808E+02  0.59302320438E+02  0.50000686478E+02 0.  0.
        -12    1    1    2    0    0 -0.16852398707E+02  0.23066843247E+02 -0.14163825808E+02  0.31885679562E+02  0.00000000000E+00 0.  1.
         11    1    3    3    0    0  0.19751532473E+02 -0.16997404500E+02 -0.41639047876E+01  0.26388878303E+02  0.51100000000E-03 0.  1.
        -11    1    3    3    0    0  0.42241457752E+01 -0.39616426385E+01 -0.54804232930E+01  0.79732715780E+01  0.51100000000E-03 0. -1.
        -12    1    3    3    0    0 -0.71232795403E+01 -0.21077961085E+01  0.23808153889E+02  0.24940170557E+02  0.00000000000E+00 0.  1.
</event>
<event>
 7    1  0.1284777E-011  0.5930194E+02  0.7816164E-02  0.1266605E+00
        -11   -1    0    0    0    0  0.00000000000E+00  0.00000000000E+00  0.45593999997E+02  0.45594000000E+02  0.51100000000E-03 0.  1.
         11   -1    0    0    0    0 -0.00000000000E+00 -0.00000000000E+00 -0.45593999997E+02  0.45594000000E+02  0.51100000000E-03 0. -1.
    9900012    2    1    2    0    0 -0.46511372190E+01 -0.21709157464E+02 -0.22886677594E+02  0.59301943384E+02  0.49999998826E+02 0.  0.
        -12    1    1    2    0    0  0.46511372190E+01  0.21709157464E+02  0.22886677594E+02  0.31886056616E+02  0.00000000000E+00 0.  1.
         11    1    3    3    0    0 -0.92810203858E+00 -0.13902667651E+02 -0.40354209101E+01  0.14506211200E+02  0.51100000000E-03 0. -1.
        -11    1    3    3    0    0 -0.93373891353E+00 -0.31987166637E+01  0.12524912939E+02  0.12960598020E+02  0.51100000000E-03 0.  1.
         12    1    3    3    0    0 -0.27892962669E+01 -0.46077731499E+01 -0.31376169622E+02  0.31835134164E+02  0.00000000000E+00 0. -1.
</event>
<event>
 7    1  0.1284777E-011  0.5930205E+02  0.7816164E-02  0.1266604E+00
        -11   -1    0    0    0    0  0.00000000000E+00  0.00000000000E+00  0.45593999997E+02  0.45594000000E+02  0.51100000000E-03 0.  1.
         11   -1    0    0    0    0 -0.00000000000E+00 -0.00000000000E+00 -0.45593999997E+02  0.45594000000E+02  0.51100000000E-03 0. -1.
    9900012    2    1    2    0    0 -0.11142379640E+00 -0.30015560594E+02  0.10759533168E+02  0.59302049378E+02  0.50000192134E+02 0.  0.
        -12    1    1    2    0    0  0.11142379640E+00  0.30015560594E+02 -0.10759533168E+02  0.31885950622E+02  0.00000000000E+00 0.  1.
         11    1    3    3    0    0 -0.69078094530E+01  0.39596627888E+01 -0.15360777318E+01  0.81090255826E+01  0.51100000000E-03 0. -1.
        -11    1    3    3    0    0 -0.13641893888E+02 -0.20147478612E+02  0.10345507559E+02  0.26439585666E+02  0.51100000000E-03 0.  1.
        -12    1    3    3    0    0  0.20438279545E+02 -0.13827744771E+02  0.19501033406E+01  0.24753438130E+02  0.00000000000E+00 0.  1.
</event>
<event>
 7    1  0.1284777E-011  0.5930197E+02  0.7816164E-02  0.1266605E+00
        -11   -1    0    0    0    0  0.00000000000E+00  0.00000000000E+00  0.45593999997E+02  0.45594000000E+02  0.51100000000E-03 0. -1.
         11   -1    0    0    0    0 -0.00000000000E+00 -0.00000000000E+00 -0.45593999997E+02  0.45594000000E+02  0.51100000000E-03 0.  1.
    9900012    2    1    2    0    0  0.31142935035E+02  0.61398904649E+01 -0.30230050078E+01  0.59301965176E+02  0.50000038570E+02 0.  0.
        -12    1    1    2    0    0 -0.31142935035E+02 -0.61398904649E+01  0.30230050078E+01  0.31886034824E+02  0.00000000000E+00 0.  1.
         11    1    3    3    0    0  0.18943712331E+02 -0.69783593438E+01  0.11459274364E+02  0.23213718039E+02  0.51100000000E-03 0. -1.
        -11    1    3    3    0    0 -0.43687930506E+01  0.68158775858E+01  0.51830995325E+01  0.96128591485E+01  0.51100000000E-03 0.  1.
         12    1    3    3    0    0  0.16568015755E+02  0.63023722230E+01 -0.19665378904E+02  0.26475387988E+02  0.00000000000E+00 0. -1.
</event>
<event>
 7    1  0.1284777E-011  0.5930192E+02  0.7816164E-02  0.1266605E+00
        -11   -1    0    0    0    0  0.00000000000E+00  0.00000000000E+00  0.45593999997E+02  0.45594000000E+02  0.51100000000E-03 0. -1.
         11   -1    0    0    0    0 -0.00000000000E+00 -0.00000000000E+00 -0.45593999997E+02  0.45594000000E+02  0.51100000000E-03 0.  1.
    9900012    2    1    2    0    0  0.29422471127E+02 -0.20391684493E+01  0.12119504434E+02  0.59301915215E+02  0.49999947453E+02 0.  0.
        -12    1    1    2    0    0 -0.29422471127E+02  0.20391684493E+01 -0.12119504434E+02  0.31886084785E+02  0.00000000000E+00 0.  1.
         11    1    3    3    0    0  0.13300378737E+02 -0.53114273666E+01  0.16205587853E+02  0.21627122166E+02  0.51100000000E-03 0. -1.
        -11    1    3    3    0    0  0.18050416453E+01 -0.13360797036E+02  0.43446567048E+01  0.14164925517E+02  0.51100000000E-03 0.  1.
        -12    1    3    3    0    0  0.14317050744E+02  0.16633055953E+02 -0.84307401243E+01  0.23509867532E+02  0.00000000000E+00 0.  1.
</event>
<event>
 7    1  0.1284777E-011  0.5930194E+02  0.7816164E-02  0.1266605E+00
        -11   -1    0    0    0    0  0.00000000000E+00  0.00000000000E+00  0.45593999997E+02  0.45594000000E+02  0.51100000000E-03 0. -1.
         11   -1    0    0    0    0 -0.00000000000E+00 -0.00000000000E+00 -0.45593999997E+02  0.45594000000E+02  0.51100000000E-03 0.  1.
    9900012    2    1    2    0    0  0.17452509294E+02  0.23834946344E+02 -0.12001086138E+02  0.59301940094E+02  0.49999992825E+02 0.  0.
        -12    1    1    2    0    0 -0.17452509294E+02 -0.23834946344E+02  0.12001086138E+02  0.31886059906E+02  0.00000000000E+00 0.  1.
         11    1    3    3    0    0  0.81025649106E+01  0.16034315414E+01  0.39673889883E+01  0.91631177273E+01  0.51100000000E-03 0. -1.
        -11    1    3    3    0    0  0.13941168369E+02 -0.57277013452E+01  0.38572424661E+01  0.15557668781E+02  0.51100000000E-03 0.  1.
        -12    1    3    3    0    0 -0.45912239850E+01  0.27959216147E+02 -0.19825717593E+02  0.34581153586E+02  0.00000000000E+00 0.  1.
</event>
<event>
 7    1  0.1284777E-011  0.5930193E+02  0.7816164E-02  0.1266605E+00
        -11   -1    0    0    0    0  0.00000000000E+00  0.00000000000E+00  0.45593999997E+02  0.45594000000E+02  0.51100000000E-03 0.  1.
         11   -1    0    0    0    0 -0.00000000000E+00 -0.00000000000E+00 -0.45593999997E+02  0.45594000000E+02  0.51100000000E-03 0. -1.
    9900012    2    1    2    0    0 -0.23733376882E+02 -0.17006855792E+02 -0.12814639543E+02  0.59301932373E+02  0.49999978744E+02 0.  0.
        -12    1    1    2    0    0  0.23733376882E+02  0.17006855792E+02  0.12814639543E+02  0.31886067627E+02  0.00000000000E+00 0.  1.
         11    1    3    3    0    0 -0.78270864153E+01  0.10187849852E+02 -0.92169219694E+01  0.15811616527E+02  0.51100000000E-03 0. -1.
        -11    1    3    3    0    0 -0.11396562782E+01 -0.19374238026E+01  0.10694960477E+02  0.10928614153E+02  0.51100000000E-03 0.  1.
        -12    1    3    3    0    0 -0.14766634188E+02 -0.25257281841E+02 -0.14292678051E+02  0.32561701692E+02  0.00000000000E+00 0.  1.
</event>
<event>
 7    1  0.1284777E-011  0.5930191E+02  0.7816164E-02  0.1266605E+00
        -11   -1    0    0    0    0  0.00000000000E+00  0.00000000000E+00  0.45593999997E+02  0.45594000000E+02  0.51100000000E-03 0.  1.
         11   -1    0    0    0    0 -0.00000000000E+00 -0.00000000000E+00 -0.45593999997E+02  0.45594000000E+02  0.51100000000E-03 0. -1.
    9900012    2    1    2    0    0 -0.10491028116E+02  0.29960799578E+02 -0.30018893689E+01  0.59301913346E+02  0.49999944045E+02 0.  0.
        -12    1    1    2    0    0  0.10491028116E+02 -0.29960799578E+02  0.30018893689E+01  0.31886086654E+02  0.00000000000E+00 0.  1.
         11    1    3    3    0    0  0.13038917008E+01  0.15595898555E+02 -0.72766578611E+01  0.17259256507E+02  0.51100000000E-03 0. -1.
        -11    1    3    3    0    0  0.81660964296E+01 -0.39317692815E+01  0.10890309959E+02  0.14168372943E+02  0.51100000000E-03 0.  1.
         12    1    3    3    0    0 -0.19961016246E+02  0.18296670305E+02 -0.66155414669E+01  0.27874283896E+02  0.00000000000E+00 0. -1.
</event>
<event>
 7    1  0.1284777E-011  0.5930195E+02  0.7816164E-02  0.1266605E+00
        -11   -1    0    0    0    0  0.00000000000E+00  0.00000000000E+00  0.45593999997E+02  0.45594000000E+02  0.51100000000E-03 0.  1.
         11   -1    0    0    0    0 -0.00000000000E+00 -0.00000000000E+00 -0.45593999997E+02  0.45594000000E+02  0.51100000000E-03 0. -1.
    9900012    2    1    2    0    0 -0.12842241642E+02  0.84767084473E+01 -0.27927447716E+02  0.59301951446E+02  0.50000013529E+02 0.  0.
        -12    1    1    2    0    0  0.12842241642E+02 -0.84767084473E+01  0.27927447716E+02  0.31886048554E+02  0.00000000000E+00 0.  1.
         11    1    3    3    0    0 -0.17814839796E+02 -0.46705345859E+01 -0.45636815747E+01  0.18973918943E+02  0.51100000000E-03 0. -1.
        -11    1    3    3    0    0 -0.10097290199E+02  0.86539798000E+01 -0.14805068958E+01  0.13380528266E+02  0.51100000000E-03 0.  1.
         12    1    3    3    0    0  0.15069888353E+02  0.44932632332E+01 -0.21883259245E+02  0.26947504238E+02  0.00000000000E+00 0. -1.
</event>
<event>
 7    1  0.1284777E-011  0.5930195E+02  0.7816164E-02  0.1266605E+00
        -11   -1    0    0    0    0  0.00000000000E+00  0.00000000000E+00  0.45593999997E+02  0.45594000000E+02  0.51100000000E-03 0. -1.
         11   -1    0    0    0    0 -0.00000000000E+00 -0.00000000000E+00 -0.45593999997E+02  0.45594000000E+02  0.51100000000E-03 0.  1.
    9900012    2    1    2    0    0 -0.25325801720E+02  0.21608894776E+00  0.19372072883E+02  0.59301950778E+02  0.50000012311E+02 0.  0.
        -12    1    1    2    0    0  0.25325801720E+02 -0.21608894776E+00 -0.19372072883E+02  0.31886049222E+02  0.00000000000E+00 0.  1.
         11    1    3    3    0    0 -0.98205795416E+01  0.50879670102E+01  0.11902447909E+02  0.16248060109E+02  0.51100000000E-03 0. -1.
        -11    1    3    3    0    0  0.12118060654E+02  0.16928811627E+01  0.80657119004E+01  0.14654997420E+02  0.51100000000E-03 0.  1.
         12    1    3    3    0    0 -0.27623282833E+02 -0.65647592252E+01 -0.59608692625E+00  0.28398893249E+02  0.00000000000E+00 0. -1.
</event>
<event>
 7    1  0.1284777E-011  0.5930193E+02  0.7816164E-02  0.1266605E+00
        -11   -1    0    0    0    0  0.00000000000E+00  0.00000000000E+00  0.45593999997E+02  0.45594000000E+02  0.51100000000E-03 0. -1.
         11   -1    0    0    0    0 -0.00000000000E+00 -0.00000000000E+00 -0.45593999997E+02  0.45594000000E+02  0.51100000000E-03 0.  1.
    9900012    2    1    2    0    0 -0.30218796192E+02  0.34150132212E+01 -0.95856004816E+01  0.59301926313E+02  0.49999967692E+02 0.  0.
        -12    1    1    2    0    0  0.30218796192E+02 -0.34150132212E+01  0.95856004816E+01  0.31886073687E+02  0.00000000000E+00 0.  1.
         11    1    3    3    0    0 -0.65877076920E+01 -0.71001369635E+01  0.11394154230E+01  0.97523384531E+01  0.51100000000E-03 0. -1.
        -11    1    3    3    0    0 -0.20585157412E+02 -0.13172749003E+02 -0.65824596350E+01  0.25310053281E+02  0.51100000000E-03 0.  1.
         12    1    3    3    0    0 -0.30459310879E+01  0.23687899188E+02 -0.41425562695E+01  0.24239534579E+02  0.00000000000E+00 0. -1.
</event>
<event>
 7    1  0.1284777E-011  0.5930192E+02  0.7816164E-02  0.1266605E+00
        -11   -1    0    0    0    0  0.00000000000E+00  0.00000000000E+00  0.45593999997E+02  0.45594000000E+02  0.51100000000E-03 0.  1.
         11   -1    0    0    0    0 -0.00000000000E+00 -0.00000000000E+00 -0.45593999997E+02  0.45594000000E+02  0.51100000000E-03 0. -1.
    9900012    2    1    2    0    0 -0.70301567786E+01  0.30161098313E+02 -0.75899249283E+01  0.59301922847E+02  0.49999961372E+02 0.  0.
        -12    1    1    2    0    0  0.70301567786E+01 -0.30161098313E+02  0.75899249283E+01  0.31886077153E+02  0.00000000000E+00 0.  1.
         11    1    3    3    0    0 -0.26976753335E+02  0.17653063953E+02 -0.47782402426E+01  0.32591524473E+02  0.51100000000E-03 0. -1.
        -11    1    3    3    0    0  0.21122793559E+01  0.75298161339E+01  0.74474355827E+00  0.78558575800E+01  0.51100000000E-03 0.  1.
        -12    1    3    3    0    0  0.17834317200E+02  0.49782182265E+01 -0.35564282439E+01  0.18854540794E+02  0.00000000000E+00 0.  1.
</event>
<event>
 7    1  0.1284777E-011  0.5930195E+02  0.7816164E-02  0.1266605E+00
        -11   -1    0    0    0    0  0.00000000000E+00  0.00000000000E+00  0.45593999997E+02  0.45594000000E+02  0.51100000000E-03 0.  1.
         11   -1    0    0    0    0 -0.00000000000E+00 -0.00000000000E+00 -0.45593999997E+02  0.45594000000E+02  0.51100000000E-03 0. -1.
    9900012    2    1    2    0    0  0.90876485552E+01  0.29498566919E+02 -0.79980998043E+01  0.59301946512E+02  0.50000004531E+02 0.  0.
        -12    1    1    2    0    0 -0.90876485552E+01 -0.29498566919E+02  0.79980998043E+01  0.31886053488E+02  0.00000000000E+00 0.  1.
         11    1    3    3    0    0 -0.25933442921E+01  0.23547546509E+02 -0.15365965810E+02  0.28236948963E+02  0.51100000000E-03 0. -1.
        -11    1    3    3    0    0  0.13062972086E+02  0.14463632571E+02 -0.34880871900E+00  0.19492551774E+02  0.51100000000E-03 0.  1.
        -12    1    3    3    0    0 -0.13819792385E+01 -0.85126121605E+01  0.77166747251E+01  0.11572445775E+02  0.00000000000E+00 0.  1.
</event>
<event>
 7    1  0.1284777E-011  0.5930196E+02  0.7816164E-02  0.1266605E+00
        -11   -1    0    0    0    0  0.00000000000E+00  0.00000000000E+00  0.45593999997E+02  0.45594000000E+02  0.51100000000E-03 0. -1.
         11   -1    0    0    0    0 -0.00000000000E+00 -0.00000000000E+00 -0.45593999997E+02  0.45594000000E+02  0.51100000000E-03 0.  1.
    9900012    2    1    2    0    0 -0.29545843539E+02 -0.29986290627E+01  0.11609091247E+02  0.59301958441E+02  0.50000026287E+02 0.  0.
        -12    1    1    2    0    0  0.29545843539E+02  0.29986290627E+01 -0.11609091247E+02  0.31886041559E+02  0.00000000000E+00 0.  1.
         11    1    3    3    0    0  0.77430715996E-01 -0.58528069829E+00  0.21510435364E+02  0.21518535704E+02  0.51100000000E-03 0. -1.
        -11    1    3    3    0    0  0.25337290806E+01  0.13173399977E+01  0.17830036466E+01  0.33666407573E+01  0.51100000000E-03 0.  1.
         12    1    3    3    0    0 -0.32157003336E+02 -0.37306883622E+01 -0.11684347764E+02  0.34416781980E+02  0.00000000000E+00 0. -1.
</event>
<event>
 7    1  0.1284777E-011  0.5930183E+02  0.7816164E-02  0.1266605E+00
        -11   -1    0    0    0    0  0.00000000000E+00  0.00000000000E+00  0.45593999997E+02  0.45594000000E+02  0.51100000000E-03 0.  1.
         11   -1    0    0    0    0 -0.00000000000E+00 -0.00000000000E+00 -0.45593999997E+02  0.45594000000E+02  0.51100000000E-03 0. -1.
    9900012    2    1    2    0    0  0.25626190301E+02  0.46718752065E+01 -0.18390217258E+02  0.59301825283E+02  0.49999783438E+02 0.  0.
        -12    1    1    2    0    0 -0.25626190301E+02 -0.46718752065E+01  0.18390217258E+02  0.31886174717E+02  0.00000000000E+00 0.  1.
         11    1    3    3    0    0  0.15030836277E+02  0.12942585509E+02 -0.13207549003E+02  0.23830147078E+02  0.51100000000E-03 0. -1.
        -11    1    3    3    0    0 -0.22917946341E+01  0.47020317395E+01  0.10273665582E+02  0.11528643887E+02  0.51100000000E-03 0.  1.
         12    1    3    3    0    0  0.12887148658E+02 -0.12972742042E+02 -0.15456333838E+02  0.23943034317E+02  0.00000000000E+00 0. -1.
</event>
<event>
 7    1  0.1284777E-011  0.5930177E+02  0.7816164E-02  0.1266605E+00
        -11   -1    0    0    0    0  0.00000000000E+00  0.00000000000E+00  0.45593999997E+02  0.45594000000E+02  0.51100000000E-03 0.  1.
         11   -1    0    0    0    0 -0.00000000000E+00 -0.00000000000E+00 -0.45593999997E+02  0.45594000000E+02  0.51100000000E-03 0. -1.
    9900012    2    1    2    0    0  0.14664755669E+02 -0.19146276256E+02 -0.20858977234E+02  0.59301766536E+02  0.49999676296E+02 0.  0.
        -12    1    1    2    0    0 -0.14664755669E+02  0.19146276256E+02  0.20858977234E+02  0.31886233464E+02  0.00000000000E+00 0.  1.
         11    1    3    3    0    0  0.32969898926E+00  0.23667345801E+01  0.10718577544E+01  0.26189718026E+01  0.51100000000E-03 0. -1.
        -11    1    3    3    0    0  0.24962482651E+02 -0.19776858717E+02  0.44530021308E+00  0.31850399893E+02  0.51100000000E-03 0.  1.
         12    1    3    3    0    0 -0.10627425971E+02 -0.17361521192E+01 -0.22376135201E+02  0.24832394840E+02  0.00000000000E+00 0. -1.
</event>
<event>
 7    1  0.1284777E-011  0.5930193E+02  0.7816164E-02  0.1266605E+00
        -11   -1    0    0    0    0  0.00000000000E+00  0.00000000000E+00  0.45593999997E+02  0.45594000000E+02  0.51100000000E-03 0. -1.
         11   -1    0    0    0    0 -0.00000000000E+00 -0.00000000000E+00 -0.45593999997E+02  0.45594000000E+02  0.51100000000E-03 0.  1.
    9900012    2    1    2    0    0  0.42723861629E+01  0.29736775705E+02 -0.10686089802E+02  0.59301927365E+02  0.49999969610E+02 0.  0.
        -12    1    1    2    0    0 -0.42723861629E+01 -0.29736775705E+02  0.10686089802E+02  0.31886072635E+02  0.00000000000E+00 0.  1.
         11    1    3    3    0    0  0.13092264070E+02  0.53779633057E+01 -0.19382427452E+01  0.14285889997E+02  0.51100000000E-03 0. -1.
        -11    1    3    3    0    0 -0.49531922485E+01 -0.71462676708E+01  0.54308846419E+01  0.10251720018E+02  0.51100000000E-03 0.  1.
        -12    1    3    3    0    0 -0.38666856590E+01  0.31505080070E+02 -0.14178731698E+02  0.34764317350E+02  0.00000000000E+00 0.  1.
</event>
<event>
 7    1  0.1284777E-011  0.5930193E+02  0.7816164E-02  0.1266605E+00
        -11   -1    0    0    0    0  0.00000000000E+00  0.00000000000E+00  0.45593999997E+02  0.45594000000E+02  0.51100000000E-03 0.  1.
         11   -1    0    0    0    0 -0.00000000000E+00 -0.00000000000E+00 -0.45593999997E+02  0.45594000000E+02  0.51100000000E-03 0. -1.
    9900012    2    1    2    0    0 -0.20707332012E+02  0.17301767747E+02 -0.16987541736E+02  0.59301931874E+02  0.49999977835E+02 0.  0.
        -12    1    1    2    0    0  0.20707332012E+02 -0.17301767747E+02  0.16987541736E+02  0.31886068126E+02  0.00000000000E+00 0.  1.
         11    1    3    3    0    0 -0.21596841938E+02  0.25185721034E+01 -0.22820503978E+02  0.31520504267E+02  0.51100000000E-03 0. -1.
        -11    1    3    3    0    0 -0.28695856975E+01 -0.33401373149E+01 -0.47363881850E+01  0.64671796525E+01  0.51100000000E-03 0.  1.
        -12    1    3    3    0    0  0.37590956234E+01  0.18123332959E+02  0.10569350427E+02  0.21314247955E+02  0.00000000000E+00 0.  1.
</event>
<event>
 7    1  0.1284777E-011  0.5930212E+02  0.7816164E-02  0.1266604E+00
        -11   -1    0    0    0    0  0.00000000000E+00  0.00000000000E+00  0.45593999997E+02  0.45594000000E+02  0.51100000000E-03 0.  1.
         11   -1    0    0    0    0 -0.00000000000E+00 -0.00000000000E+00 -0.45593999997E+02  0.45594000000E+02  0.51100000000E-03 0. -1.
    9900012    2    1    2    0    0 -0.22568963079E+02  0.22513905759E+02 -0.68961131217E+00  0.59302115807E+02  0.50000313284E+02 0.  0.
        -12    1    1    2    0    0  0.22568963079E+02 -0.22513905759E+02  0.68961131217E+00  0.31885884193E+02  0.00000000000E+00 0.  1.
         11    1    3    3    0    0 -0.76497459998E+01  0.14085821178E+02 -0.40332203492E+01  0.16528636930E+02  0.51100000000E-03 0. -1.
        -11    1    3    3    0    0 -0.21541027258E+02  0.18042381332E+02 -0.48455534533E+01  0.28513554110E+02  0.51100000000E-03 0.  1.
        -12    1    3    3    0    0  0.66218101792E+01 -0.96142967508E+01  0.81891624903E+01  0.14259924767E+02  0.00000000000E+00 0.  1.
</event>
<event>
 7    1  0.1284777E-011  0.5930194E+02  0.7816164E-02  0.1266605E+00
        -11   -1    0    0    0    0  0.00000000000E+00  0.00000000000E+00  0.45593999997E+02  0.45594000000E+02  0.51100000000E-03 0.  1.
         11   -1    0    0    0    0 -0.00000000000E+00 -0.00000000000E+00 -0.45593999997E+02  0.45594000000E+02  0.51100000000E-03 0. -1.
    9900012    2    1    2    0    0  0.14191394766E+02 -0.14558346681E+02 -0.24563786025E+02  0.59301941489E+02  0.49999995369E+02 0.  0.
        -12    1    1    2    0    0 -0.14191394766E+02  0.14558346681E+02  0.24563786025E+02  0.31886058511E+02  0.00000000000E+00 0.  1.
         11    1    3    3    0    0 -0.80297796100E+01  0.63918036823E+01 -0.12628972601E+02  0.16273397436E+02  0.51100000000E-03 0.  1.
        -11    1    3    3    0    0 -0.14561081306E+01 -0.60907985595E+01 -0.13654308989E+02  0.15021925050E+02  0.51100000000E-03 0. -1.
        -12    1    3    3    0    0  0.23677282506E+02 -0.14859351804E+02  0.17194955648E+01  0.28006619002E+02  0.00000000000E+00 0.  1.
</event>
<event>
 7    1  0.1284777E-011  0.5930198E+02  0.7816164E-02  0.1266605E+00
        -11   -1    0    0    0    0  0.00000000000E+00  0.00000000000E+00  0.45593999997E+02  0.45594000000E+02  0.51100000000E-03 0.  1.
         11   -1    0    0    0    0 -0.00000000000E+00 -0.00000000000E+00 -0.45593999997E+02  0.45594000000E+02  0.51100000000E-03 0. -1.
    9900012    2    1    2    0    0  0.15312007417E+02  0.20966132425E+02 -0.18511677391E+02  0.59301976732E+02  0.50000059645E+02 0.  0.
        -12    1    1    2    0    0 -0.15312007417E+02 -0.20966132425E+02  0.18511677391E+02  0.31886023268E+02  0.00000000000E+00 0.  1.
         11    1    3    3    0    0  0.78706032266E+01 -0.28636467145E+00  0.91473471380E+01  0.12070723251E+02  0.51100000000E-03 0. -1.
        -11    1    3    3    0    0 -0.53939521466E+01  0.12877347300E+02  0.17476908747E+01  0.14070366622E+02  0.51100000000E-03 0.  1.
         12    1    3    3    0    0  0.12835356337E+02  0.83751497965E+01 -0.29406715404E+02  0.33160886859E+02  0.00000000000E+00 0. -1.
</event>
<event>
 7    1  0.1284777E-011  0.5930197E+02  0.7816164E-02  0.1266605E+00
        -11   -1    0    0    0    0  0.00000000000E+00  0.00000000000E+00  0.45593999997E+02  0.45594000000E+02  0.51100000000E-03 0. -1.
         11   -1    0    0    0    0 -0.00000000000E+00 -0.00000000000E+00 -0.45593999997E+02  0.45594000000E+02  0.51100000000E-03 0.  1.
    9900012    2    1    2    0    0  0.10534454671E+02  0.28539748514E+02  0.95512697768E+01  0.59301972734E+02  0.50000052353E+02 0.  0.
        -12    1    1    2    0    0 -0.10534454671E+02 -0.28539748514E+02 -0.95512697768E+01  0.31886027266E+02  0.00000000000E+00 0.  1.
         11    1    3    3    0    0  0.10678219453E+02  0.32116812211E+02 -0.60560269519E+01  0.34382982128E+02  0.51100000000E-03 0. -1.
        -11    1    3    3    0    0  0.89484498337E+01  0.12106528144E+01  0.59248689303E+01  0.10800208645E+02  0.51100000000E-03 0.  1.
        -12    1    3    3    0    0 -0.90922146156E+01 -0.47877165117E+01  0.96824277984E+01  0.14118781962E+02  0.00000000000E+00 0.  1.
</event>
<event>
 7    1  0.1284777E-011  0.5930200E+02  0.7816164E-02  0.1266605E+00
        -11   -1    0    0    0    0  0.00000000000E+00  0.00000000000E+00  0.45593999997E+02  0.45594000000E+02  0.51100000000E-03 0. -1.
         11   -1    0    0    0    0 -0.00000000000E+00 -0.00000000000E+00 -0.45593999997E+02  0.45594000000E+02  0.51100000000E-03 0.  1.
    9900012    2    1    2    0    0  0.41310845627E+01  0.31570686727E+02 -0.17154334214E+01  0.59302002573E+02  0.50000106772E+02 0.  0.
        -12    1    1    2    0    0 -0.41310845627E+01 -0.31570686727E+02  0.17154334214E+01  0.31885997427E+02  0.00000000000E+00 0.  1.
         11    1    3    3    0    0  0.19671842461E+02  0.13351389172E+02  0.36958799887E+01  0.24060351364E+02  0.51100000000E-03 0. -1.
        -11    1    3    3    0    0 -0.11026667098E+02  0.13459621598E+02  0.88668404409E+01  0.19528688141E+02  0.51100000000E-03 0.  1.
        -12    1    3    3    0    0 -0.45140907997E+01  0.47596759570E+01 -0.14278153851E+02  0.15712963067E+02  0.00000000000E+00 0.  1.
</event>
<event>
 7    1  0.1284777E-011  0.5930196E+02  0.7816164E-02  0.1266605E+00
        -11   -1    0    0    0    0  0.00000000000E+00  0.00000000000E+00  0.45593999997E+02  0.45594000000E+02  0.51100000000E-03 0.  1.
         11   -1    0    0    0    0 -0.00000000000E+00 -0.00000000000E+00 -0.45593999997E+02  0.45594000000E+02  0.51100000000E-03 0. -1.
    9900012    2    1    2    0    0 -0.24771209041E+02 -0.75402110749E+01 -0.18607841396E+02  0.59301963216E+02  0.50000034995E+02 0.  0.
        -12    1    1    2    0    0  0.24771209041E+02  0.75402110749E+01  0.18607841396E+02  0.31886036784E+02  0.00000000000E+00 0.  1.
         11    1    3    3    0    0 -0.62206363358E+01 -0.11152642083E+02  0.43435409006E+00  0.12777574323E+02  0.51100000000E-03 0. -1.
        -11    1    3    3    0    0 -0.18462998842E+02  0.67186960477E+01  0.65757343394E+01  0.20718674793E+02  0.51100000000E-03 0.  1.
         12    1    3    3    0    0 -0.87573863037E-01 -0.31062650397E+01 -0.25617929825E+02  0.25805714100E+02  0.00000000000E+00 0. -1.
</event>
<event>
 7    1  0.1284777E-011  0.5930192E+02  0.7816164E-02  0.1266605E+00
        -11   -1    0    0    0    0  0.00000000000E+00  0.00000000000E+00  0.45593999997E+02  0.45594000000E+02  0.51100000000E-03 0.  1.
         11   -1    0    0    0    0 -0.00000000000E+00 -0.00000000000E+00 -0.45593999997E+02  0.45594000000E+02  0.51100000000E-03 0. -1.
    9900012    2    1    2    0    0 -0.21324022374E+02 -0.23350099373E+02 -0.40964557715E+01  0.59301921207E+02  0.49999958380E+02 0.  0.
        -12    1    1    2    0    0  0.21324022374E+02  0.23350099373E+02  0.40964557715E+01  0.31886078793E+02  0.00000000000E+00 0.  1.
         11    1    3    3    0    0 -0.11975893882E+02 -0.24979124800E+00 -0.79457501835E+01  0.14374260891E+02  0.51100000000E-03 0. -1.
        -11    1    3    3    0    0  0.16331814486E+01 -0.30550974067E+02 -0.14724748877E+01  0.30630009478E+02  0.51100000000E-03 0.  1.
         12    1    3    3    0    0 -0.10981309940E+02  0.74506659416E+01  0.53217692996E+01  0.14297650837E+02  0.00000000000E+00 0. -1.
</event>
<event>
 7    1  0.1284777E-011  0.5930195E+02  0.7816164E-02  0.1266605E+00
        -11   -1    0    0    0    0  0.00000000000E+00  0.00000000000E+00  0.45593999997E+02  0.45594000000E+02  0.51100000000E-03 0.  1.
         11   -1    0    0    0    0 -0.00000000000E+00 -0.00000000000E+00 -0.45593999997E+02  0.45594000000E+02  0.51100000000E-03 0. -1.
    9900012    2    1    2    0    0 -0.18319709084E+02 -0.11801432031E+02 -0.23277346053E+02  0.59301946964E+02  0.50000005356E+02 0.  0.
        -12    1    1    2    0    0  0.18319709084E+02  0.11801432031E+02  0.23277346053E+02  0.31886053036E+02  0.00000000000E+00 0.  1.
         11    1    3    3    0    0  0.31488888280E+01 -0.85801408821E+01  0.52098987264E+01  0.10520330955E+02  0.51100000000E-03 0. -1.
        -11    1    3    3    0    0  0.67955888366E+01 -0.24512904046E+01  0.16991330350E+01  0.74213142782E+01  0.51100000000E-03 0.  1.
         12    1    3    3    0    0 -0.28264186749E+02 -0.77000074447E+00 -0.30186377815E+02  0.41360301731E+02  0.00000000000E+00 0. -1.
</event>
<event>
 7    1  0.1284777E-011  0.5930195E+02  0.7816164E-02  0.1266605E+00
        -11   -1    0    0    0    0  0.00000000000E+00  0.00000000000E+00  0.45593999997E+02  0.45594000000E+02  0.51100000000E-03 0. -1.
         11   -1    0    0    0    0 -0.00000000000E+00 -0.00000000000E+00 -0.45593999997E+02  0.45594000000E+02  0.51100000000E-03 0.  1.
    9900012    2    1    2    0    0  0.43596624740E+01 -0.36194312635E+01  0.31378550453E+02  0.59301947123E+02  0.50000005644E+02 0.  0.
        -12    1    1    2    0    0 -0.43596624740E+01  0.36194312635E+01 -0.31378550453E+02  0.31886052877E+02  0.00000000000E+00 0.  1.
         11    1    3    3    0    0 -0.22847728623E+01 -0.53880740882E+01  0.12982063536E+02  0.14240277501E+02  0.51100000000E-03 0. -1.
        -11    1    3    3    0    0 -0.11558137238E+01 -0.18439120178E+02  0.13424049814E+02  0.22837297825E+02  0.51100000000E-03 0.  1.
        -12    1    3    3    0    0  0.78002490602E+01  0.20207763003E+02  0.49724371037E+01  0.22224371796E+02  0.00000000000E+00 0.  1.
</event>
<event>
 7    1  0.1291702E-011  0.5930193E+02  0.7816164E-02  0.1266605E+00
        -11   -1    0    0    0    0  0.00000000000E+00  0.00000000000E+00  0.45593999997E+02  0.45594000000E+02  0.51100000000E-03 0. -1.
         11   -1    0    0    0    0 -0.00000000000E+00 -0.00000000000E+00 -0.45593999997E+02  0.45594000000E+02  0.51100000000E-03 0.  1.
    9900012    2    1    2    0    0  0.10360487134E+02  0.25379430119E+02  0.16286998164E+02  0.59301929749E+02  0.49999973960E+02 0.  0.
        -12    1    1    2    0    0 -0.10360487134E+02 -0.25379430119E+02 -0.16286998164E+02  0.31886070251E+02  0.00000000000E+00 0.  1.
         11    1    3    3    0    0 -0.88503948476E+01  0.48543748212E+01  0.97008530294E+01  0.14000035486E+02  0.51100000000E-03 0. -1.
        -11    1    3    3    0    0  0.10101428235E+02 -0.92376991789E+01  0.23676719238E+01  0.13891717284E+02  0.51100000000E-03 0.  1.
         12    1    3    3    0    0  0.91094537468E+01  0.29762754477E+02  0.42184732113E+01  0.31410176979E+02  0.00000000000E+00 0. -1.
</event>
<event>
 7    1  0.1284777E-011  0.5930195E+02  0.7816164E-02  0.1266605E+00
        -11   -1    0    0    0    0  0.00000000000E+00  0.00000000000E+00  0.45593999997E+02  0.45594000000E+02  0.51100000000E-03 0.  1.
         11   -1    0    0    0    0 -0.00000000000E+00 -0.00000000000E+00 -0.45593999997E+02  0.45594000000E+02  0.51100000000E-03 0. -1.
    9900012    2    1    2    0    0  0.31519540889E+02  0.47889096709E+01  0.55246793661E+00  0.59301947650E+02  0.50000006606E+02 0.  0.
        -12    1    1    2    0    0 -0.31519540889E+02 -0.47889096709E+01 -0.55246793661E+00  0.31886052350E+02  0.00000000000E+00 0.  1.
         11    1    3    3    0    0 -0.91447932521E+00  0.18806151296E+01  0.57453440661E+01  0.61140791948E+01  0.51100000000E-03 0. -1.
        -11    1    3    3    0    0  0.32468214230E+02  0.98598326795E+01  0.10914466341E+02  0.35644449940E+02  0.51100000000E-03 0.  1.
         12    1    3    3    0    0 -0.34194016344E-01 -0.69515381382E+01 -0.16107342471E+02  0.17543418515E+02  0.00000000000E+00 0. -1.
</event>
<event>
 7    1  0.1284777E-011  0.5930195E+02  0.7816164E-02  0.1266605E+00
        -11   -1    0    0    0    0  0.00000000000E+00  0.00000000000E+00  0.45593999997E+02  0.45594000000E+02  0.51100000000E-03 0. -1.
         11   -1    0    0    0    0 -0.00000000000E+00 -0.00000000000E+00 -0.45593999997E+02  0.45594000000E+02  0.51100000000E-03 0.  1.
    9900012    2    1    2    0    0  0.29352908741E+01 -0.71377069306E+00  0.31742638389E+02  0.59301945164E+02  0.50000002073E+02 0.  0.
        -12    1    1    2    0    0 -0.29352908741E+01  0.71377069306E+00 -0.31742638389E+02  0.31886054836E+02  0.00000000000E+00 0.  1.
         11    1    3    3    0    0  0.21288467327E+02  0.23970950283E+00  0.15394606250E+02  0.26272613186E+02  0.51100000000E-03 0.  1.
        -11    1    3    3    0    0 -0.65501370009E+01  0.83440431006E+01  0.14389665547E+02  0.17877075399E+02  0.51100000000E-03 0. -1.
        -12    1    3    3    0    0 -0.11803039452E+02 -0.92975232965E+01  0.19583665922E+01  0.15152256580E+02  0.00000000000E+00 0.  1.
</event>
<event>
 7    1  0.1284777E-011  0.5930209E+02  0.7816164E-02  0.1266604E+00
        -11   -1    0    0    0    0  0.00000000000E+00  0.00000000000E+00  0.45593999997E+02  0.45594000000E+02  0.51100000000E-03 0.  1.
         11   -1    0    0    0    0 -0.00000000000E+00 -0.00000000000E+00 -0.45593999997E+02  0.45594000000E+02  0.51100000000E-03 0. -1.
    9900012    2    1    2    0    0  0.10723845622E+02 -0.27735933284E+02 -0.11507755811E+02  0.59302089257E+02  0.50000264863E+02 0.  0.
        -12    1    1    2    0    0 -0.10723845622E+02  0.27735933284E+02  0.11507755811E+02  0.31885910743E+02  0.00000000000E+00 0.  1.
         11    1    3    3    0    0 -0.50127318257E+01 -0.12779322366E+02 -0.52095809031E+01  0.14682584716E+02  0.51100000000E-03 0. -1.
        -11    1    3    3    0    0 -0.10252626902E+02 -0.14625719133E+02 -0.52088381876E+01  0.18605375945E+02  0.51100000000E-03 0.  1.
        -12    1    3    3    0    0  0.25989204350E+02 -0.33089178473E+00 -0.10893367207E+01  0.26014128596E+02  0.00000000000E+00 0.  1.
</event>
<event>
 7    1  0.1284777E-011  0.5930194E+02  0.7816164E-02  0.1266605E+00
        -11   -1    0    0    0    0  0.00000000000E+00  0.00000000000E+00  0.45593999997E+02  0.45594000000E+02  0.51100000000E-03 0. -1.
         11   -1    0    0    0    0 -0.00000000000E+00 -0.00000000000E+00 -0.45593999997E+02  0.45594000000E+02  0.51100000000E-03 0.  1.
    9900012    2    1    2    0    0  0.11253324045E+02  0.13833425728E+02  0.26433314189E+02  0.59301936141E+02  0.49999985616E+02 0.  0.
        -12    1    1    2    0    0 -0.11253324045E+02 -0.13833425728E+02 -0.26433314189E+02  0.31886063859E+02  0.00000000000E+00 0.  1.
         11    1    3    3    0    0 -0.10466555801E+02  0.23408362019E+01  0.16624819469E+02  0.19784158489E+02  0.51100000000E-03 0. -1.
        -11    1    3    3    0    0  0.84060807641E+01  0.10329018183E+02  0.19068606061E+02  0.23258601587E+02  0.51100000000E-03 0.  1.
        -12    1    3    3    0    0  0.13313799082E+02  0.11635713425E+01 -0.92601113409E+01  0.16259176065E+02  0.00000000000E+00 0.  1.
</event>
<event>
 7    1  0.1284777E-011  0.5930169E+02  0.7816164E-02  0.1266606E+00
        -11   -1    0    0    0    0  0.00000000000E+00  0.00000000000E+00  0.45593999997E+02  0.45594000000E+02  0.51100000000E-03 0. -1.
         11   -1    0    0    0    0 -0.00000000000E+00 -0.00000000000E+00 -0.45593999997E+02  0.45594000000E+02  0.51100000000E-03 0.  1.
    9900012    2    1    2    0    0  0.90983086215E+01 -0.44209308948E+01  0.30239258694E+02  0.59301692341E+02  0.49999540982E+02 0.  0.
        -12    1    1    2    0    0 -0.90983086215E+01  0.44209308948E+01 -0.30239258694E+02  0.31886307659E+02  0.00000000000E+00 0.  1.
         11    1    3    3    0    0 -0.15689799136E+01  0.26821684699E+01 -0.53553918221E+01  0.61916029831E+01  0.51100000000E-03 0. -1.
        -11    1    3    3    0    0  0.13207873862E+02  0.11724716046E+02  0.74838578832E+01  0.19181371884E+02  0.51100000000E-03 0.  1.
         12    1    3    3    0    0 -0.25405853264E+01 -0.18827815410E+02  0.28110792633E+02  0.33928717473E+02  0.00000000000E+00 0. -1.
</event>
<event>
 7    1  0.1284777E-011  0.5930189E+02  0.7816164E-02  0.1266605E+00
        -11   -1    0    0    0    0  0.00000000000E+00  0.00000000000E+00  0.45593999997E+02  0.45594000000E+02  0.51100000000E-03 0.  1.
         11   -1    0    0    0    0 -0.00000000000E+00 -0.00000000000E+00 -0.45593999997E+02  0.45594000000E+02  0.51100000000E-03 0. -1.
    9900012    2    1    2    0    0  0.24532777733E+02 -0.12650651038E+02 -0.15963337681E+02  0.59301885391E+02  0.49999893060E+02 0.  0.
        -12    1    1    2    0    0 -0.24532777733E+02  0.12650651038E+02  0.15963337681E+02  0.31886114609E+02  0.00000000000E+00 0.  1.
         11    1    3    3    0    0  0.84591928046E+01 -0.12130824862E+02 -0.95315126678E+01  0.17594447668E+02  0.51100000000E-03 0. -1.
        -11    1    3    3    0    0  0.17950731098E+02 -0.13623943842E+02  0.62387958583E+01  0.23382967450E+02  0.51100000000E-03 0.  1.
        -12    1    3    3    0    0 -0.18771461700E+01  0.13104117665E+02 -0.12670620871E+02  0.18324470273E+02  0.00000000000E+00 0.  1.
</event>
<event>
 7    1  0.1284777E-011  0.5930194E+02  0.7816164E-02  0.1266605E+00
        -11   -1    0    0    0    0  0.00000000000E+00  0.00000000000E+00  0.45593999997E+02  0.45594000000E+02  0.51100000000E-03 0.  1.
         11   -1    0    0    0    0 -0.00000000000E+00 -0.00000000000E+00 -0.45593999997E+02  0.45594000000E+02  0.51100000000E-03 0. -1.
    9900012    2    1    2    0    0  0.10231609065E+02 -0.20220311102E+02 -0.22431547499E+02  0.59301935202E+02  0.49999983904E+02 0.  0.
        -12    1    1    2    0    0 -0.10231609065E+02  0.20220311102E+02  0.22431547499E+02  0.31886064798E+02  0.00000000000E+00 0.  1.
         11    1    3    3    0    0  0.46285334488E+01  0.96683248568E+01  0.74681428690E+00  0.10745117927E+02  0.51100000000E-03 0. -1.
        -11    1    3    3    0    0  0.91885096726E+01  0.15069095662E+01 -0.11663976629E+02  0.14924739110E+02  0.51100000000E-03 0.  1.
         12    1    3    3    0    0 -0.35854340561E+01 -0.31395545525E+02 -0.11514385157E+02  0.33632078165E+02  0.00000000000E+00 0. -1.
</event>
<event>
 7    1  0.1284777E-011  0.5930197E+02  0.7816164E-02  0.1266605E+00
        -11   -1    0    0    0    0  0.00000000000E+00  0.00000000000E+00  0.45593999997E+02  0.45594000000E+02  0.51100000000E-03 0. -1.
         11   -1    0    0    0    0 -0.00000000000E+00 -0.00000000000E+00 -0.45593999997E+02  0.45594000000E+02  0.51100000000E-03 0.  1.
    9900012    2    1    2    0    0 -0.70804044501E+00 -0.15906103647E+02  0.27626320966E+02  0.59301967562E+02  0.50000042921E+02 0.  0.
        -12    1    1    2    0    0  0.70804044501E+00  0.15906103647E+02 -0.27626320966E+02  0.31886032438E+02  0.00000000000E+00 0.  1.
         11    1    3    3    0    0 -0.29805461815E+01 -0.27564229563E+02  0.70766560329E+01  0.28613798556E+02  0.51100000000E-03 0. -1.
        -11    1    3    3    0    0  0.17589427794E+01 -0.45035233968E+01  0.10733220727E+02  0.11771900022E+02  0.51100000000E-03 0.  1.
        -12    1    3    3    0    0  0.51356295709E+00  0.16161649313E+02  0.98164442057E+01  0.18916268984E+02  0.00000000000E+00 0.  1.
</event>
<event>
 7    1  0.1284777E-011  0.5930194E+02  0.7816164E-02  0.1266605E+00
        -11   -1    0    0    0    0  0.00000000000E+00  0.00000000000E+00  0.45593999997E+02  0.45594000000E+02  0.51100000000E-03 0.  1.
         11   -1    0    0    0    0 -0.00000000000E+00 -0.00000000000E+00 -0.45593999997E+02  0.45594000000E+02  0.51100000000E-03 0. -1.
    9900012    2    1    2    0    0  0.20656453554E+02  0.20865069037E+02  0.12437067345E+02  0.59301939982E+02  0.49999992621E+02 0.  0.
        -12    1    1    2    0    0 -0.20656453554E+02 -0.20865069037E+02 -0.12437067345E+02  0.31886060018E+02  0.00000000000E+00 0.  1.
         11    1    3    3    0    0  0.78632986313E+01  0.15303255692E+02 -0.98006811521E+01  0.19800869967E+02  0.51100000000E-03 0. -1.
        -11    1    3    3    0    0 -0.90585999121E+01  0.24432369722E+01  0.11825427488E+02  0.15095309696E+02  0.51100000000E-03 0.  1.
        -12    1    3    3    0    0  0.21851754835E+02  0.31185763723E+01  0.10412321009E+02  0.24405760319E+02  0.00000000000E+00 0.  1.
</event>
<event>
 7    1  0.1284777E-011  0.5930198E+02  0.7816164E-02  0.1266605E+00
        -11   -1    0    0    0    0  0.00000000000E+00  0.00000000000E+00  0.45593999997E+02  0.45594000000E+02  0.51100000000E-03 0. -1.
         11   -1    0    0    0    0 -0.00000000000E+00 -0.00000000000E+00 -0.45593999997E+02  0.45594000000E+02  0.51100000000E-03 0.  1.
    9900012    2    1    2    0    0  0.17184676604E+02 -0.11931713997E+02  0.24063240776E+02  0.59301976956E+02  0.50000060053E+02 0.  0.
        -12    1    1    2    0    0 -0.17184676604E+02  0.11931713997E+02 -0.24063240776E+02  0.31886023044E+02  0.00000000000E+00 0.  1.
         11    1    3    3    0    0 -0.10128201110E+02  0.95708636469E+01  0.63425454257E+01  0.15310446480E+02  0.51100000000E-03 0. -1.
        -11    1    3    3    0    0  0.21768859029E+00 -0.10068750725E+02  0.89794458244E+00  0.10111055050E+02  0.51100000000E-03 0.  1.
         12    1    3    3    0    0  0.27095189124E+02 -0.11433826919E+02  0.16822750768E+02  0.33880475426E+02  0.00000000000E+00 0. -1.
</event>
<event>
 7    1  0.1284777E-011  0.5930196E+02  0.7816164E-02  0.1266605E+00
        -11   -1    0    0    0    0  0.00000000000E+00  0.00000000000E+00  0.45593999997E+02  0.45594000000E+02  0.51100000000E-03 0.  1.
         11   -1    0    0    0    0 -0.00000000000E+00 -0.00000000000E+00 -0.45593999997E+02  0.45594000000E+02  0.51100000000E-03 0. -1.
    9900012    2    1    2    0    0 -0.31851467040E+02 -0.99813542855E-01  0.14811126870E+01  0.59301959008E+02  0.50000027320E+02 0.  0.
        -12    1    1    2    0    0  0.31851467040E+02  0.99813542855E-01 -0.14811126870E+01  0.31886040992E+02  0.00000000000E+00 0.  1.
         11    1    3    3    0    0 -0.13055765589E+02 -0.18939609929E+02 -0.20930327637E+01  0.23098541638E+02  0.51100000000E-03 0. -1.
        -11    1    3    3    0    0 -0.27810270103E+01 -0.48783647953E+01 -0.36370341173E+01  0.66903342024E+01  0.51100000000E-03 0.  1.
        -12    1    3    3    0    0 -0.16014674441E+02  0.23718161182E+02  0.72111795680E+01  0.29513083168E+02  0.00000000000E+00 0.  1.
</event>
<event>
 7    1  0.1284777E-011  0.5930193E+02  0.7816164E-02  0.1266605E+00
        -11   -1    0    0    0    0  0.00000000000E+00  0.00000000000E+00  0.45593999997E+02  0.45594000000E+02  0.51100000000E-03 0. -1.
         11   -1    0    0    0    0 -0.00000000000E+00 -0.00000000000E+00 -0.45593999997E+02  0.45594000000E+02  0.51100000000E-03 0.  1.
    9900012    2    1    2    0    0 -0.46634380277E+01 -0.23293815524E+02  0.21269032234E+02  0.59301933637E+02  0.49999981050E+02 0.  0.
        -12    1    1    2    0    0  0.46634380277E+01  0.23293815524E+02 -0.21269032234E+02  0.31886066363E+02  0.00000000000E+00 0.  1.
         11    1    3    3    0    0  0.93916422574E+01 -0.22293470246E+02  0.11155226403E+02  0.26639084749E+02  0.51100000000E-03 0. -1.
        -11    1    3    3    0    0  0.57134934691E+01 -0.23967425739E-01 -0.51313675805E+01  0.76795517816E+01  0.51100000000E-03 0.  1.
         12    1    3    3    0    0 -0.19768573754E+02 -0.97637785261E+00  0.15245173412E+02  0.24983297107E+02  0.00000000000E+00 0. -1.
</event>
<event>
 7    1  0.1284777E-011  0.5930195E+02  0.7816164E-02  0.1266605E+00
        -11   -1    0    0    0    0  0.00000000000E+00  0.00000000000E+00  0.45593999997E+02  0.45594000000E+02  0.51100000000E-03 0. -1.
         11   -1    0    0    0    0 -0.00000000000E+00 -0.00000000000E+00 -0.45593999997E+02  0.45594000000E+02  0.51100000000E-03 0.  1.
    9900012    2    1    2    0    0 -0.80952031216E+01  0.13053520504E+02  0.27942683972E+02  0.59301948211E+02  0.50000007630E+02 0.  0.
        -12    1    1    2    0    0  0.80952031216E+01 -0.13053520504E+02 -0.27942683972E+02  0.31886051789E+02  0.00000000000E+00 0.  1.
         11    1    3    3    0    0 -0.20560107284E+01  0.91310834459E+01  0.21074938051E+02  0.23059854274E+02  0.51100000000E-03 0. -1.
        -11    1    3    3    0    0  0.75780480031E+01 -0.12232358525E+02  0.16885177362E+01  0.14488219319E+02  0.51100000000E-03 0.  1.
         12    1    3    3    0    0 -0.13617240396E+02  0.16154795583E+02  0.51792281842E+01  0.21753874618E+02  0.00000000000E+00 0. -1.
</event>
<event>
 7    1  0.1650185E-011  0.5930194E+02  0.7816164E-02  0.1266605E+00
        -11   -1    0    0    0    0  0.00000000000E+00  0.00000000000E+00  0.45593999997E+02  0.45594000000E+02  0.51100000000E-03 0. -1.
         11   -1    0    0    0    0 -0.00000000000E+00 -0.00000000000E+00 -0.45593999997E+02  0.45594000000E+02  0.51100000000E-03 0.  1.
    9900012    2    1    2    0    0  0.14298775250E+02  0.18438129181E+02  0.21732492304E+02  0.59301940301E+02  0.49999993204E+02 0.  0.
        -12    1    1    2    0    0 -0.14298775250E+02 -0.18438129181E+02 -0.21732492304E+02  0.31886059699E+02  0.00000000000E+00 0.  1.
         11    1    3    3    0    0 -0.30525816827E+01  0.36169532357E-01  0.10693862711E+02  0.11121072929E+02  0.51100000000E-03 0. -1.
        -11    1    3    3    0    0 -0.34432536847E+01 -0.14603408592E+01 -0.11213243079E+02  0.11820550409E+02  0.51100000000E-03 0.  1.
         12    1    3    3    0    0  0.20794610618E+02  0.19862300508E+02  0.22251872672E+02  0.36360316963E+02  0.00000000000E+00 0. -1.
</event>
<event>
 7    1  0.1284777E-011  0.5930206E+02  0.7816164E-02  0.1266604E+00
        -11   -1    0    0    0    0  0.00000000000E+00  0.00000000000E+00  0.45593999997E+02  0.45594000000E+02  0.51100000000E-03 0. -1.
         11   -1    0    0    0    0 -0.00000000000E+00 -0.00000000000E+00 -0.45593999997E+02  0.45594000000E+02  0.51100000000E-03 0.  1.
    9900012    2    1    2    0    0 -0.13588034713E+02  0.24526428396E+02  0.15183313516E+02  0.59302056599E+02  0.50000205303E+02 0.  0.
        -12    1    1    2    0    0  0.13588034713E+02 -0.24526428396E+02 -0.15183313516E+02  0.31885943401E+02  0.00000000000E+00 0.  1.
         11    1    3    3    0    0 -0.10178049133E+02  0.15300489580E+02  0.25422626012E+02  0.31368895090E+02  0.51100000000E-03 0. -1.
        -11    1    3    3    0    0 -0.13787280889E+02  0.39302466319E+01 -0.54831953842E+01  0.15349312192E+02  0.51100000000E-03 0.  1.
        -12    1    3    3    0    0  0.10377295309E+02  0.52956921838E+01 -0.47561171123E+01  0.12583849316E+02  0.00000000000E+00 0.  1.
</event>
<event>
 7    1  0.1284777E-011  0.5930157E+02  0.7816164E-02  0.1266606E+00
        -11   -1    0    0    0    0  0.00000000000E+00  0.00000000000E+00  0.45593999997E+02  0.45594000000E+02  0.51100000000E-03 0.  1.
         11   -1    0    0    0    0 -0.00000000000E+00 -0.00000000000E+00 -0.45593999997E+02  0.45594000000E+02  0.51100000000E-03 0. -1.
    9900012    2    1    2    0    0 -0.13491762817E+02 -0.25430534713E+02 -0.13711468122E+02  0.59301574710E+02  0.49999326449E+02 0.  0.
        -12    1    1    2    0    0  0.13491762817E+02  0.25430534713E+02  0.13711468122E+02  0.31886425290E+02  0.00000000000E+00 0.  1.
         11    1    3    3    0    0  0.36611068450E+01 -0.31363671455E+02 -0.17209362560E+02  0.35961726189E+02  0.51100000000E-03 0. -1.
        -11    1    3    3    0    0  0.21303287666E+00  0.91564602317E+00  0.51063865039E+01  0.51922031965E+01  0.51100000000E-03 0.  1.
        -12    1    3    3    0    0 -0.17365902539E+02  0.50174907192E+01 -0.16084920653E+01  0.18147645325E+02  0.00000000000E+00 0.  1.
</event>
<event>
 7    1  0.1284777E-011  0.5930193E+02  0.7816164E-02  0.1266605E+00
        -11   -1    0    0    0    0  0.00000000000E+00  0.00000000000E+00  0.45593999997E+02  0.45594000000E+02  0.51100000000E-03 0.  1.
         11   -1    0    0    0    0 -0.00000000000E+00 -0.00000000000E+00 -0.45593999997E+02  0.45594000000E+02  0.51100000000E-03 0. -1.
    9900012    2    1    2    0    0 -0.34698628268E+01  0.27306989976E+02 -0.16093779519E+02  0.59301931117E+02  0.49999976455E+02 0.  0.
        -12    1    1    2    0    0  0.34698628268E+01 -0.27306989976E+02  0.16093779519E+02  0.31886068883E+02  0.00000000000E+00 0.  1.
         11    1    3    3    0    0 -0.12945139139E+02  0.38631773534E+01 -0.80954666753E+01  0.15749201489E+02  0.51100000000E-03 0. -1.
        -11    1    3    3    0    0  0.37625598646E+01 -0.82377573186E+01 -0.68227789214E+01  0.11338774839E+02  0.51100000000E-03 0.  1.
         12    1    3    3    0    0  0.57127164480E+01  0.31681569941E+02 -0.11755339225E+01  0.32213954789E+02  0.00000000000E+00 0. -1.
</event>
<event>
 7    1  0.1284777E-011  0.5930195E+02  0.7816164E-02  0.1266605E+00
        -11   -1    0    0    0    0  0.00000000000E+00  0.00000000000E+00  0.45593999997E+02  0.45594000000E+02  0.51100000000E-03 0.  1.
         11   -1    0    0    0    0 -0.00000000000E+00 -0.00000000000E+00 -0.45593999997E+02  0.45594000000E+02  0.51100000000E-03 0. -1.
    9900012    2    1    2    0    0  0.47959202682E-01 -0.12811518937E+02 -0.29199024597E+02  0.59301947328E+02  0.50000006019E+02 0.  0.
        -12    1    1    2    0    0 -0.47959202682E-01  0.12811518937E+02  0.29199024597E+02  0.31886052672E+02  0.00000000000E+00 0.  1.
         11    1    3    3    0    0 -0.91190473982E+01  0.20882652064E+01  0.89082521819E+00  0.93974170309E+01  0.51100000000E-03 0. -1.
        -11    1    3    3    0    0 -0.44629389924E+01  0.94120151258E+01 -0.14847751052E+02  0.18137242479E+02  0.51100000000E-03 0.  1.
        -12    1    3    3    0    0  0.13629945593E+02 -0.24311799269E+02 -0.15242098763E+02  0.31767287818E+02  0.00000000000E+00 0.  1.
</event>
<event>
 7    1  0.1284777E-011  0.5930191E+02  0.7816164E-02  0.1266605E+00
        -11   -1    0    0    0    0  0.00000000000E+00  0.00000000000E+00  0.45593999997E+02  0.45594000000E+02  0.51100000000E-03 0.  1.
         11   -1    0    0    0    0 -0.00000000000E+00 -0.00000000000E+00 -0.45593999997E+02  0.45594000000E+02  0.51100000000E-03 0. -1.
    9900012    2    1    2    0    0  0.11739538409E+01  0.22031462299E+02 -0.23020842885E+02  0.59301910466E+02  0.49999938791E+02 0.  0.
        -12    1    1    2    0    0 -0.11739538409E+01 -0.22031462299E+02  0.23020842885E+02  0.31886089534E+02  0.00000000000E+00 0.  1.
         11    1    3    3    0    0 -0.36433084765E+01 -0.41790405825E+01 -0.19579528706E+02  0.20349349412E+02  0.51100000000E-03 0. -1.
        -11    1    3    3    0    0 -0.39579652816E+01 -0.47025053464E+01  0.17748209718E+01  0.63975804369E+01  0.51100000000E-03 0.  1.
        -12    1    3    3    0    0  0.87752275990E+01  0.30913008228E+02 -0.52161351502E+01  0.32554980617E+02  0.00000000000E+00 0.  1.
</event>
<event>
 7    1  0.1284777E-011  0.5930191E+02  0.7816164E-02  0.1266605E+00
        -11   -1    0    0    0    0  0.00000000000E+00  0.00000000000E+00  0.45593999997E+02  0.45594000000E+02  0.51100000000E-03 0. -1.
         11   -1    0    0    0    0 -0.00000000000E+00 -0.00000000000E+00 -0.45593999997E+02  0.45594000000E+02  0.51100000000E-03 0.  1.
    9900012    2    1    2    0    0  0.96928993039E+01  0.29957106819E+02 -0.50341095426E+01  0.59301908914E+02  0.49999935960E+02 0.  0.
        -12    1    1    2    0    0 -0.96928993039E+01 -0.29957106819E+02  0.50341095426E+01  0.31886091086E+02  0.00000000000E+00 0.  1.
         11    1    3    3    0    0  0.39323744471E+01 -0.33244915952E+01 -0.44715885861E+01  0.68198913410E+01  0.51100000000E-03 0.  1.
        -11    1    3    3    0    0  0.20692758090E+02  0.30564617240E+02 -0.33074076806E+01  0.37058399996E+02  0.51100000000E-03 0. -1.
         12    1    3    3    0    0 -0.14932233233E+02  0.27169811743E+01  0.27448867242E+01  0.15423617577E+02  0.00000000000E+00 0. -1.
</event>
<event>
 7    1  0.1284777E-011  0.5930161E+02  0.7816164E-02  0.1266606E+00
        -11   -1    0    0    0    0  0.00000000000E+00  0.00000000000E+00  0.45593999997E+02  0.45594000000E+02  0.51100000000E-03 0. -1.
         11   -1    0    0    0    0 -0.00000000000E+00 -0.00000000000E+00 -0.45593999997E+02  0.45594000000E+02  0.51100000000E-03 0.  1.
    9900012    2    1    2    0    0  0.31483685291E+02 -0.48992901575E+01 -0.12314930341E+01  0.59301606999E+02  0.49999385336E+02 0.  0.
        -12    1    1    2    0    0 -0.31483685291E+02  0.48992901575E+01  0.12314930341E+01  0.31886393001E+02  0.00000000000E+00 0.  1.
         11    1    3    3    0    0  0.18127743467E+02 -0.78133656862E+01 -0.87586326904E+01  0.21595773045E+02  0.51100000000E-03 0. -1.
        -11    1    3    3    0    0  0.13910294648E+02  0.17065604042E+02  0.81068905667E+00  0.22031530939E+02  0.51100000000E-03 0.  1.
        -12    1    3    3    0    0 -0.55435282395E+00 -0.14151528514E+02  0.67164505996E+01  0.15674303014E+02  0.00000000000E+00 0.  1.
</event>
<event>
 7    1  0.1284777E-011  0.5930196E+02  0.7816164E-02  0.1266605E+00
        -11   -1    0    0    0    0  0.00000000000E+00  0.00000000000E+00  0.45593999997E+02  0.45594000000E+02  0.51100000000E-03 0. -1.
         11   -1    0    0    0    0 -0.00000000000E+00 -0.00000000000E+00 -0.45593999997E+02  0.45594000000E+02  0.51100000000E-03 0.  1.
    9900012    2    1    2    0    0 -0.22630647409E+02 -0.13756211215E+02  0.17757818930E+02  0.59301957877E+02  0.50000025257E+02 0.  0.
        -12    1    1    2    0    0  0.22630647409E+02  0.13756211215E+02 -0.17757818930E+02  0.31886042123E+02  0.00000000000E+00 0.  1.
         11    1    3    3    0    0 -0.78341837315E+01  0.46560727273E+01  0.60950608762E+01  0.10963722695E+02  0.51100000000E-03 0. -1.
        -11    1    3    3    0    0 -0.10323590737E+02  0.70378622537E+01  0.17830307445E+02  0.21772181669E+02  0.51100000000E-03 0.  1.
         12    1    3    3    0    0 -0.44728729404E+01 -0.25450146196E+02 -0.61675493914E+01  0.26566053513E+02  0.00000000000E+00 0. -1.
</event>
<event>
 7    1  0.1284777E-011  0.5930219E+02  0.7816164E-02  0.1266604E+00
        -11   -1    0    0    0    0  0.00000000000E+00  0.00000000000E+00  0.45593999997E+02  0.45594000000E+02  0.51100000000E-03 0.  1.
         11   -1    0    0    0    0 -0.00000000000E+00 -0.00000000000E+00 -0.45593999997E+02  0.45594000000E+02  0.51100000000E-03 0. -1.
    9900012    2    1    2    0    0  0.31497192605E+01 -0.28639516117E+02 -0.13658789778E+02  0.59302185708E+02  0.50000440765E+02 0.  0.
        -12    1    1    2    0    0 -0.31497192605E+01  0.28639516117E+02  0.13658789778E+02  0.31885814292E+02  0.00000000000E+00 0.  1.
         11    1    3    3    0    0 -0.47677378361E+00 -0.32596428254E+01 -0.13483118286E+02  0.13879735717E+02  0.51100000000E-03 0. -1.
        -11    1    3    3    0    0 -0.19891637967E+01 -0.33195720402E+02 -0.65293909303E+01  0.33890198758E+02  0.51100000000E-03 0.  1.
        -12    1    3    3    0    0  0.56156568408E+01  0.78158471106E+01  0.63537194385E+01  0.11532251234E+02  0.00000000000E+00 0.  1.
</event>
<event>
 7    1  0.1284777E-011  0.5930193E+02  0.7816164E-02  0.1266605E+00
        -11   -1    0    0    0    0  0.00000000000E+00  0.00000000000E+00  0.45593999997E+02  0.45594000000E+02  0.51100000000E-03 0. -1.
         11   -1    0    0    0    0 -0.00000000000E+00 -0.00000000000E+00 -0.45593999997E+02  0.45594000000E+02  0.51100000000E-03 0.  1.
    9900012    2    1    2    0    0  0.93758196661E+01 -0.62521545410E+01  0.29828280060E+02  0.59301925889E+02  0.49999966920E+02 0.  0.
        -12    1    1    2    0    0 -0.93758196661E+01  0.62521545410E+01 -0.29828280060E+02  0.31886074111E+02  0.00000000000E+00 0.  1.
         11    1    3    3    0    0  0.15638201344E+02  0.59599616409E+01  0.30663038970E+02  0.34932741707E+02  0.51100000000E-03 0. -1.
        -11    1    3    3    0    0 -0.34350348660E+01  0.15303007940E+01  0.72564933828E+01  0.81730032134E+01  0.51100000000E-03 0.  1.
        -12    1    3    3    0    0 -0.28273468120E+01 -0.13742416976E+02 -0.80912522919E+01  0.16196180969E+02  0.00000000000E+00 0.  1.
</event>
<event>
 7    1  0.1284777E-011  0.5930194E+02  0.7816164E-02  0.1266605E+00
        -11   -1    0    0    0    0  0.00000000000E+00  0.00000000000E+00  0.45593999997E+02  0.45594000000E+02  0.51100000000E-03 0. -1.
         11   -1    0    0    0    0 -0.00000000000E+00 -0.00000000000E+00 -0.45593999997E+02  0.45594000000E+02  0.51100000000E-03 0.  1.
    9900012    2    1    2    0    0 -0.25776799831E+02 -0.12452676964E+02 -0.14043096046E+02  0.59301935338E+02  0.49999984152E+02 0.  0.
        -12    1    1    2    0    0  0.25776799831E+02  0.12452676964E+02  0.14043096046E+02  0.31886064662E+02  0.00000000000E+00 0.  1.
         11    1    3    3    0    0 -0.19189951276E+02 -0.14224337545E+02  0.12429725457E+01  0.23919259804E+02  0.51100000000E-03 0. -1.
        -11    1    3    3    0    0 -0.14330701821E+02 -0.41105524559E+01 -0.19698229291E+02  0.24703965140E+02  0.51100000000E-03 0.  1.
         12    1    3    3    0    0  0.77438532665E+01  0.58822130368E+01  0.44121606999E+01  0.10678710393E+02  0.00000000000E+00 0. -1.
</event>
<event>
 7    1  0.1284777E-011  0.5930194E+02  0.7816164E-02  0.1266605E+00
        -11   -1    0    0    0    0  0.00000000000E+00  0.00000000000E+00  0.45593999997E+02  0.45594000000E+02  0.51100000000E-03 0.  1.
         11   -1    0    0    0    0 -0.00000000000E+00 -0.00000000000E+00 -0.45593999997E+02  0.45594000000E+02  0.51100000000E-03 0. -1.
    9900012    2    1    2    0    0 -0.17036526413E+02 -0.18360032476E+02 -0.19732882453E+02  0.59301942316E+02  0.49999996878E+02 0.  0.
        -12    1    1    2    0    0  0.17036526413E+02  0.18360032476E+02  0.19732882453E+02  0.31886057684E+02  0.00000000000E+00 0.  1.
         11    1    3    3    0    0 -0.12911525873E+02  0.23442227706E+01 -0.59939563144E+01  0.14426724969E+02  0.51100000000E-03 0. -1.
        -11    1    3    3    0    0 -0.79942174970E+01  0.86712643310E+01 -0.90746007383E+01  0.14881085891E+02  0.51100000000E-03 0.  1.
        -12    1    3    3    0    0  0.38692169577E+01 -0.29375519577E+02 -0.46643254007E+01  0.29994131455E+02  0.00000000000E+00 0.  1.
</event>
<event>
 7    1  0.1299042E-011  0.5930187E+02  0.7816164E-02  0.1266605E+00
        -11   -1    0    0    0    0  0.00000000000E+00  0.00000000000E+00  0.45593999997E+02  0.45594000000E+02  0.51100000000E-03 0. -1.
         11   -1    0    0    0    0 -0.00000000000E+00 -0.00000000000E+00 -0.45593999997E+02  0.45594000000E+02  0.51100000000E-03 0.  1.
    9900012    2    1    2    0    0 -0.25758066212E+02  0.10023907964E+02  0.15898693240E+02  0.59301872098E+02  0.49999868817E+02 0.  0.
        -12    1    1    2    0    0  0.25758066212E+02 -0.10023907964E+02 -0.15898693240E+02  0.31886127902E+02  0.00000000000E+00 0.  1.
         11    1    3    3    0    0  0.83177060049E+01 -0.75317738278E+00  0.26492618267E+01  0.87618547033E+01  0.51100000000E-03 0. -1.
        -11    1    3    3    0    0 -0.95106284102E+01  0.23624119213E+01 -0.11194818786E+02  0.14878071473E+02  0.51100000000E-03 0.  1.
         12    1    3    3    0    0 -0.24565143806E+02  0.84146734253E+01  0.24444250200E+02  0.35661945922E+02  0.00000000000E+00 0. -1.
</event>
<event>
 7    1  0.1284777E-011  0.5930195E+02  0.7816164E-02  0.1266605E+00
        -11   -1    0    0    0    0  0.00000000000E+00  0.00000000000E+00  0.45593999997E+02  0.45594000000E+02  0.51100000000E-03 0.  1.
         11   -1    0    0    0    0 -0.00000000000E+00 -0.00000000000E+00 -0.45593999997E+02  0.45594000000E+02  0.51100000000E-03 0. -1.
    9900012    2    1    2    0    0 -0.21043068213E+02 -0.80614780244E+01 -0.22559299019E+02  0.59301951013E+02  0.50000012740E+02 0.  0.
        -12    1    1    2    0    0  0.21043068213E+02  0.80614780244E+01  0.22559299019E+02  0.31886048987E+02  0.00000000000E+00 0.  1.
         11    1    3    3    0    0  0.56477547104E+01 -0.84314227404E+01 -0.11712781929E+02  0.15497589602E+02  0.51100000000E-03 0. -1.
        -11    1    3    3    0    0 -0.28011052263E+01 -0.10361280034E+02 -0.13762736605E+02  0.17453229888E+02  0.51100000000E-03 0.  1.
        -12    1    3    3    0    0 -0.23889717697E+02  0.10731224750E+02  0.29162195142E+01  0.26351131523E+02  0.00000000000E+00 0.  1.
</event>
<event>
 7    1  0.1284777E-011  0.5930194E+02  0.7816164E-02  0.1266605E+00
        -11   -1    0    0    0    0  0.00000000000E+00  0.00000000000E+00  0.45593999997E+02  0.45594000000E+02  0.51100000000E-03 0. -1.
         11   -1    0    0    0    0 -0.00000000000E+00 -0.00000000000E+00 -0.45593999997E+02  0.45594000000E+02  0.51100000000E-03 0.  1.
    9900012    2    1    2    0    0 -0.22695147066E+02 -0.91865296996E+01  0.20426917701E+02  0.59301937292E+02  0.49999987715E+02 0.  0.
        -12    1    1    2    0    0  0.22695147066E+02  0.91865296996E+01 -0.20426917701E+02  0.31886062708E+02  0.00000000000E+00 0.  1.
         11    1    3    3    0    0  0.92259797759E+01  0.53531470989E+01  0.12176149911E+02  0.16187449262E+02  0.51100000000E-03 0. -1.
        -11    1    3    3    0    0 -0.39670128492E+01 -0.86215049809E+01 -0.59552937125E+01  0.11204153808E+02  0.51100000000E-03 0.  1.
         12    1    3    3    0    0 -0.27954113993E+02 -0.59181718176E+01  0.14206061503E+02  0.31910334222E+02  0.00000000000E+00 0. -1.
</event>
<event>
 7    1  0.1284777E-011  0.5930196E+02  0.7816164E-02  0.1266605E+00
        -11   -1    0    0    0    0  0.00000000000E+00  0.00000000000E+00  0.45593999997E+02  0.45594000000E+02  0.51100000000E-03 0.  1.
         11   -1    0    0    0    0 -0.00000000000E+00 -0.00000000000E+00 -0.45593999997E+02  0.45594000000E+02  0.51100000000E-03 0. -1.
    9900012    2    1    2    0    0 -0.22490904764E+02 -0.12627528824E+02  0.18746317646E+02  0.59301957496E+02  0.50000024562E+02 0.  0.
        -12    1    1    2    0    0  0.22490904764E+02  0.12627528824E+02 -0.18746317646E+02  0.31886042504E+02  0.00000000000E+00 0.  1.
         11    1    3    3    0    0  0.50861434939E+01  0.21610673574E+01 -0.56175987132E+01  0.78801321897E+01  0.51100000000E-03 0. -1.
        -11    1    3    3    0    0  0.45423827964E+01 -0.12185435236E+02  0.58778662599E+01  0.14271208266E+02  0.51100000000E-03 0.  1.
         12    1    3    3    0    0 -0.32119431054E+02 -0.26031609455E+01  0.18486050099E+02  0.37150617040E+02  0.00000000000E+00 0. -1.
</event>
<event>
 7    1  0.1284777E-011  0.5930206E+02  0.7816164E-02  0.1266604E+00
        -11   -1    0    0    0    0  0.00000000000E+00  0.00000000000E+00  0.45593999997E+02  0.45594000000E+02  0.51100000000E-03 0. -1.
         11   -1    0    0    0    0 -0.00000000000E+00 -0.00000000000E+00 -0.45593999997E+02  0.45594000000E+02  0.51100000000E-03 0.  1.
    9900012    2    1    2    0    0 -0.26724187214E+02  0.52544088032E+01  0.16580778230E+02  0.59302059511E+02  0.50000210614E+02 0.  0.
        -12    1    1    2    0    0  0.26724187214E+02 -0.52544088032E+01 -0.16580778230E+02  0.31885940489E+02  0.00000000000E+00 0.  1.
         11    1    3    3    0    0 -0.23950360526E+01  0.91625370379E+01  0.18249920384E+02  0.20560833567E+02  0.51100000000E-03 0. -1.
        -11    1    3    3    0    0 -0.11124824118E-01 -0.12774076649E+02  0.34913169545E+00  0.12778851717E+02  0.51100000000E-03 0.  1.
         12    1    3    3    0    0 -0.24318026337E+02  0.88659484140E+01 -0.20182738495E+01  0.25962374228E+02  0.00000000000E+00 0. -1.
</event>
<event>
 7    1  0.1284777E-011  0.5930191E+02  0.7816164E-02  0.1266605E+00
        -11   -1    0    0    0    0  0.00000000000E+00  0.00000000000E+00  0.45593999997E+02  0.45594000000E+02  0.51100000000E-03 0.  1.
         11   -1    0    0    0    0 -0.00000000000E+00 -0.00000000000E+00 -0.45593999997E+02  0.45594000000E+02  0.51100000000E-03 0. -1.
    9900012    2    1    2    0    0  0.30608033350E+02  0.29683812020E+01 -0.84297103601E+01  0.59301905707E+02  0.49999930111E+02 0.  0.
        -12    1    1    2    0    0 -0.30608033350E+02 -0.29683812020E+01  0.84297103601E+01  0.31886094293E+02  0.00000000000E+00 0.  1.
         11    1    3    3    0    0  0.32368240479E+02  0.50002951238E+01 -0.10035111900E+02  0.34255064065E+02  0.51100000000E-03 0. -1.
        -11    1    3    3    0    0  0.78102332292E+01 -0.75220479777E+01  0.68547113459E+01  0.12828406634E+02  0.51100000000E-03 0.  1.
        -12    1    3    3    0    0 -0.95704403575E+01  0.54901340559E+01 -0.52493098059E+01  0.12218435007E+02  0.00000000000E+00 0.  1.
</event>
<event>
 7    1  0.1284777E-011  0.5930193E+02  0.7816164E-02  0.1266605E+00
        -11   -1    0    0    0    0  0.00000000000E+00  0.00000000000E+00  0.45593999997E+02  0.45594000000E+02  0.51100000000E-03 0.  1.
         11   -1    0    0    0    0 -0.00000000000E+00 -0.00000000000E+00 -0.45593999997E+02  0.45594000000E+02  0.51100000000E-03 0. -1.
    9900012    2    1    2    0    0  0.64297207878E+00 -0.11123248983E+02 -0.29876102274E+02  0.59301928305E+02  0.49999971326E+02 0.  0.
        -12    1    1    2    0    0 -0.64297207878E+00  0.11123248983E+02  0.29876102274E+02  0.31886071695E+02  0.00000000000E+00 0.  1.
         11    1    3    3    0    0 -0.11407237915E+02  0.15496378466E+01 -0.85319801950E+00  0.11543587026E+02  0.51100000000E-03 0. -1.
        -11    1    3    3    0    0 -0.10843860362E+02  0.56932918456E+00 -0.47208813832E+01  0.11840615042E+02  0.51100000000E-03 0.  1.
         12    1    3    3    0    0  0.22894070356E+02 -0.13242216014E+02 -0.24302022871E+02  0.35917726237E+02  0.00000000000E+00 0. -1.
</event>
<event>
 7    1  0.1284777E-011  0.5930193E+02  0.7816164E-02  0.1266605E+00
        -11   -1    0    0    0    0  0.00000000000E+00  0.00000000000E+00  0.45593999997E+02  0.45594000000E+02  0.51100000000E-03 0. -1.
         11   -1    0    0    0    0 -0.00000000000E+00 -0.00000000000E+00 -0.45593999997E+02  0.45594000000E+02  0.51100000000E-03 0.  1.
    9900012    2    1    2    0    0 -0.16215893882E+02  0.24306296210E+02  0.12765990417E+02  0.59301925278E+02  0.49999965805E+02 0.  0.
        -12    1    1    2    0    0  0.16215893882E+02 -0.24306296210E+02 -0.12765990417E+02  0.31886074722E+02  0.00000000000E+00 0.  1.
         11    1    3    3    0    0 -0.10634951147E+02 -0.46215583761E+01 -0.67434958250E+00  0.11615323299E+02  0.51100000000E-03 0. -1.
        -11    1    3    3    0    0  0.24823931665E+01 -0.46565472596E+01 -0.60500482765E+01  0.80280005371E+01  0.51100000000E-03 0.  1.
         12    1    3    3    0    0 -0.80633359015E+01  0.33584401846E+02  0.19490388276E+02  0.39658601442E+02  0.00000000000E+00 0. -1.
</event>
<event>
 7    1  0.1284777E-011  0.5930195E+02  0.7816164E-02  0.1266605E+00
        -11   -1    0    0    0    0  0.00000000000E+00  0.00000000000E+00  0.45593999997E+02  0.45594000000E+02  0.51100000000E-03 0.  1.
         11   -1    0    0    0    0 -0.00000000000E+00 -0.00000000000E+00 -0.45593999997E+02  0.45594000000E+02  0.51100000000E-03 0. -1.
    9900012    2    1    2    0    0 -0.33690898661E+01 -0.27001615528E+02 -0.16621740052E+02  0.59301948974E+02  0.50000009021E+02 0.  0.
        -12    1    1    2    0    0  0.33690898661E+01  0.27001615528E+02  0.16621740052E+02  0.31886051026E+02  0.00000000000E+00 0.  1.
         11    1    3    3    0    0 -0.14605780258E+02 -0.12373156775E+02 -0.88470088574E+01  0.21087754540E+02  0.51100000000E-03 0. -1.
        -11    1    3    3    0    0 -0.19161086080E+01  0.74078104696E+01  0.54016297535E+01  0.93661482162E+01  0.51100000000E-03 0.  1.
         12    1    3    3    0    0  0.13152799000E+02 -0.22036269222E+02 -0.13176360949E+02  0.28848046218E+02  0.00000000000E+00 0. -1.
</event>
<event>
 7    1  0.1284777E-011  0.5930193E+02  0.7816164E-02  0.1266605E+00
        -11   -1    0    0    0    0  0.00000000000E+00  0.00000000000E+00  0.45593999997E+02  0.45594000000E+02  0.51100000000E-03 0. -1.
         11   -1    0    0    0    0 -0.00000000000E+00 -0.00000000000E+00 -0.45593999997E+02  0.45594000000E+02  0.51100000000E-03 0.  1.
    9900012    2    1    2    0    0  0.23240357264E+02  0.21612531113E+02  0.30831825518E+01  0.59301925900E+02  0.49999966939E+02 0.  0.
        -12    1    1    2    0    0 -0.23240357264E+02 -0.21612531113E+02 -0.30831825518E+01  0.31886074100E+02  0.00000000000E+00 0.  1.
         11    1    3    3    0    0  0.83267832724E+01  0.22079711913E+01  0.39879651734E+01  0.94928564159E+01  0.51100000000E-03 0. -1.
        -11    1    3    3    0    0  0.93463085625E+01  0.13522293800E+02 -0.21855602539E+02  0.27347271820E+02  0.51100000000E-03 0.  1.
         12    1    3    3    0    0  0.55672654293E+01  0.58822661216E+01  0.20950819918E+02  0.22461797664E+02  0.00000000000E+00 0. -1.
</event>
<event>
 7    1  0.1548954E-011  0.5930195E+02  0.7816164E-02  0.1266605E+00
        -11   -1    0    0    0    0  0.00000000000E+00  0.00000000000E+00  0.45593999997E+02  0.45594000000E+02  0.51100000000E-03 0. -1.
         11   -1    0    0    0    0 -0.00000000000E+00 -0.00000000000E+00 -0.45593999997E+02  0.45594000000E+02  0.51100000000E-03 0.  1.
    9900012    2    1    2    0    0 -0.27696282919E+02 -0.56342642289E+00  0.15789817775E+02  0.59301954742E+02  0.50000019540E+02 0.  0.
        -12    1    1    2    0    0  0.27696282919E+02  0.56342642289E+00 -0.15789817775E+02  0.31886045258E+02  0.00000000000E+00 0.  1.
         11    1    3    3    0    0 -0.85409762759E+01  0.78549220596E+01  0.13841261233E+02  0.18061799165E+02  0.51100000000E-03 0. -1.
        -11    1    3    3    0    0 -0.33832764432E+01 -0.27698857196E+00 -0.15787423376E+02  0.16148251276E+02  0.51100000000E-03 0.  1.
         12    1    3    3    0    0 -0.15772030200E+02 -0.81413599106E+01  0.17735979917E+02  0.25091904301E+02  0.00000000000E+00 0. -1.
</event>
<event>
 7    1  0.1284777E-011  0.5930195E+02  0.7816164E-02  0.1266605E+00
        -11   -1    0    0    0    0  0.00000000000E+00  0.00000000000E+00  0.45593999997E+02  0.45594000000E+02  0.51100000000E-03 0.  1.
         11   -1    0    0    0    0 -0.00000000000E+00 -0.00000000000E+00 -0.45593999997E+02  0.45594000000E+02  0.51100000000E-03 0. -1.
    9900012    2    1    2    0    0  0.22015624566E+02 -0.20738073688E+02  0.10097774700E+02  0.59301945380E+02  0.50000002467E+02 0.  0.
        -12    1    1    2    0    0 -0.22015624566E+02  0.20738073688E+02 -0.10097774700E+02  0.31886054620E+02  0.00000000000E+00 0.  1.
         11    1    3    3    0    0  0.16192063954E+02 -0.99036277736E+01  0.34622721181E+01  0.19293835975E+02  0.51100000000E-03 0. -1.
        -11    1    3    3    0    0  0.91454416173E+01 -0.14509922212E+02 -0.11865115837E+02  0.20855644777E+02  0.51100000000E-03 0.  1.
        -12    1    3    3    0    0 -0.33218810049E+01  0.36754762981E+01  0.18500618419E+02  0.19152464628E+02  0.00000000000E+00 0.  1.
</event>
<event>
 7    1  0.1284777E-011  0.5930192E+02  0.7816164E-02  0.1266605E+00
        -11   -1    0    0    0    0  0.00000000000E+00  0.00000000000E+00  0.45593999997E+02  0.45594000000E+02  0.51100000000E-03 0.  1.
         11   -1    0    0    0    0 -0.00000000000E+00 -0.00000000000E+00 -0.45593999997E+02  0.45594000000E+02  0.51100000000E-03 0. -1.
    9900012    2    1    2    0    0  0.57971163734E+01 -0.20493795440E+01 -0.31287629923E+02  0.59301916814E+02  0.49999950369E+02 0.  0.
        -12    1    1    2    0    0 -0.57971163734E+01  0.20493795440E+01  0.31287629923E+02  0.31886083186E+02  0.00000000000E+00 0.  1.
         11    1    3    3    0    0 -0.53685321712E+01 -0.47342964153E+00 -0.55105731318E+01  0.77078978847E+01  0.51100000000E-03 0. -1.
        -11    1    3    3    0    0 -0.13822258196E+02 -0.38373571952E+01  0.16293979345E+01  0.14437280553E+02  0.51100000000E-03 0.  1.
         12    1    3    3    0    0  0.24987906740E+02  0.22614072928E+01 -0.27406454725E+02  0.37156738377E+02  0.00000000000E+00 0. -1.
</event>
<event>
 7    1  0.1284777E-011  0.5930190E+02  0.7816164E-02  0.1266605E+00
        -11   -1    0    0    0    0  0.00000000000E+00  0.00000000000E+00  0.45593999997E+02  0.45594000000E+02  0.51100000000E-03 0.  1.
         11   -1    0    0    0    0 -0.00000000000E+00 -0.00000000000E+00 -0.45593999997E+02  0.45594000000E+02  0.51100000000E-03 0. -1.
    9900012    2    1    2    0    0  0.24171823834E+02 -0.20735267966E+02 -0.15795962734E+01  0.59301897549E+02  0.49999915234E+02 0.  0.
        -12    1    1    2    0    0 -0.24171823834E+02  0.20735267966E+02  0.15795962734E+01  0.31886102451E+02  0.00000000000E+00 0.  1.
         11    1    3    3    0    0 -0.98379102737E+00 -0.72560599339E+01 -0.19067731381E+01  0.75666395851E+01  0.51100000000E-03 0. -1.
        -11    1    3    3    0    0  0.17865119676E+01 -0.25028542922E+02 -0.36838897961E+01  0.25361203247E+02  0.51100000000E-03 0.  1.
        -12    1    3    3    0    0  0.23369102894E+02  0.11549334890E+02  0.40110666608E+01  0.26374054717E+02  0.00000000000E+00 0.  1.
</event>
<event>
 7    1  0.1284777E-011  0.5930195E+02  0.7816164E-02  0.1266605E+00
        -11   -1    0    0    0    0  0.00000000000E+00  0.00000000000E+00  0.45593999997E+02  0.45594000000E+02  0.51100000000E-03 0.  1.
         11   -1    0    0    0    0 -0.00000000000E+00 -0.00000000000E+00 -0.45593999997E+02  0.45594000000E+02  0.51100000000E-03 0. -1.
    9900012    2    1    2    0    0  0.21607936639E+01  0.15551151451E+02 -0.27752705423E+02  0.59301952910E+02  0.50000016200E+02 0.  0.
        -12    1    1    2    0    0 -0.21607936639E+01 -0.15551151451E+02  0.27752705423E+02  0.31886047090E+02  0.00000000000E+00 0.  1.
         11    1    3    3    0    0 -0.15823184435E+01  0.60445236791E+01  0.40981168892E+01  0.74722527034E+01  0.51100000000E-03 0. -1.
        -11    1    3    3    0    0  0.28165664286E+01  0.31480674090E+01  0.92820054327E+01  0.10197989997E+02  0.51100000000E-03 0.  1.
        -12    1    3    3    0    0  0.92654567879E+00  0.63585603633E+01 -0.41132827744E+02  0.41631710210E+02  0.00000000000E+00 0.  1.
</event>
<event>
 7    1  0.1284777E-011  0.5930194E+02  0.7816164E-02  0.1266605E+00
        -11   -1    0    0    0    0  0.00000000000E+00  0.00000000000E+00  0.45593999997E+02  0.45594000000E+02  0.51100000000E-03 0.  1.
         11   -1    0    0    0    0 -0.00000000000E+00 -0.00000000000E+00 -0.45593999997E+02  0.45594000000E+02  0.51100000000E-03 0. -1.
    9900012    2    1    2    0    0  0.13581360079E+02 -0.10313622449E+02 -0.26942475426E+02  0.59301935148E+02  0.49999983806E+02 0.  0.
        -12    1    1    2    0    0 -0.13581360079E+02  0.10313622449E+02  0.26942475426E+02  0.31886064852E+02  0.00000000000E+00 0.  1.
         11    1    3    3    0    0  0.27658680935E+01  0.10164921312E+02 -0.17417066418E+02  0.20355094067E+02  0.51100000000E-03 0. -1.
        -11    1    3    3    0    0 -0.10915500772E+01 -0.90682071334E+01 -0.18162933377E+02  0.20330174896E+02  0.51100000000E-03 0.  1.
        -12    1    3    3    0    0  0.11907042063E+02 -0.11410336628E+02  0.86375243688E+01  0.18616666186E+02  0.00000000000E+00 0.  1.
</event>
<event>
 7    1  0.1284777E-011  0.5930194E+02  0.7816164E-02  0.1266605E+00
        -11   -1    0    0    0    0  0.00000000000E+00  0.00000000000E+00  0.45593999997E+02  0.45594000000E+02  0.51100000000E-03 0. -1.
         11   -1    0    0    0    0 -0.00000000000E+00 -0.00000000000E+00 -0.45593999997E+02  0.45594000000E+02  0.51100000000E-03 0.  1.
    9900012    2    1    2    0    0 -0.13160797120E+02  0.57173934941E+01  0.28475001252E+02  0.59301939323E+02  0.49999991419E+02 0.  0.
        -12    1    1    2    0    0  0.13160797120E+02 -0.57173934941E+01 -0.28475001252E+02  0.31886060677E+02  0.00000000000E+00 0.  1.
         11    1    3    3    0    0 -0.36236158142E+01  0.35803584346E+01 -0.64595687450E+01  0.82265172899E+01  0.51100000000E-03 0. -1.
        -11    1    3    3    0    0 -0.11986526221E+02  0.12092180587E+01 -0.35048815658E+01  0.12546840806E+02  0.51100000000E-03 0.  1.
         12    1    3    3    0    0  0.24493449149E+01  0.92781700080E+00  0.38439451563E+02  0.38528581227E+02  0.00000000000E+00 0. -1.
</event>
<event>
 7    1  0.1284777E-011  0.5930203E+02  0.7816164E-02  0.1266604E+00
        -11   -1    0    0    0    0  0.00000000000E+00  0.00000000000E+00  0.45593999997E+02  0.45594000000E+02  0.51100000000E-03 0.  1.
         11   -1    0    0    0    0 -0.00000000000E+00 -0.00000000000E+00 -0.45593999997E+02  0.45594000000E+02  0.51100000000E-03 0. -1.
    9900012    2    1    2    0    0  0.19166584135E+02  0.25458457740E+02 -0.11063723967E+01  0.59302030080E+02  0.50000156938E+02 0.  0.
        -12    1    1    2    0    0 -0.19166584135E+02 -0.25458457740E+02  0.11063723967E+01  0.31885969920E+02  0.00000000000E+00 0.  1.
         11    1    3    3    0    0  0.14416945362E+02  0.18494754164E+02  0.90513973642E+01  0.25136269406E+02  0.51100000000E-03 0. -1.
        -11    1    3    3    0    0 -0.63325051261E+01  0.14307724477E+02  0.24576034548E+01  0.15838289551E+02  0.51100000000E-03 0.  1.
        -12    1    3    3    0    0  0.11082143899E+02 -0.73440209015E+01 -0.12615373216E+02  0.18327471123E+02  0.00000000000E+00 0.  1.
</event>
<event>
 7    1  0.1284777E-011  0.5930193E+02  0.7816164E-02  0.1266605E+00
        -11   -1    0    0    0    0  0.00000000000E+00  0.00000000000E+00  0.45593999997E+02  0.45594000000E+02  0.51100000000E-03 0.  1.
         11   -1    0    0    0    0 -0.00000000000E+00 -0.00000000000E+00 -0.45593999997E+02  0.45594000000E+02  0.51100000000E-03 0. -1.
    9900012    2    1    2    0    0 -0.76768204844E+01 -0.12461835008E+02 -0.28328260423E+02  0.59301933401E+02  0.49999980620E+02 0.  0.
        -12    1    1    2    0    0  0.76768204844E+01  0.12461835008E+02  0.28328260423E+02  0.31886066599E+02  0.00000000000E+00 0.  1.
         11    1    3    3    0    0 -0.52703407061E+01 -0.99848485154E+01 -0.16529219919E+02  0.20017212654E+02  0.51100000000E-03 0. -1.
        -11    1    3    3    0    0 -0.18145447158E+02 -0.24146299403E+01 -0.14453162380E+02  0.23323412987E+02  0.51100000000E-03 0.  1.
        -12    1    3    3    0    0  0.15738967380E+02 -0.62356551881E-01  0.26541218752E+01  0.15961307761E+02  0.00000000000E+00 0.  1.
</event>
<event>
 7    1  0.1284777E-011  0.5930194E+02  0.7816164E-02  0.1266605E+00
        -11   -1    0    0    0    0  0.00000000000E+00  0.00000000000E+00  0.45593999997E+02  0.45594000000E+02  0.51100000000E-03 0.  1.
         11   -1    0    0    0    0 -0.00000000000E+00 -0.00000000000E+00 -0.45593999997E+02  0.45594000000E+02  0.51100000000E-03 0. -1.
    9900012    2    1    2    0    0 -0.62812462037E+01  0.28890855365E+01 -0.31127475806E+02  0.59301943186E+02  0.49999998464E+02 0.  0.
        -12    1    1    2    0    0  0.62812462037E+01 -0.28890855365E+01  0.31127475806E+02  0.31886056814E+02  0.00000000000E+00 0.  1.
         11    1    3    3    0    0  0.31109206071E+01 -0.73242188241E+01  0.51311533574E+01  0.94684076510E+01  0.51100000000E-03 0. -1.
        -11    1    3    3    0    0  0.92862243150E+01 -0.27708063582E+00 -0.22579419695E+02  0.24415997414E+02  0.51100000000E-03 0.  1.
         12    1    3    3    0    0 -0.18678391126E+02  0.10490384996E+02 -0.13679209469E+02  0.25417538121E+02  0.00000000000E+00 0. -1.
</event>
<event>
 7    1  0.1284777E-011  0.5930192E+02  0.7816164E-02  0.1266605E+00
        -11   -1    0    0    0    0  0.00000000000E+00  0.00000000000E+00  0.45593999997E+02  0.45594000000E+02  0.51100000000E-03 0. -1.
         11   -1    0    0    0    0 -0.00000000000E+00 -0.00000000000E+00 -0.45593999997E+02  0.45594000000E+02  0.51100000000E-03 0.  1.
    9900012    2    1    2    0    0  0.72772259750E+01 -0.27210716415E+02  0.14944603067E+02  0.59301917354E+02  0.49999951353E+02 0.  0.
        -12    1    1    2    0    0 -0.72772259750E+01  0.27210716415E+02 -0.14944603067E+02  0.31886082646E+02  0.00000000000E+00 0.  1.
         11    1    3    3    0    0 -0.12891383228E+01 -0.90151215827E+01  0.18069063614E+02  0.20234261907E+02  0.51100000000E-03 0. -1.
        -11    1    3    3    0    0  0.14538771680E+02 -0.17619120666E+02 -0.13895946102E+02  0.26737737626E+02  0.51100000000E-03 0.  1.
         12    1    3    3    0    0 -0.59724073820E+01 -0.57647416542E+00  0.10771485555E+02  0.12329917821E+02  0.00000000000E+00 0. -1.
</event>
<event>
 7    1  0.1284777E-011  0.5930194E+02  0.7816164E-02  0.1266605E+00
        -11   -1    0    0    0    0  0.00000000000E+00  0.00000000000E+00  0.45593999997E+02  0.45594000000E+02  0.51100000000E-03 0.  1.
         11   -1    0    0    0    0 -0.00000000000E+00 -0.00000000000E+00 -0.45593999997E+02  0.45594000000E+02  0.51100000000E-03 0. -1.
    9900012    2    1    2    0    0 -0.17343457738E+01  0.58132649757E+01 -0.31303654816E+02  0.59301940197E+02  0.49999993013E+02 0.  0.
        -12    1    1    2    0    0  0.17343457738E+01 -0.58132649757E+01  0.31303654816E+02  0.31886059803E+02  0.00000000000E+00 0.  1.
         11    1    3    3    0    0  0.31211592324E+01 -0.33136466048E+01 -0.30419145366E+02  0.30757865561E+02  0.51100000000E-03 0. -1.
        -11    1    3    3    0    0 -0.51571214386E+01  0.13815065824E+02 -0.10323423317E+02  0.18000694833E+02  0.51100000000E-03 0.  1.
        -12    1    3    3    0    0  0.30161643241E+00 -0.46881542433E+01  0.94389138667E+01  0.10543379803E+02  0.00000000000E+00 0.  1.
</event>
<event>
 7    1  0.1284777E-011  0.5930176E+02  0.7816164E-02  0.1266605E+00
        -11   -1    0    0    0    0  0.00000000000E+00  0.00000000000E+00  0.45593999997E+02  0.45594000000E+02  0.51100000000E-03 0. -1.
         11   -1    0    0    0    0 -0.00000000000E+00 -0.00000000000E+00 -0.45593999997E+02  0.45594000000E+02  0.51100000000E-03 0.  1.
    9900012    2    1    2    0    0 -0.14173041237E+02 -0.18349349795E+02 -0.21889692740E+02  0.59301758703E+02  0.49999662011E+02 0.  0.
        -12    1    1    2    0    0  0.14173041237E+02  0.18349349795E+02  0.21889692740E+02  0.31886241297E+02  0.00000000000E+00 0.  1.
         11    1    3    3    0    0 -0.68458885319E+01 -0.16504502278E+02 -0.24552410295E+02  0.30365863017E+02  0.51100000000E-03 0. -1.
        -11    1    3    3    0    0  0.87558369296E+01 -0.23084950024E+01 -0.58030386587E+01  0.10754956413E+02  0.51100000000E-03 0.  1.
        -12    1    3    3    0    0 -0.16082989634E+02  0.46364748550E+00  0.84657562135E+01  0.18180939272E+02  0.00000000000E+00 0.  1.
</event>
<event>
 7    1  0.1284777E-011  0.5930191E+02  0.7816164E-02  0.1266605E+00
        -11   -1    0    0    0    0  0.00000000000E+00  0.00000000000E+00  0.45593999997E+02  0.45594000000E+02  0.51100000000E-03 0. -1.
         11   -1    0    0    0    0 -0.00000000000E+00 -0.00000000000E+00 -0.45593999997E+02  0.45594000000E+02  0.51100000000E-03 0.  1.
    9900012    2    1    2    0    0  0.16420946214E+01  0.38382557885E+01  0.31611611394E+02  0.59301911229E+02  0.49999940182E+02 0.  0.
        -12    1    1    2    0    0 -0.16420946214E+01 -0.38382557885E+01 -0.31611611394E+02  0.31886088771E+02  0.00000000000E+00 0.  1.
         11    1    3    3    0    0  0.28610513176E+00  0.93469740335E+01  0.22885764482E+01  0.96273237273E+01  0.51100000000E-03 0. -1.
        -11    1    3    3    0    0 -0.17029006093E+02 -0.37813603142E+01  0.32804760482E+01  0.17749570635E+02  0.51100000000E-03 0.  1.
         12    1    3    3    0    0  0.18384995583E+02 -0.17273579308E+01  0.26042558897E+02  0.31925016866E+02  0.00000000000E+00 0. -1.
</event>
<event>
 7    1  0.1284777E-011  0.5930194E+02  0.7816164E-02  0.1266605E+00
        -11   -1    0    0    0    0  0.00000000000E+00  0.00000000000E+00  0.45593999997E+02  0.45594000000E+02  0.51100000000E-03 0.  1.
         11   -1    0    0    0    0 -0.00000000000E+00 -0.00000000000E+00 -0.45593999997E+02  0.45594000000E+02  0.51100000000E-03 0. -1.
    9900012    2    1    2    0    0  0.27162157127E+01 -0.29911415550E+00 -0.31768748015E+02  0.59301942742E+02  0.49999997654E+02 0.  0.
        -12    1    1    2    0    0 -0.27162157127E+01  0.29911415550E+00  0.31768748015E+02  0.31886057258E+02  0.00000000000E+00 0.  1.
         11    1    3    3    0    0  0.98511930639E+01 -0.33283329499E+00 -0.24971363286E+02  0.26846336201E+02  0.51100000000E-03 0. -1.
        -11    1    3    3    0    0 -0.11338374580E+01 -0.27060954033E+01 -0.18656118148E+02  0.18885425183E+02  0.51100000000E-03 0.  1.
        -12    1    3    3    0    0 -0.60011398933E+01  0.27398145428E+01  0.11858733420E+02  0.13570181358E+02  0.00000000000E+00 0.  1.
</event>
<event>
 7    1  0.1284777E-011  0.5930184E+02  0.7816164E-02  0.1266605E+00
        -11   -1    0    0    0    0  0.00000000000E+00  0.00000000000E+00  0.45593999997E+02  0.45594000000E+02  0.51100000000E-03 0.  1.
         11   -1    0    0    0    0 -0.00000000000E+00 -0.00000000000E+00 -0.45593999997E+02  0.45594000000E+02  0.51100000000E-03 0. -1.
    9900012    2    1    2    0    0  0.13238281090E+02  0.28128951766E+02  0.70878004222E+01  0.59301844250E+02  0.49999818029E+02 0.  0.
        -12    1    1    2    0    0 -0.13238281090E+02 -0.28128951766E+02 -0.70878004222E+01  0.31886155750E+02  0.00000000000E+00 0.  1.
         11    1    3    3    0    0  0.15723155406E+02  0.14729392783E+02 -0.91891568172E+01  0.23422494123E+02  0.51100000000E-03 0. -1.
        -11    1    3    3    0    0  0.50222209322E+01 -0.36358916001E+01 -0.47389809269E+01  0.78038677146E+01  0.51100000000E-03 0.  1.
        -12    1    3    3    0    0 -0.75070952484E+01  0.17035450583E+02  0.21015938166E+02  0.28075482412E+02  0.00000000000E+00 0.  1.
</event>
<event>
 7    1  0.1284777E-011  0.5930191E+02  0.7816164E-02  0.1266605E+00
        -11   -1    0    0    0    0  0.00000000000E+00  0.00000000000E+00  0.45593999997E+02  0.45594000000E+02  0.51100000000E-03 0.  1.
         11   -1    0    0    0    0 -0.00000000000E+00 -0.00000000000E+00 -0.45593999997E+02  0.45594000000E+02  0.51100000000E-03 0. -1.
    9900012    2    1    2    0    0 -0.23192240056E+02  0.16718239588E+02 -0.14118899682E+02  0.59301908017E+02  0.49999934325E+02 0.  0.
        -12    1    1    2    0    0  0.23192240056E+02 -0.16718239588E+02  0.14118899682E+02  0.31886091983E+02  0.00000000000E+00 0.  1.
         11    1    3    3    0    0  0.24010365217E+01  0.16444160141E+02  0.85597710968E+01  0.18693449671E+02  0.51100000000E-03 0. -1.
        -11    1    3    3    0    0 -0.47763603423E+00  0.26794970180E+01  0.33780976392E+01  0.43381314379E+01  0.51100000000E-03 0.  1.
         12    1    3    3    0    0 -0.25115640544E+02 -0.24054175715E+01 -0.26056768418E+02  0.36270326908E+02  0.00000000000E+00 0. -1.
</event>
<event>
 7    1  0.1284777E-011  0.5930194E+02  0.7816164E-02  0.1266605E+00
        -11   -1    0    0    0    0  0.00000000000E+00  0.00000000000E+00  0.45593999997E+02  0.45594000000E+02  0.51100000000E-03 0.  1.
         11   -1    0    0    0    0 -0.00000000000E+00 -0.00000000000E+00 -0.45593999997E+02  0.45594000000E+02  0.51100000000E-03 0. -1.
    9900012    2    1    2    0    0  0.20672433352E+02 -0.76824162547E+01 -0.23029372226E+02  0.59301937131E+02  0.49999987422E+02 0.  0.
        -12    1    1    2    0    0 -0.20672433352E+02  0.76824162547E+01  0.23029372226E+02  0.31886062869E+02  0.00000000000E+00 0.  1.
         11    1    3    3    0    0  0.13120792630E+02  0.78847864823E+01  0.44176639569E+01  0.15932382503E+02  0.51100000000E-03 0.  1.
        -11    1    3    3    0    0  0.35937471556E+01  0.14226156149E+01  0.51256589886E+01  0.64195976615E+01  0.51100000000E-03 0. -1.
         12    1    3    3    0    0  0.39578935659E+01 -0.16989818352E+02 -0.32572695171E+02  0.36949956967E+02  0.00000000000E+00 0. -1.
</event>
<event>
 7    1  0.1284777E-011  0.5930185E+02  0.7816164E-02  0.1266605E+00
        -11   -1    0    0    0    0  0.00000000000E+00  0.00000000000E+00  0.45593999997E+02  0.45594000000E+02  0.51100000000E-03 0. -1.
         11   -1    0    0    0    0 -0.00000000000E+00 -0.00000000000E+00 -0.45593999997E+02  0.45594000000E+02  0.51100000000E-03 0.  1.
    9900012    2    1    2    0    0 -0.26634378672E+02  0.12810681152E+02  0.11967569132E+02  0.59301852698E+02  0.49999833437E+02 0.  0.
        -12    1    1    2    0    0  0.26634378672E+02 -0.12810681152E+02 -0.11967569132E+02  0.31886147302E+02  0.00000000000E+00 0.  1.
         11    1    3    3    0    0 -0.16864967109E+01  0.83991884942E+01  0.84912576218E+01  0.12062010395E+02  0.51100000000E-03 0. -1.
        -11    1    3    3    0    0  0.10666010745E+02 -0.18475626340E+01 -0.65639088669E+00  0.10844727851E+02  0.51100000000E-03 0.  1.
        -12    1    3    3    0    0 -0.35613892707E+02  0.62590552919E+01  0.41327023964E+01  0.36395114452E+02  0.00000000000E+00 0.  1.
</event>
<event>
 7    1  0.1284777E-011  0.5930193E+02  0.7816164E-02  0.1266605E+00
        -11   -1    0    0    0    0  0.00000000000E+00  0.00000000000E+00  0.45593999997E+02  0.45594000000E+02  0.51100000000E-03 0. -1.
         11   -1    0    0    0    0 -0.00000000000E+00 -0.00000000000E+00 -0.45593999997E+02  0.45594000000E+02  0.51100000000E-03 0.  1.
    9900012    2    1    2    0    0 -0.12519929017E+02 -0.21636003455E+02  0.19795355314E+02  0.59301931567E+02  0.49999977275E+02 0.  0.
        -12    1    1    2    0    0  0.12519929017E+02  0.21636003455E+02 -0.19795355314E+02  0.31886068433E+02  0.00000000000E+00 0.  1.
         11    1    3    3    0    0 -0.15645545380E+02 -0.73451931713E+01  0.15372254758E+02  0.23130956953E+02  0.51100000000E-03 0. -1.
        -11    1    3    3    0    0 -0.11563225805E+02 -0.14033633937E+02 -0.48228528634E+01  0.18812521960E+02  0.51100000000E-03 0.  1.
        -12    1    3    3    0    0  0.14688842168E+02 -0.25717634686E+00  0.92459534200E+01  0.17358452654E+02  0.00000000000E+00 0.  1.
</event>
<event>
 7    1  0.1284777E-011  0.5930194E+02  0.7816164E-02  0.1266605E+00
        -11   -1    0    0    0    0  0.00000000000E+00  0.00000000000E+00  0.45593999997E+02  0.45594000000E+02  0.51100000000E-03 0.  1.
         11   -1    0    0    0    0 -0.00000000000E+00 -0.00000000000E+00 -0.45593999997E+02  0.45594000000E+02  0.51100000000E-03 0. -1.
    9900012    2    1    2    0    0 -0.20451426334E+02  0.15749852451E+02 -0.18719035057E+02  0.59301937766E+02  0.49999988580E+02 0.  0.
        -12    1    1    2    0    0  0.20451426334E+02 -0.15749852451E+02  0.18719035057E+02  0.31886062234E+02  0.00000000000E+00 0.  1.
         11    1    3    3    0    0 -0.72804394535E+01  0.27533504269E+02  0.37639064672E+01  0.28727437200E+02  0.51100000000E-03 0. -1.
        -11    1    3    3    0    0 -0.53710943054E+00  0.19379573415E+01 -0.15629680812E+01  0.25469657795E+01  0.51100000000E-03 0.  1.
        -12    1    3    3    0    0 -0.12633877450E+02 -0.13721609159E+02 -0.20919973443E+02  0.28027534786E+02  0.00000000000E+00 0.  1.
</event>
<event>
 7    1  0.1284777E-011  0.5930194E+02  0.7816164E-02  0.1266605E+00
        -11   -1    0    0    0    0  0.00000000000E+00  0.00000000000E+00  0.45593999997E+02  0.45594000000E+02  0.51100000000E-03 0. -1.
         11   -1    0    0    0    0 -0.00000000000E+00 -0.00000000000E+00 -0.45593999997E+02  0.45594000000E+02  0.51100000000E-03 0.  1.
    9900012    2    1    2    0    0 -0.10084682565E+02 -0.30234188085E+02  0.95599310488E+00  0.59301939184E+02  0.49999991165E+02 0.  0.
        -12    1    1    2    0    0  0.10084682565E+02  0.30234188085E+02 -0.95599310488E+00  0.31886060816E+02  0.00000000000E+00 0.  1.
         11    1    3    3    0    0 -0.19889575846E+01  0.82128537394E+01 -0.42167317152E+01  0.94439263782E+01  0.51100000000E-03 0.  1.
        -11    1    3    3    0    0  0.53192208324E+01 -0.31460571313E+02 -0.40185044118E+01  0.32159136114E+02  0.51100000000E-03 0. -1.
         12    1    3    3    0    0 -0.13414945813E+02 -0.69864705111E+01  0.91912292318E+01  0.17698876692E+02  0.00000000000E+00 0. -1.
</event>
<event>
 7    1  0.1284777E-011  0.5930195E+02  0.7816164E-02  0.1266605E+00
        -11   -1    0    0    0    0  0.00000000000E+00  0.00000000000E+00  0.45593999997E+02  0.45594000000E+02  0.51100000000E-03 0.  1.
         11   -1    0    0    0    0 -0.00000000000E+00 -0.00000000000E+00 -0.45593999997E+02  0.45594000000E+02  0.51100000000E-03 0. -1.
    9900012    2    1    2    0    0 -0.26186904437E+02  0.11956959075E+02 -0.13711211715E+02  0.59301950370E+02  0.50000011567E+02 0.  0.
        -12    1    1    2    0    0  0.26186904437E+02 -0.11956959075E+02  0.13711211715E+02  0.31886049630E+02  0.00000000000E+00 0.  1.
         11    1    3    3    0    0 -0.17636734480E+02  0.28241620853E+01  0.85682305874E+01  0.19810221358E+02  0.51100000000E-03 0. -1.
        -11    1    3    3    0    0 -0.12098092794E+02  0.14100447753E+02 -0.24453087610E+01  0.18739423985E+02  0.51100000000E-03 0.  1.
         12    1    3    3    0    0  0.35479228376E+01 -0.49676507633E+01 -0.19834133541E+02  0.20752305026E+02  0.00000000000E+00 0. -1.
</event>
<event>
 7    1  0.1284777E-011  0.5930196E+02  0.7816164E-02  0.1266605E+00
        -11   -1    0    0    0    0  0.00000000000E+00  0.00000000000E+00  0.45593999997E+02  0.45594000000E+02  0.51100000000E-03 0. -1.
         11   -1    0    0    0    0 -0.00000000000E+00 -0.00000000000E+00 -0.45593999997E+02  0.45594000000E+02  0.51100000000E-03 0.  1.
    9900012    2    1    2    0    0  0.17727038332E+02  0.19340407192E+02  0.18122365201E+02  0.59301962948E+02  0.50000034506E+02 0.  0.
        -12    1    1    2    0    0 -0.17727038332E+02 -0.19340407192E+02 -0.18122365201E+02  0.31886037052E+02  0.00000000000E+00 0.  1.
         11    1    3    3    0    0  0.59811044189E+01 -0.10595881177E+01  0.44851909493E+01  0.75507135532E+01  0.51100000000E-03 0. -1.
        -11    1    3    3    0    0  0.20447195412E+02 -0.34150781385E+01 -0.36697394740E+01  0.21052732530E+02  0.51100000000E-03 0.  1.
         12    1    3    3    0    0 -0.87012614986E+01  0.23815073448E+02  0.17306913725E+02  0.30698516865E+02  0.00000000000E+00 0. -1.
</event>
<event>
 7    1  0.1284777E-011  0.5930193E+02  0.7816164E-02  0.1266605E+00
        -11   -1    0    0    0    0  0.00000000000E+00  0.00000000000E+00  0.45593999997E+02  0.45594000000E+02  0.51100000000E-03 0. -1.
         11   -1    0    0    0    0 -0.00000000000E+00 -0.00000000000E+00 -0.45593999997E+02  0.45594000000E+02  0.51100000000E-03 0.  1.
    9900012    2    1    2    0    0  0.28625452796E+02  0.46816984741E+01 -0.13243358103E+02  0.59301931221E+02  0.49999976643E+02 0.  0.
        -12    1    1    2    0    0 -0.28625452796E+02 -0.46816984741E+01  0.13243358103E+02  0.31886068779E+02  0.00000000000E+00 0.  1.
         11    1    3    3    0    0 -0.16825160345E+01 -0.25018019878E+00 -0.29248098365E+00  0.17259767453E+01  0.51100000000E-03 0. -1.
        -11    1    3    3    0    0 -0.11940749776E+02 -0.45203084466E+01 -0.38619569235E+01  0.13339018150E+02  0.51100000000E-03 0.  1.
         12    1    3    3    0    0  0.42248718606E+02  0.94521871195E+01 -0.90889201958E+01  0.44236936326E+02  0.00000000000E+00 0. -1.
</event>
<event>
 7    1  0.1284777E-011  0.5930193E+02  0.7816164E-02  0.1266605E+00
        -11   -1    0    0    0    0  0.00000000000E+00  0.00000000000E+00  0.45593999997E+02  0.45594000000E+02  0.51100000000E-03 0. -1.
         11   -1    0    0    0    0 -0.00000000000E+00 -0.00000000000E+00 -0.45593999997E+02  0.45594000000E+02  0.51100000000E-03 0.  1.
    9900012    2    1    2    0    0 -0.38999862004E+01 -0.30201410168E+02  0.94544334758E+01  0.59301931242E+02  0.49999976681E+02 0.  0.
        -12    1    1    2    0    0  0.38999862004E+01  0.30201410168E+02 -0.94544334758E+01  0.31886068758E+02  0.00000000000E+00 0.  1.
         11    1    3    3    0    0 -0.39171613932E+01 -0.15977622222E+02  0.64220437691E+01  0.17659875755E+02  0.51100000000E-03 0. -1.
        -11    1    3    3    0    0  0.30325844563E+01 -0.24897085104E+02  0.11593703028E+02  0.27631057984E+02  0.51100000000E-03 0.  1.
        -12    1    3    3    0    0 -0.30154092634E+01  0.10673297158E+02 -0.85613133210E+01  0.14010997503E+02  0.00000000000E+00 0.  1.
</event>
<event>
 7    1  0.1284777E-011  0.5930195E+02  0.7816164E-02  0.1266605E+00
        -11   -1    0    0    0    0  0.00000000000E+00  0.00000000000E+00  0.45593999997E+02  0.45594000000E+02  0.51100000000E-03 0.  1.
         11   -1    0    0    0    0 -0.00000000000E+00 -0.00000000000E+00 -0.45593999997E+02  0.45594000000E+02  0.51100000000E-03 0. -1.
    9900012    2    1    2    0    0 -0.18111230141E+02  0.79495701698E+01 -0.25010161341E+02  0.59301945158E+02  0.50000002061E+02 0.  0.
        -12    1    1    2    0    0  0.18111230141E+02 -0.79495701698E+01  0.25010161341E+02  0.31886054842E+02  0.00000000000E+00 0.  1.
         11    1    3    3    0    0 -0.15461167625E+02  0.11195362451E+02 -0.21066837133E+02  0.28428778936E+02  0.51100000000E-03 0. -1.
        -11    1    3    3    0    0 -0.64963301958E+01 -0.32230228791E+01 -0.16348844886E+02  0.17885047158E+02  0.51100000000E-03 0.  1.
        -12    1    3    3    0    0  0.38462676802E+01 -0.22769401820E-01  0.12405520678E+02  0.12988119063E+02  0.00000000000E+00 0.  1.
</event>
<event>
 7    1  0.1284777E-011  0.5930199E+02  0.7816164E-02  0.1266605E+00
        -11   -1    0    0    0    0  0.00000000000E+00  0.00000000000E+00  0.45593999997E+02  0.45594000000E+02  0.51100000000E-03 0. -1.
         11   -1    0    0    0    0 -0.00000000000E+00 -0.00000000000E+00 -0.45593999997E+02  0.45594000000E+02  0.51100000000E-03 0.  1.
    9900012    2    1    2    0    0 -0.44329266242E+01 -0.24792926976E+02  0.19554477106E+02  0.59301989880E+02  0.50000083623E+02 0.  0.
        -12    1    1    2    0    0  0.44329266242E+01  0.24792926976E+02 -0.19554477106E+02  0.31886010120E+02  0.00000000000E+00 0.  1.
         11    1    3    3    0    0 -0.52943549882E+01 -0.40547484238E+01 -0.80219989042E+01  0.10431857275E+02  0.51100000000E-03 0. -1.
        -11    1    3    3    0    0 -0.14130488887E+02 -0.20904005483E+02  0.15443033415E+02  0.29582688227E+02  0.51100000000E-03 0.  1.
         12    1    3    3    0    0  0.14991917251E+02  0.16582693045E+00  0.12133442595E+02  0.19287444378E+02  0.00000000000E+00 0. -1.
</event>
<event>
 7    1  0.1284777E-011  0.5930191E+02  0.7816164E-02  0.1266605E+00
        -11   -1    0    0    0    0  0.00000000000E+00  0.00000000000E+00  0.45593999997E+02  0.45594000000E+02  0.51100000000E-03 0.  1.
         11   -1    0    0    0    0 -0.00000000000E+00 -0.00000000000E+00 -0.45593999997E+02  0.45594000000E+02  0.51100000000E-03 0. -1.
    9900012    2    1    2    0    0 -0.29266179750E+02  0.12654571889E+02  0.27412620436E+00  0.59301911936E+02  0.49999941471E+02 0.  0.
        -12    1    1    2    0    0  0.29266179750E+02 -0.12654571889E+02 -0.27412620436E+00  0.31886088064E+02  0.00000000000E+00 0.  1.
         11    1    3    3    0    0 -0.28712989085E+01  0.12576085134E+02  0.33343572728E+01  0.13323671169E+02  0.51100000000E-03 0. -1.
        -11    1    3    3    0    0 -0.34870747471E+02  0.56467742990E+00  0.37747291750E+01  0.35079003270E+02  0.51100000000E-03 0.  1.
         12    1    3    3    0    0  0.84758666291E+01 -0.48619067515E+00 -0.68349602435E+01  0.10899237497E+02  0.00000000000E+00 0. -1.
</event>
<event>
 7    1  0.1284777E-011  0.5930194E+02  0.7816164E-02  0.1266605E+00
        -11   -1    0    0    0    0  0.00000000000E+00  0.00000000000E+00  0.45593999997E+02  0.45594000000E+02  0.51100000000E-03 0.  1.
         11   -1    0    0    0    0 -0.00000000000E+00 -0.00000000000E+00 -0.45593999997E+02  0.45594000000E+02  0.51100000000E-03 0. -1.
    9900012    2    1    2    0    0  0.13543017533E+01 -0.21179683407E+02 -0.23797223109E+02  0.59301937996E+02  0.49999988999E+02 0.  0.
        -12    1    1    2    0    0 -0.13543017533E+01  0.21179683407E+02  0.23797223109E+02  0.31886062004E+02  0.00000000000E+00 0.  1.
         11    1    3    3    0    0 -0.54291515748E+01 -0.14981221182E+02  0.32225016213E+01  0.16257219685E+02  0.51100000000E-03 0. -1.
        -11    1    3    3    0    0  0.49038670671E+00  0.12624944110E+01  0.72688651174E+01  0.73939685972E+01  0.51100000000E-03 0.  1.
         12    1    3    3    0    0  0.62930666214E+01 -0.74609566362E+01 -0.34288589847E+02  0.35650749714E+02  0.00000000000E+00 0. -1.
</event>
<event>
 7    1  0.1284777E-011  0.5930196E+02  0.7816164E-02  0.1266605E+00
        -11   -1    0    0    0    0  0.00000000000E+00  0.00000000000E+00  0.45593999997E+02  0.45594000000E+02  0.51100000000E-03 0.  1.
         11   -1    0    0    0    0 -0.00000000000E+00 -0.00000000000E+00 -0.45593999997E+02  0.45594000000E+02  0.51100000000E-03 0. -1.
    9900012    2    1    2    0    0 -0.20248560503E+02  0.56175114138E+01  0.23982469313E+02  0.59301961185E+02  0.50000031291E+02 0.  0.
        -12    1    1    2    0    0  0.20248560503E+02 -0.56175114138E+01 -0.23982469313E+02  0.31886038815E+02  0.00000000000E+00 0.  1.
         11    1    3    3    0    0 -0.32991062972E+01 -0.10434491765E+02  0.70180326228E+01  0.13000596252E+02  0.51100000000E-03 0. -1.
        -11    1    3    3    0    0 -0.13308409062E+02 -0.91765684077E+01  0.12474424907E+02  0.20418972465E+02  0.51100000000E-03 0.  1.
         12    1    3    3    0    0 -0.36410451440E+01  0.25228571587E+02  0.44900117832E+01  0.25882392468E+02  0.00000000000E+00 0. -1.
</event>
<event>
 7    1  0.1284777E-011  0.5930193E+02  0.7816164E-02  0.1266605E+00
        -11   -1    0    0    0    0  0.00000000000E+00  0.00000000000E+00  0.45593999997E+02  0.45594000000E+02  0.51100000000E-03 0.  1.
         11   -1    0    0    0    0 -0.00000000000E+00 -0.00000000000E+00 -0.45593999997E+02  0.45594000000E+02  0.51100000000E-03 0. -1.
    9900012    2    1    2    0    0 -0.27295767792E+02  0.81572621431E+01 -0.14322070453E+02  0.59301928322E+02  0.49999971356E+02 0.  0.
        -12    1    1    2    0    0  0.27295767792E+02 -0.81572621431E+01  0.14322070453E+02  0.31886071678E+02  0.00000000000E+00 0.  1.
         11    1    3    3    0    0 -0.20776893016E+02  0.49032043706E+01 -0.19839334712E+02  0.29143093497E+02  0.51100000000E-03 0. -1.
        -11    1    3    3    0    0 -0.15704026430E+02  0.95256808763E+01  0.49488636617E+01  0.19022257860E+02  0.51100000000E-03 0.  1.
        -12    1    3    3    0    0  0.91851516543E+01 -0.62716231038E+01  0.56840059697E+00  0.11136576965E+02  0.00000000000E+00 0.  1.
</event>
<event>
 7    1  0.1284777E-011  0.5930194E+02  0.7816164E-02  0.1266605E+00
        -11   -1    0    0    0    0  0.00000000000E+00  0.00000000000E+00  0.45593999997E+02  0.45594000000E+02  0.51100000000E-03 0. -1.
         11   -1    0    0    0    0 -0.00000000000E+00 -0.00000000000E+00 -0.45593999997E+02  0.45594000000E+02  0.51100000000E-03 0.  1.
    9900012    2    1    2    0    0 -0.11323027794E+02  0.12056783820E+02  0.27260665854E+02  0.59301938824E+02  0.49999990510E+02 0.  0.
        -12    1    1    2    0    0  0.11323027794E+02 -0.12056783820E+02 -0.27260665854E+02  0.31886061176E+02  0.00000000000E+00 0.  1.
         11    1    3    3    0    0 -0.61656132632E+01  0.33096546167E+01  0.31125710886E+02  0.31902640628E+02  0.51100000000E-03 0. -1.
        -11    1    3    3    0    0 -0.86125283381E+01 -0.63299579072E+01  0.19678609169E+01  0.10868140979E+02  0.51100000000E-03 0.  1.
        -12    1    3    3    0    0  0.34551138071E+01  0.15077087110E+02 -0.58329059495E+01  0.16531157218E+02  0.00000000000E+00 0.  1.
</event>
<event>
 7    1  0.1284777E-011  0.5930195E+02  0.7816164E-02  0.1266605E+00
        -11   -1    0    0    0    0  0.00000000000E+00  0.00000000000E+00  0.45593999997E+02  0.45594000000E+02  0.51100000000E-03 0.  1.
         11   -1    0    0    0    0 -0.00000000000E+00 -0.00000000000E+00 -0.45593999997E+02  0.45594000000E+02  0.51100000000E-03 0. -1.
    9900012    2    1    2    0    0  0.41782647040E+01 -0.12902888259E+02 -0.28857892154E+02  0.59301947235E+02  0.50000005848E+02 0.  0.
        -12    1    1    2    0    0 -0.41782647040E+01  0.12902888259E+02  0.28857892154E+02  0.31886052765E+02  0.00000000000E+00 0.  1.
         11    1    3    3    0    0  0.17028217488E+02 -0.85275992033E+01 -0.97261226515E+01  0.21384050156E+02  0.51100000000E-03 0. -1.
        -11    1    3    3    0    0 -0.13094672185E+01 -0.25242929446E+01  0.79383354426E+01  0.84323145771E+01  0.51100000000E-03 0.  1.
         12    1    3    3    0    0 -0.11540485565E+02 -0.18509961116E+01 -0.27070104945E+02  0.29485582501E+02  0.00000000000E+00 0. -1.
</event>
<event>
 7    1  0.1284777E-011  0.5930195E+02  0.7816164E-02  0.1266605E+00
        -11   -1    0    0    0    0  0.00000000000E+00  0.00000000000E+00  0.45593999997E+02  0.45594000000E+02  0.51100000000E-03 0. -1.
         11   -1    0    0    0    0 -0.00000000000E+00 -0.00000000000E+00 -0.45593999997E+02  0.45594000000E+02  0.51100000000E-03 0.  1.
    9900012    2    1    2    0    0  0.23692132290E-02  0.31884914490E+02  0.26950516092E+00  0.59301946455E+02  0.50000004426E+02 0.  0.
        -12    1    1    2    0    0 -0.23692132290E-02 -0.31884914490E+02 -0.26950516092E+00  0.31886053545E+02  0.00000000000E+00 0.  1.
         11    1    3    3    0    0 -0.41361351509E+00  0.21152900982E+02 -0.22400906134E+01  0.21275203931E+02  0.51100000000E-03 0. -1.
        -11    1    3    3    0    0 -0.81578095473E+01  0.22080080775E+02  0.33650959298E+01  0.23778218910E+02  0.51100000000E-03 0.  1.
        -12    1    3    3    0    0  0.85737922756E+01 -0.11348067267E+02 -0.85550015543E+00  0.14248523614E+02  0.00000000000E+00 0.  1.
</event>
<event>
 7    1  0.1284777E-011  0.5930194E+02  0.7816164E-02  0.1266605E+00
        -11   -1    0    0    0    0  0.00000000000E+00  0.00000000000E+00  0.45593999997E+02  0.45594000000E+02  0.51100000000E-03 0. -1.
         11   -1    0    0    0    0 -0.00000000000E+00 -0.00000000000E+00 -0.45593999997E+02  0.45594000000E+02  0.51100000000E-03 0.  1.
    9900012    2    1    2    0    0  0.58276551799E+01  0.15370332067E+02  0.27322372904E+02  0.59301941387E+02  0.49999995185E+02 0.  0.
        -12    1    1    2    0    0 -0.58276551799E+01 -0.15370332067E+02 -0.27322372904E+02  0.31886058613E+02  0.00000000000E+00 0.  1.
         11    1    3    3    0    0  0.10800251304E+02  0.36223698122E+01  0.26997067453E+02  0.29302024548E+02  0.51100000000E-03 0. -1.
        -11    1    3    3    0    0 -0.11975228493E+02  0.11491382857E+02  0.89748360782E+01  0.18868112261E+02  0.51100000000E-03 0.  1.
         12    1    3    3    0    0  0.70026323686E+01  0.25657939800E+00 -0.86495306276E+01  0.11131804578E+02  0.00000000000E+00 0. -1.
</event>
<event>
 7    1  0.1284777E-011  0.5930195E+02  0.7816164E-02  0.1266605E+00
        -11   -1    0    0    0    0  0.00000000000E+00  0.00000000000E+00  0.45593999997E+02  0.45594000000E+02  0.51100000000E-03 0.  1.
         11   -1    0    0    0    0 -0.00000000000E+00 -0.00000000000E+00 -0.45593999997E+02  0.45594000000E+02  0.51100000000E-03 0. -1.
    9900012    2    1    2    0    0  0.42029572172E+01 -0.17085456826E+02 -0.26592152319E+02  0.59301948986E+02  0.50000009042E+02 0.  0.
        -12    1    1    2    0    0 -0.42029572172E+01  0.17085456826E+02  0.26592152319E+02  0.31886051014E+02  0.00000000000E+00 0.  1.
         11    1    3    3    0    0  0.22023719630E+02  0.59682695651E+01 -0.93000418505E+01  0.24640520421E+02  0.51100000000E-03 0.  1.
        -11    1    3    3    0    0 -0.67162361873E+01 -0.14641667551E+02 -0.91907570730E+01  0.18546058154E+02  0.51100000000E-03 0. -1.
        -12    1    3    3    0    0 -0.11104526226E+02 -0.84120588404E+01 -0.81013533954E+01  0.16115370411E+02  0.00000000000E+00 0.  1.
</event>
<event>
 7    1  0.1284777E-011  0.5930189E+02  0.7816164E-02  0.1266605E+00
        -11   -1    0    0    0    0  0.00000000000E+00  0.00000000000E+00  0.45593999997E+02  0.45594000000E+02  0.51100000000E-03 0.  1.
         11   -1    0    0    0    0 -0.00000000000E+00 -0.00000000000E+00 -0.45593999997E+02  0.45594000000E+02  0.51100000000E-03 0. -1.
    9900012    2    1    2    0    0 -0.81022307439E+01  0.23254641056E+02 -0.20255850782E+02  0.59301890727E+02  0.49999902792E+02 0.  0.
        -12    1    1    2    0    0  0.81022307439E+01 -0.23254641056E+02  0.20255850782E+02  0.31886109273E+02  0.00000000000E+00 0.  1.
         11    1    3    3    0    0 -0.31329577715E+01  0.11190754729E+02  0.90270955961E+01  0.14715191843E+02  0.51100000000E-03 0. -1.
        -11    1    3    3    0    0 -0.17248538840E+02  0.70238855190E+01 -0.98917811252E+01  0.21087778308E+02  0.51100000000E-03 0.  1.
        -12    1    3    3    0    0  0.12279265867E+02  0.50400008086E+01 -0.19391165253E+02  0.23498920576E+02  0.00000000000E+00 0.  1.
</event>
<event>
 7    1  0.1284777E-011  0.5930193E+02  0.7816164E-02  0.1266605E+00
        -11   -1    0    0    0    0  0.00000000000E+00  0.00000000000E+00  0.45593999997E+02  0.45594000000E+02  0.51100000000E-03 0.  1.
         11   -1    0    0    0    0 -0.00000000000E+00 -0.00000000000E+00 -0.45593999997E+02  0.45594000000E+02  0.51100000000E-03 0. -1.
    9900012    2    1    2    0    0  0.12815935097E+02  0.11716778704E+02 -0.26743046666E+02  0.59301927169E+02  0.49999969253E+02 0.  0.
        -12    1    1    2    0    0 -0.12815935097E+02 -0.11716778704E+02  0.26743046666E+02  0.31886072831E+02  0.00000000000E+00 0.  1.
         11    1    3    3    0    0  0.26400593676E+01 -0.49180905302E+01 -0.24973896515E+01  0.61151028822E+01  0.51100000000E-03 0. -1.
        -11    1    3    3    0    0  0.78151078946E+00 -0.11555167866E+02 -0.20082061727E+02  0.23182361118E+02  0.51100000000E-03 0.  1.
        -12    1    3    3    0    0  0.93943649403E+01  0.28190037100E+02 -0.41635952873E+01  0.30004463169E+02  0.00000000000E+00 0.  1.
</event>
<event>
 7    1  0.1284777E-011  0.5930194E+02  0.7816164E-02  0.1266605E+00
        -11   -1    0    0    0    0  0.00000000000E+00  0.00000000000E+00  0.45593999997E+02  0.45594000000E+02  0.51100000000E-03 0. -1.
         11   -1    0    0    0    0 -0.00000000000E+00 -0.00000000000E+00 -0.45593999997E+02  0.45594000000E+02  0.51100000000E-03 0.  1.
    9900012    2    1    2    0    0  0.14356322768E+02  0.19379318902E+02  0.20858061089E+02  0.59301941653E+02  0.49999995669E+02 0.  0.
        -12    1    1    2    0    0 -0.14356322768E+02 -0.19379318902E+02 -0.20858061089E+02  0.31886058347E+02  0.00000000000E+00 0.  1.
         11    1    3    3    0    0  0.13074714098E+02  0.13118816508E+02  0.12004616759E+02  0.22071753875E+02  0.51100000000E-03 0. -1.
        -11    1    3    3    0    0  0.53287349001E+01  0.14775690589E+02 -0.82188898230E+01  0.17727566054E+02  0.51100000000E-03 0.  1.
        -12    1    3    3    0    0 -0.40471262298E+01 -0.85151881948E+01  0.17072334153E+02  0.19502621725E+02  0.00000000000E+00 0.  1.
</event>
<event>
 7    1  0.1284777E-011  0.5930195E+02  0.7816164E-02  0.1266605E+00
        -11   -1    0    0    0    0  0.00000000000E+00  0.00000000000E+00  0.45593999997E+02  0.45594000000E+02  0.51100000000E-03 0.  1.
         11   -1    0    0    0    0 -0.00000000000E+00 -0.00000000000E+00 -0.45593999997E+02  0.45594000000E+02  0.51100000000E-03 0. -1.
    9900012    2    1    2    0    0  0.68116863432E+01  0.21702610869E+02 -0.22345423211E+02  0.59301947753E+02  0.50000006795E+02 0.  0.
        -12    1    1    2    0    0 -0.68116863432E+01 -0.21702610869E+02  0.22345423211E+02  0.31886052247E+02  0.00000000000E+00 0.  1.
         11    1    3    3    0    0  0.62398482995E+01 -0.80097735721E+01 -0.11504506248E+02  0.15344244645E+02  0.51100000000E-03 0. -1.
        -11    1    3    3    0    0  0.60239172167E+01 -0.41394200127E+01 -0.57373835554E+01  0.92919291323E+01  0.51100000000E-03 0.  1.
        -12    1    3    3    0    0 -0.54520791730E+01  0.33851804454E+02 -0.51035334084E+01  0.34665773976E+02  0.00000000000E+00 0.  1.
</event>
<event>
 7    1  0.1284777E-011  0.5930167E+02  0.7816164E-02  0.1266606E+00
        -11   -1    0    0    0    0  0.00000000000E+00  0.00000000000E+00  0.45593999997E+02  0.45594000000E+02  0.51100000000E-03 0.  1.
         11   -1    0    0    0    0 -0.00000000000E+00 -0.00000000000E+00 -0.45593999997E+02  0.45594000000E+02  0.51100000000E-03 0. -1.
    9900012    2    1    2    0    0 -0.20199677109E+02  0.13609507336E+02 -0.20578936565E+02  0.59301666322E+02  0.49999493530E+02 0.  0.
        -12    1    1    2    0    0  0.20199677109E+02 -0.13609507336E+02  0.20578936565E+02  0.31886333678E+02  0.00000000000E+00 0.  1.
         11    1    3    3    0    0 -0.17337679886E+02 -0.57368793162E+01 -0.27664876465E+02  0.33148941435E+02  0.51100000000E-03 0. -1.
        -11    1    3    3    0    0  0.38882709459E+01 -0.33742243533E+00 -0.64132185430E+00  0.39552242453E+01  0.51100000000E-03 0.  1.
         12    1    3    3    0    0 -0.67502681689E+01  0.19683809088E+02  0.77272617546E+01  0.22197500642E+02  0.00000000000E+00 0. -1.
</event>
<event>
 7    1  0.1284777E-011  0.5930201E+02  0.7816164E-02  0.1266605E+00
        -11   -1    0    0    0    0  0.00000000000E+00  0.00000000000E+00  0.45593999997E+02  0.45594000000E+02  0.51100000000E-03 0. -1.
         11   -1    0    0    0    0 -0.00000000000E+00 -0.00000000000E+00 -0.45593999997E+02  0.45594000000E+02  0.51100000000E-03 0.  1.
    9900012    2    1    2    0    0  0.16596354237E+02 -0.19813916312E+02  0.18673130522E+02  0.59302014724E+02  0.50000128932E+02 0.  0.
        -12    1    1    2    0    0 -0.16596354237E+02  0.19813916312E+02 -0.18673130522E+02  0.31885985276E+02  0.00000000000E+00 0.  1.
         11    1    3    3    0    0  0.15556836541E+02 -0.27534166429E+02 -0.58363954534E+00  0.31630461892E+02  0.51100000000E-03 0. -1.
        -11    1    3    3    0    0 -0.16588953856E+00 -0.22673125279E+01 -0.26941691811E+01  0.35251628723E+01  0.51100000000E-03 0.  1.
        -12    1    3    3    0    0  0.12054072344E+01  0.99875626457E+01  0.21950939248E+02  0.24146389959E+02  0.00000000000E+00 0.  1.
</event>
<event>
 7    1  0.1284777E-011  0.5930196E+02  0.7816164E-02  0.1266605E+00
        -11   -1    0    0    0    0  0.00000000000E+00  0.00000000000E+00  0.45593999997E+02  0.45594000000E+02  0.51100000000E-03 0.  1.
         11   -1    0    0    0    0 -0.00000000000E+00 -0.00000000000E+00 -0.45593999997E+02  0.45594000000E+02  0.51100000000E-03 0. -1.
    9900012    2    1    2    0    0 -0.10398425194E+02  0.29997475447E+02 -0.29569782814E+01  0.59301960731E+02  0.50000030463E+02 0.  0.
        -12    1    1    2    0    0  0.10398425194E+02 -0.29997475447E+02  0.29569782814E+01  0.31886039269E+02  0.00000000000E+00 0.  1.
         11    1    3    3    0    0 -0.18119633800E+02  0.17290203663E+02 -0.93588452258E+01  0.26736870722E+02  0.51100000000E-03 0. -1.
        -11    1    3    3    0    0  0.80916447514E+01  0.95686636769E+00 -0.96746444645E+01  0.12648677947E+02  0.51100000000E-03 0.  1.
         12    1    3    3    0    0 -0.37043614540E+00  0.11750405416E+02  0.16076511409E+02  0.19916412063E+02  0.00000000000E+00 0. -1.
</event>
<event>
 7    1  0.1284777E-011  0.5930194E+02  0.7816164E-02  0.1266605E+00
        -11   -1    0    0    0    0  0.00000000000E+00  0.00000000000E+00  0.45593999997E+02  0.45594000000E+02  0.51100000000E-03 0.  1.
         11   -1    0    0    0    0 -0.00000000000E+00 -0.00000000000E+00 -0.45593999997E+02  0.45594000000E+02  0.51100000000E-03 0. -1.
    9900012    2    1    2    0    0 -0.11475060922E+02 -0.27299975057E+02 -0.11821818342E+02  0.59301936427E+02  0.49999986139E+02 0.  0.
        -12    1    1    2    0    0  0.11475060922E+02  0.27299975057E+02  0.11821818342E+02  0.31886063573E+02  0.00000000000E+00 0.  1.
         11    1    3    3    0    0 -0.22571347660E+02 -0.15824193342E+01  0.82318209857E+01  0.24077638238E+02  0.51100000000E-03 0.  1.
        -11    1    3    3    0    0  0.48896343591E+01 -0.39866714117E+01 -0.35415361623E+01  0.72349534733E+01  0.51100000000E-03 0. -1.
        -12    1    3    3    0    0  0.62066523789E+01 -0.21730884311E+02 -0.16512103165E+02  0.27989344716E+02  0.00000000000E+00 0.  1.
</event>
<event>
 7    1  0.1284777E-011  0.5930195E+02  0.7816164E-02  0.1266605E+00
        -11   -1    0    0    0    0  0.00000000000E+00  0.00000000000E+00  0.45593999997E+02  0.45594000000E+02  0.51100000000E-03 0.  1.
         11   -1    0    0    0    0 -0.00000000000E+00 -0.00000000000E+00 -0.45593999997E+02  0.45594000000E+02  0.51100000000E-03 0. -1.
    9900012    2    1    2    0    0 -0.18370432991E+02 -0.48713107925E+01 -0.25603078918E+02  0.59301950900E+02  0.50000012534E+02 0.  0.
        -12    1    1    2    0    0  0.18370432991E+02  0.48713107925E+01  0.25603078918E+02  0.31886049100E+02  0.00000000000E+00 0.  1.
         11    1    3    3    0    0 -0.12174187456E+02  0.10543585579E+02 -0.18619825348E+02  0.24618609492E+02  0.51100000000E-03 0. -1.
        -11    1    3    3    0    0 -0.16136746590E+02 -0.85257182784E+00 -0.15493944385E+01  0.16233363565E+02  0.51100000000E-03 0.  1.
        -12    1    3    3    0    0  0.99405010555E+01 -0.14562324544E+02 -0.54338591314E+01  0.18449977843E+02  0.00000000000E+00 0.  1.
</event>
<event>
 7    1  0.1284777E-011  0.5930196E+02  0.7816164E-02  0.1266605E+00
        -11   -1    0    0    0    0  0.00000000000E+00  0.00000000000E+00  0.45593999997E+02  0.45594000000E+02  0.51100000000E-03 0.  1.
         11   -1    0    0    0    0 -0.00000000000E+00 -0.00000000000E+00 -0.45593999997E+02  0.45594000000E+02  0.51100000000E-03 0. -1.
    9900012    2    1    2    0    0  0.28968316106E+02 -0.66408546030E+01 -0.11552281864E+02  0.59301960670E+02  0.50000030352E+02 0.  0.
        -12    1    1    2    0    0 -0.28968316106E+02  0.66408546030E+01  0.11552281864E+02  0.31886039330E+02  0.00000000000E+00 0.  1.
         11    1    3    3    0    0 -0.58828495924E+00 -0.36229860258E+00 -0.12745118849E+01  0.14497311049E+01  0.51100000000E-03 0.  1.
        -11    1    3    3    0    0  0.41747161342E+01 -0.82538897038E+01 -0.26227000675E+02  0.27810259163E+02  0.51100000000E-03 0. -1.
         12    1    3    3    0    0  0.25381884931E+02  0.19753337034E+01  0.15949230696E+02  0.30041970403E+02  0.00000000000E+00 0. -1.
</event>
<event>
 7    1  0.1284777E-011  0.5930194E+02  0.7816164E-02  0.1266605E+00
        -11   -1    0    0    0    0  0.00000000000E+00  0.00000000000E+00  0.45593999997E+02  0.45594000000E+02  0.51100000000E-03 0.  1.
         11   -1    0    0    0    0 -0.00000000000E+00 -0.00000000000E+00 -0.45593999997E+02  0.45594000000E+02  0.51100000000E-03 0. -1.
    9900012    2    1    2    0    0  0.29161304742E+02  0.97761122764E+01  0.84122844827E+01  0.59301943554E+02  0.49999999135E+02 0.  0.
        -12    1    1    2    0    0 -0.29161304742E+02 -0.97761122764E+01 -0.84122844827E+01  0.31886056446E+02  0.00000000000E+00 0.  1.
         11    1    3    3    0    0  0.52343918961E+01  0.34079934835E+01  0.65189780186E+01  0.90283084115E+01  0.51100000000E-03 0.  1.
        -11    1    3    3    0    0  0.15361869327E+02 -0.10517226535E+02 -0.15756181674E+02  0.24389677005E+02  0.51100000000E-03 0. -1.
         12    1    3    3    0    0  0.85650435184E+01  0.16885345328E+02  0.17649488138E+02  0.25883958137E+02  0.00000000000E+00 0. -1.
</event>
<event>
 7    1  0.1284777E-011  0.5930194E+02  0.7816164E-02  0.1266605E+00
        -11   -1    0    0    0    0  0.00000000000E+00  0.00000000000E+00  0.45593999997E+02  0.45594000000E+02  0.51100000000E-03 0.  1.
         11   -1    0    0    0    0 -0.00000000000E+00 -0.00000000000E+00 -0.45593999997E+02  0.45594000000E+02  0.51100000000E-03 0. -1.
    9900012    2    1    2    0    0 -0.24800439799E+02 -0.19657728668E+02 -0.39029057697E+01  0.59301940600E+02  0.49999993749E+02 0.  0.
        -12    1    1    2    0    0  0.24800439799E+02  0.19657728668E+02  0.39029057697E+01  0.31886059400E+02  0.00000000000E+00 0.  1.
         11    1    3    3    0    0 -0.98128922052E+00 -0.26296508111E+02  0.12559409073E+02  0.29158326836E+02  0.51100000000E-03 0.  1.
        -11    1    3    3    0    0 -0.28006726165E+01  0.24681343477E+01 -0.33907986387E+01  0.50431111362E+01  0.51100000000E-03 0. -1.
        -12    1    3    3    0    0 -0.21018477962E+02  0.41706450948E+01 -0.13071516204E+02  0.25100502628E+02  0.00000000000E+00 0.  1.
</event>
<event>
 7    1  0.1284777E-011  0.5930192E+02  0.7816164E-02  0.1266605E+00
        -11   -1    0    0    0    0  0.00000000000E+00  0.00000000000E+00  0.45593999997E+02  0.45594000000E+02  0.51100000000E-03 0. -1.
         11   -1    0    0    0    0 -0.00000000000E+00 -0.00000000000E+00 -0.45593999997E+02  0.45594000000E+02  0.51100000000E-03 0.  1.
    9900012    2    1    2    0    0 -0.39039386715E+01  0.26830789125E+02  0.16780650823E+02  0.59301918016E+02  0.49999952561E+02 0.  0.
        -12    1    1    2    0    0  0.39039386715E+01 -0.26830789125E+02 -0.16780650823E+02  0.31886081984E+02  0.00000000000E+00 0.  1.
         11    1    3    3    0    0  0.11537285282E+02  0.42411207766E+01 -0.52203969322E+01  0.13354722068E+02  0.51100000000E-03 0. -1.
        -11    1    3    3    0    0 -0.24607386719E+01 -0.35728647588E+01 -0.46853694491E+01  0.63853961922E+01  0.51100000000E-03 0.  1.
         12    1    3    3    0    0 -0.12980485281E+02  0.26162533108E+02  0.26686417204E+02  0.39561799756E+02  0.00000000000E+00 0. -1.
</event>
<event>
 7    1  0.1284777E-011  0.5930189E+02  0.7816164E-02  0.1266605E+00
        -11   -1    0    0    0    0  0.00000000000E+00  0.00000000000E+00  0.45593999997E+02  0.45594000000E+02  0.51100000000E-03 0.  1.
         11   -1    0    0    0    0 -0.00000000000E+00 -0.00000000000E+00 -0.45593999997E+02  0.45594000000E+02  0.51100000000E-03 0. -1.
    9900012    2    1    2    0    0 -0.20669849395E+02  0.40442942109E+01 -0.23940031056E+02  0.59301888970E+02  0.49999899587E+02 0.  0.
        -12    1    1    2    0    0  0.20669849395E+02 -0.40442942109E+01  0.23940031056E+02  0.31886111030E+02  0.00000000000E+00 0.  1.
         11    1    3    3    0    0  0.38947043316E+01  0.12536772473E+01 -0.22322608889E+01  0.46608387022E+01  0.51100000000E-03 0. -1.
        -11    1    3    3    0    0 -0.11128320164E+02 -0.15752402554E+02 -0.24926388688E+02  0.31516702702E+02  0.51100000000E-03 0.  1.
        -12    1    3    3    0    0 -0.13436233562E+02  0.18543019518E+02  0.32186185206E+01  0.23124347566E+02  0.00000000000E+00 0.  1.
</event>
<event>
 7    1  0.1284777E-011  0.5930197E+02  0.7816164E-02  0.1266605E+00
        -11   -1    0    0    0    0  0.00000000000E+00  0.00000000000E+00  0.45593999997E+02  0.45594000000E+02  0.51100000000E-03 0.  1.
         11   -1    0    0    0    0 -0.00000000000E+00 -0.00000000000E+00 -0.45593999997E+02  0.45594000000E+02  0.51100000000E-03 0. -1.
    9900012    2    1    2    0    0  0.19909503718E+02 -0.24770421728E+02 -0.25993513564E+01  0.59301972365E+02  0.50000051680E+02 0.  0.
        -12    1    1    2    0    0 -0.19909503718E+02  0.24770421728E+02  0.25993513564E+01  0.31886027635E+02  0.00000000000E+00 0.  1.
         11    1    3    3    0    0 -0.54575896104E+00  0.22104564750E+01  0.60203866930E+00  0.23550841794E+01  0.51100000000E-03 0. -1.
        -11    1    3    3    0    0  0.13411988984E+02  0.32748270702E+00 -0.20028236910E+02  0.24106409260E+02  0.51100000000E-03 0.  1.
         12    1    3    3    0    0  0.70432736955E+01 -0.27308360910E+02  0.16826846885E+02  0.32840478925E+02  0.00000000000E+00 0. -1.
</event>
<event>
 7    1  0.1284777E-011  0.5930190E+02  0.7816164E-02  0.1266605E+00
        -11   -1    0    0    0    0  0.00000000000E+00  0.00000000000E+00  0.45593999997E+02  0.45594000000E+02  0.51100000000E-03 0. -1.
         11   -1    0    0    0    0 -0.00000000000E+00 -0.00000000000E+00 -0.45593999997E+02  0.45594000000E+02  0.51100000000E-03 0.  1.
    9900012    2    1    2    0    0 -0.31178125442E+02 -0.49468897749E+00  0.66635886266E+01  0.59301895869E+02  0.49999912169E+02 0.  0.
        -12    1    1    2    0    0  0.31178125442E+02  0.49468897749E+00 -0.66635886266E+01  0.31886104131E+02  0.00000000000E+00 0.  1.
         11    1    3    3    0    0 -0.20905451483E+02 -0.41766202658E+01 -0.18341892921E+01  0.21397343507E+02  0.51100000000E-03 0. -1.
        -11    1    3    3    0    0 -0.14807662603E+02 -0.65768484720E+01 -0.79092844495E+01  0.18029935894E+02  0.51100000000E-03 0.  1.
        -12    1    3    3    0    0  0.45349886433E+01  0.10258779760E+02  0.16407062368E+02  0.19874616467E+02  0.00000000000E+00 0.  1.
</event>
<event>
 7    1  0.1284777E-011  0.5930173E+02  0.7816164E-02  0.1266606E+00
        -11   -1    0    0    0    0  0.00000000000E+00  0.00000000000E+00  0.45593999997E+02  0.45594000000E+02  0.51100000000E-03 0.  1.
         11   -1    0    0    0    0 -0.00000000000E+00 -0.00000000000E+00 -0.45593999997E+02  0.45594000000E+02  0.51100000000E-03 0. -1.
    9900012    2    1    2    0    0  0.26823989337E+00  0.31880333894E+02 -0.55386331541E+00  0.59301726991E+02  0.49999604176E+02 0.  0.
        -12    1    1    2    0    0 -0.26823989337E+00 -0.31880333894E+02  0.55386331541E+00  0.31886273009E+02  0.00000000000E+00 0.  1.
         11    1    3    3    0    0 -0.29616745459E+01  0.25386281684E+02 -0.44078601906E+01  0.25935767688E+02  0.51100000000E-03 0. -1.
        -11    1    3    3    0    0  0.36428141623E+01  0.18134906528E+02 -0.44940014326E+01  0.19035256209E+02  0.51100000000E-03 0.  1.
        -12    1    3    3    0    0 -0.41289972300E+00 -0.11640854318E+02  0.83479983078E+01  0.14330703094E+02  0.00000000000E+00 0.  1.
</event>
<event>
 7    1  0.1284777E-011  0.5930197E+02  0.7816164E-02  0.1266605E+00
        -11   -1    0    0    0    0  0.00000000000E+00  0.00000000000E+00  0.45593999997E+02  0.45594000000E+02  0.51100000000E-03 0. -1.
         11   -1    0    0    0    0 -0.00000000000E+00 -0.00000000000E+00 -0.45593999997E+02  0.45594000000E+02  0.51100000000E-03 0.  1.
    9900012    2    1    2    0    0 -0.21666215054E+02 -0.15604947147E+02  0.17429277829E+02  0.59301968954E+02  0.50000045459E+02 0.  0.
        -12    1    1    2    0    0  0.21666215054E+02  0.15604947147E+02 -0.17429277829E+02  0.31886031046E+02  0.00000000000E+00 0.  1.
         11    1    3    3    0    0  0.65725367631E+01 -0.46346774506E+01  0.12966688879E+02  0.15258227136E+02  0.51100000000E-03 0. -1.
        -11    1    3    3    0    0  0.51969880965E+01 -0.30408716701E+01 -0.56153007667E+01  0.82332975624E+01  0.51100000000E-03 0.  1.
         12    1    3    3    0    0 -0.33435739914E+02 -0.79293980261E+01  0.10077889716E+02  0.35810444256E+02  0.00000000000E+00 0. -1.
</event>
<event>
 7    1  0.1284777E-011  0.5930192E+02  0.7816164E-02  0.1266605E+00
        -11   -1    0    0    0    0  0.00000000000E+00  0.00000000000E+00  0.45593999997E+02  0.45594000000E+02  0.51100000000E-03 0. -1.
         11   -1    0    0    0    0 -0.00000000000E+00 -0.00000000000E+00 -0.45593999997E+02  0.45594000000E+02  0.51100000000E-03 0.  1.
    9900012    2    1    2    0    0  0.20021586556E+02 -0.20961087918E+02 -0.13284998116E+02  0.59301916675E+02  0.49999950115E+02 0.  0.
        -12    1    1    2    0    0 -0.20021586556E+02  0.20961087918E+02  0.13284998116E+02  0.31886083325E+02  0.00000000000E+00 0.  1.
         11    1    3    3    0    0  0.72983851824E+00  0.26942683400E+01 -0.37957535363E+01  0.47116336148E+01  0.51100000000E-03 0. -1.
        -11    1    3    3    0    0  0.50010589265E+01  0.12624983160E+02  0.24740099154E+01  0.13802953144E+02  0.51100000000E-03 0.  1.
         12    1    3    3    0    0  0.14290689111E+02 -0.36280339418E+02 -0.11963254495E+02  0.40787329916E+02  0.00000000000E+00 0. -1.
</event>
<event>
 7    1  0.1284777E-011  0.5930194E+02  0.7816164E-02  0.1266605E+00
        -11   -1    0    0    0    0  0.00000000000E+00  0.00000000000E+00  0.45593999997E+02  0.45594000000E+02  0.51100000000E-03 0.  1.
         11   -1    0    0    0    0 -0.00000000000E+00 -0.00000000000E+00 -0.45593999997E+02  0.45594000000E+02  0.51100000000E-03 0. -1.
    9900012    2    1    2    0    0  0.73127366137E+01 -0.29581960607E+02 -0.93889488923E+01  0.59301939229E+02  0.49999991249E+02 0.  0.
        -12    1    1    2    0    0 -0.73127366137E+01  0.29581960607E+02  0.93889488923E+01  0.31886060771E+02  0.00000000000E+00 0.  1.
         11    1    3    3    0    0 -0.14164675417E+02 -0.16395881288E+02  0.12671679768E+02  0.25100486475E+02  0.51100000000E-03 0. -1.
        -11    1    3    3    0    0  0.64332116547E+01 -0.71499949326E+01 -0.57501414253E+01  0.11205925504E+02  0.51100000000E-03 0.  1.
        -12    1    3    3    0    0  0.15044200376E+02 -0.60360843868E+01 -0.16310487235E+02  0.22995527250E+02  0.00000000000E+00 0.  1.
</event>
<event>
 7    1  0.1284777E-011  0.5930193E+02  0.7816164E-02  0.1266605E+00
        -11   -1    0    0    0    0  0.00000000000E+00  0.00000000000E+00  0.45593999997E+02  0.45594000000E+02  0.51100000000E-03 0.  1.
         11   -1    0    0    0    0 -0.00000000000E+00 -0.00000000000E+00 -0.45593999997E+02  0.45594000000E+02  0.51100000000E-03 0. -1.
    9900012    2    1    2    0    0 -0.54528896305E+01  0.31388048036E+02 -0.13332827079E+01  0.59301933959E+02  0.49999981636E+02 0.  0.
        -12    1    1    2    0    0  0.54528896305E+01 -0.31388048036E+02  0.13332827079E+01  0.31886066041E+02  0.00000000000E+00 0.  1.
         11    1    3    3    0    0  0.30263403705E+01  0.32962692445E+02  0.14543357815E+02  0.36155318918E+02  0.51100000000E-03 0. -1.
        -11    1    3    3    0    0 -0.60188705605E+01  0.35884917603E+01 -0.83830096529E+00  0.70573950369E+01  0.51100000000E-03 0.  1.
        -12    1    3    3    0    0 -0.24603594405E+01 -0.51631361693E+01 -0.15038339558E+02  0.16089220004E+02  0.00000000000E+00 0.  1.
</event>
<event>
 7    1  0.1284777E-011  0.5930194E+02  0.7816164E-02  0.1266605E+00
        -11   -1    0    0    0    0  0.00000000000E+00  0.00000000000E+00  0.45593999997E+02  0.45594000000E+02  0.51100000000E-03 0.  1.
         11   -1    0    0    0    0 -0.00000000000E+00 -0.00000000000E+00 -0.45593999997E+02  0.45594000000E+02  0.51100000000E-03 0. -1.
    9900012    2    1    2    0    0 -0.10540881463E+02 -0.13259575803E+01 -0.30064137828E+02  0.59301941465E+02  0.49999995327E+02 0.  0.
        -12    1    1    2    0    0  0.10540881463E+02  0.13259575803E+01  0.30064137828E+02  0.31886058535E+02  0.00000000000E+00 0.  1.
         11    1    3    3    0    0 -0.36730882642E+01 -0.14174771390E+01  0.30104916191E+01  0.49561960096E+01  0.51100000000E-03 0. -1.
        -11    1    3    3    0    0 -0.16995266406E+02 -0.12507699867E+02 -0.45918003564E+01  0.21595514972E+02  0.51100000000E-03 0.  1.
         12    1    3    3    0    0  0.10127473206E+02  0.12599219425E+02 -0.28482829091E+02  0.32750230483E+02  0.00000000000E+00 0. -1.
</event>
<event>
 7    1  0.1284777E-011  0.5930216E+02  0.7816164E-02  0.1266604E+00
        -11   -1    0    0    0    0  0.00000000000E+00  0.00000000000E+00  0.45593999997E+02  0.45594000000E+02  0.51100000000E-03 0. -1.
         11   -1    0    0    0    0 -0.00000000000E+00 -0.00000000000E+00 -0.45593999997E+02  0.45594000000E+02  0.51100000000E-03 0.  1.
    9900012    2    1    2    0    0  0.84785218367E+01 -0.21837934496E+02  0.21631602411E+02  0.59302157712E+02  0.50000389707E+02 0.  0.
        -12    1    1    2    0    0 -0.84785218367E+01  0.21837934496E+02 -0.21631602411E+02  0.31885842288E+02  0.00000000000E+00 0.  1.
         11    1    3    3    0    0 -0.94954158337E+01 -0.13321481856E+02  0.15044140932E+02  0.22225007926E+02  0.51100000000E-03 0. -1.
        -11    1    3    3    0    0 -0.81430085635E+01 -0.98735731217E+00  0.54979759206E+01  0.98747760689E+01  0.51100000000E-03 0.  1.
        -12    1    3    3    0    0  0.26116946234E+02 -0.75290953274E+01  0.10894855583E+01  0.27202373717E+02  0.00000000000E+00 0.  1.
</event>
<event>
 7    1  0.1284777E-011  0.5930195E+02  0.7816164E-02  0.1266605E+00
        -11   -1    0    0    0    0  0.00000000000E+00  0.00000000000E+00  0.45593999997E+02  0.45594000000E+02  0.51100000000E-03 0. -1.
         11   -1    0    0    0    0 -0.00000000000E+00 -0.00000000000E+00 -0.45593999997E+02  0.45594000000E+02  0.51100000000E-03 0.  1.
    9900012    2    1    2    0    0  0.25999811426E+02  0.17605375097E+02  0.55480272775E+01  0.59301952375E+02  0.50000015223E+02 0.  0.
        -12    1    1    2    0    0 -0.25999811426E+02 -0.17605375097E+02 -0.55480272775E+01  0.31886047625E+02  0.00000000000E+00 0.  1.
         11    1    3    3    0    0  0.25401619341E+02  0.11168437543E+02  0.16328756437E+02  0.32196343726E+02  0.51100000000E-03 0.  1.
        -11    1    3    3    0    0  0.12499228717E+01  0.30438366309E+01  0.76637607234E+01  0.83402923994E+01  0.51100000000E-03 0. -1.
        -12    1    3    3    0    0 -0.65173078712E+00  0.33931009236E+01 -0.18444489883E+02  0.18765316249E+02  0.00000000000E+00 0.  1.
</event>
<event>
 7    1  0.1284777E-011  0.5930195E+02  0.7816164E-02  0.1266605E+00
        -11   -1    0    0    0    0  0.00000000000E+00  0.00000000000E+00  0.45593999997E+02  0.45594000000E+02  0.51100000000E-03 0.  1.
         11   -1    0    0    0    0 -0.00000000000E+00 -0.00000000000E+00 -0.45593999997E+02  0.45594000000E+02  0.51100000000E-03 0. -1.
    9900012    2    1    2    0    0 -0.23394615524E+02 -0.16315833285E+02 -0.14255025238E+02  0.59301949824E+02  0.50000010570E+02 0.  0.
        -12    1    1    2    0    0  0.23394615524E+02  0.16315833285E+02  0.14255025238E+02  0.31886050176E+02  0.00000000000E+00 0.  1.
         11    1    3    3    0    0 -0.12643172707E+02  0.65255666482E+01  0.60457773245E+01  0.15459115754E+02  0.51100000000E-03 0.  1.
        -11    1    3    3    0    0 -0.33877207310E+01  0.31331303838E+01 -0.15815128351E+02  0.16474569578E+02  0.51100000000E-03 0. -1.
        -12    1    3    3    0    0 -0.73637220862E+01 -0.25974530317E+02 -0.44856742118E+01  0.27368264492E+02  0.00000000000E+00 0.  1.
</event>
<event>
 7    1  0.1284777E-011  0.5930194E+02  0.7816164E-02  0.1266605E+00
        -11   -1    0    0    0    0  0.00000000000E+00  0.00000000000E+00  0.45593999997E+02  0.45594000000E+02  0.51100000000E-03 0. -1.
         11   -1    0    0    0    0 -0.00000000000E+00 -0.00000000000E+00 -0.45593999997E+02  0.45594000000E+02  0.51100000000E-03 0.  1.
    9900012    2    1    2    0    0 -0.14152427024E+02  0.17030463451E+01  0.28522436466E+02  0.59301938163E+02  0.49999989304E+02 0.  0.
        -12    1    1    2    0    0  0.14152427024E+02 -0.17030463451E+01 -0.28522436466E+02  0.31886061837E+02  0.00000000000E+00 0.  1.
         11    1    3    3    0    0  0.12798183507E+02 -0.57023631876E+01  0.32721417387E+01  0.14388097818E+02  0.51100000000E-03 0.  1.
        -11    1    3    3    0    0 -0.10151770624E+01 -0.68549886823E+00  0.16246418021E+02  0.16292531784E+02  0.51100000000E-03 0. -1.
        -12    1    3    3    0    0 -0.25935433469E+02  0.80909084009E+01  0.90038767062E+01  0.28621308560E+02  0.00000000000E+00 0.  1.
</event>
<event>
 7    1  0.2081240E-011  0.5930195E+02  0.7816164E-02  0.1266605E+00
        -11   -1    0    0    0    0  0.00000000000E+00  0.00000000000E+00  0.45593999997E+02  0.45594000000E+02  0.51100000000E-03 0. -1.
         11   -1    0    0    0    0 -0.00000000000E+00 -0.00000000000E+00 -0.45593999997E+02  0.45594000000E+02  0.51100000000E-03 0.  1.
    9900012    2    1    2    0    0 -0.18858950181E+02 -0.16882998752E+02  0.19391347484E+02  0.59301952800E+02  0.50000015999E+02 0.  0.
        -12    1    1    2    0    0  0.18858950181E+02  0.16882998752E+02 -0.19391347484E+02  0.31886047200E+02  0.00000000000E+00 0.  1.
         11    1    3    3    0    0 -0.21299750545E+02 -0.15428434243E+02  0.32490821421E+01  0.26500424364E+02  0.51100000000E-03 0. -1.
        -11    1    3    3    0    0 -0.38057867605E+01  0.59507810963E+01 -0.55897541500E+01  0.90078388219E+01  0.51100000000E-03 0.  1.
         12    1    3    3    0    0  0.62465871241E+01 -0.74053456050E+01  0.21732019492E+02  0.23793689614E+02  0.00000000000E+00 0. -1.
</event>
<event>
 7    1  0.1284777E-011  0.5930190E+02  0.7816164E-02  0.1266605E+00
        -11   -1    0    0    0    0  0.00000000000E+00  0.00000000000E+00  0.45593999997E+02  0.45594000000E+02  0.51100000000E-03 0. -1.
         11   -1    0    0    0    0 -0.00000000000E+00 -0.00000000000E+00 -0.45593999997E+02  0.45594000000E+02  0.51100000000E-03 0.  1.
    9900012    2    1    2    0    0  0.24564144716E+02  0.16901715115E+02  0.11298596566E+02  0.59301898579E+02  0.49999917113E+02 0.  0.
        -12    1    1    2    0    0 -0.24564144716E+02 -0.16901715115E+02 -0.11298596566E+02  0.31886101421E+02  0.00000000000E+00 0.  1.
         11    1    3    3    0    0  0.15904321392E+02  0.13002393333E+02  0.17153867558E+02  0.26763124701E+02  0.51100000000E-03 0. -1.
        -11    1    3    3    0    0  0.11538767918E+02  0.15665443909E+02 -0.97916883624E+00  0.19480966860E+02  0.51100000000E-03 0.  1.
        -12    1    3    3    0    0 -0.28789445937E+01 -0.11766122127E+02 -0.48761021558E+01  0.13057807018E+02  0.00000000000E+00 0.  1.
</event>
<event>
 7    1  0.1284777E-011  0.5930193E+02  0.7816164E-02  0.1266605E+00
        -11   -1    0    0    0    0  0.00000000000E+00  0.00000000000E+00  0.45593999997E+02  0.45594000000E+02  0.51100000000E-03 0. -1.
         11   -1    0    0    0    0 -0.00000000000E+00 -0.00000000000E+00 -0.45593999997E+02  0.45594000000E+02  0.51100000000E-03 0.  1.
    9900012    2    1    2    0    0 -0.12046304857E+02  0.20189907701E+02  0.21540094353E+02  0.59301929398E+02  0.49999973320E+02 0.  0.
        -12    1    1    2    0    0  0.12046304857E+02 -0.20189907701E+02 -0.21540094353E+02  0.31886070602E+02  0.00000000000E+00 0.  1.
         11    1    3    3    0    0  0.92102146230E+01  0.14762503748E+02  0.22754561258E+02  0.28644888351E+02  0.51100000000E-03 0. -1.
        -11    1    3    3    0    0 -0.39824822728E-02  0.75926751008E+01  0.41200722716E+01  0.86385025803E+01  0.51100000000E-03 0.  1.
        -12    1    3    3    0    0 -0.21252536998E+02 -0.21652711480E+01 -0.53345391773E+01  0.22018538467E+02  0.00000000000E+00 0.  1.
</event>
<event>
 7    1  0.1284777E-011  0.5930193E+02  0.7816164E-02  0.1266605E+00
        -11   -1    0    0    0    0  0.00000000000E+00  0.00000000000E+00  0.45593999997E+02  0.45594000000E+02  0.51100000000E-03 0. -1.
         11   -1    0    0    0    0 -0.00000000000E+00 -0.00000000000E+00 -0.45593999997E+02  0.45594000000E+02  0.51100000000E-03 0.  1.
    9900012    2    1    2    0    0 -0.11816886830E+02 -0.29013811634E+02 -0.59398360435E+01  0.59301925734E+02  0.49999966636E+02 0.  0.
        -12    1    1    2    0    0  0.11816886830E+02  0.29013811634E+02  0.59398360435E+01  0.31886074266E+02  0.00000000000E+00 0.  1.
         11    1    3    3    0    0 -0.62340644954E+01 -0.19547671262E+02  0.11490062477E+02  0.23515878634E+02  0.51100000000E-03 0. -1.
        -11    1    3    3    0    0 -0.66024936184E+01  0.71195202458E+01  0.23123864583E+01  0.99813637297E+01  0.51100000000E-03 0.  1.
         12    1    3    3    0    0  0.10196712837E+01 -0.16585660618E+02 -0.19742284979E+02  0.25804683370E+02  0.00000000000E+00 0. -1.
</event>
<event>
 7    1  0.1284777E-011  0.5930198E+02  0.7816164E-02  0.1266605E+00
        -11   -1    0    0    0    0  0.00000000000E+00  0.00000000000E+00  0.45593999997E+02  0.45594000000E+02  0.51100000000E-03 0. -1.
         11   -1    0    0    0    0 -0.00000000000E+00 -0.00000000000E+00 -0.45593999997E+02  0.45594000000E+02  0.51100000000E-03 0.  1.
    9900012    2    1    2    0    0 -0.89455989014E+00 -0.92396142536E+01  0.30504880967E+02  0.59301976859E+02  0.50000059876E+02 0.  0.
        -12    1    1    2    0    0  0.89455989014E+00  0.92396142536E+01 -0.30504880967E+02  0.31886023141E+02  0.00000000000E+00 0.  1.
         11    1    3    3    0    0 -0.52919707526E+01  0.17421352815E+01  0.23539036760E+02  0.24189382829E+02  0.51100000000E-03 0. -1.
        -11    1    3    3    0    0 -0.11446863749E+02 -0.88199446981E+01  0.11525645125E+02  0.18484117776E+02  0.51100000000E-03 0.  1.
        -12    1    3    3    0    0  0.15844274611E+02 -0.21618048371E+01 -0.45598009180E+01  0.16628476254E+02  0.00000000000E+00 0.  1.
</event>
<event>
 7    1  0.1284777E-011  0.5930189E+02  0.7816164E-02  0.1266605E+00
        -11   -1    0    0    0    0  0.00000000000E+00  0.00000000000E+00  0.45593999997E+02  0.45594000000E+02  0.51100000000E-03 0.  1.
         11   -1    0    0    0    0 -0.00000000000E+00 -0.00000000000E+00 -0.45593999997E+02  0.45594000000E+02  0.51100000000E-03 0. -1.
    9900012    2    1    2    0    0 -0.10761678755E+02  0.18663005908E+02  0.23507499890E+02  0.59301889070E+02  0.49999899771E+02 0.  0.
        -12    1    1    2    0    0  0.10761678755E+02 -0.18663005908E+02 -0.23507499890E+02  0.31886110930E+02  0.00000000000E+00 0.  1.
         11    1    3    3    0    0 -0.23491146989E+01  0.16070092220E+02 -0.41537851172E+01  0.16763655177E+02  0.51100000000E-03 0. -1.
        -11    1    3    3    0    0 -0.33951329124E+01  0.16721871513E+02  0.12022157018E+02  0.20872953170E+02  0.51100000000E-03 0.  1.
        -12    1    3    3    0    0 -0.50174311437E+01 -0.14128957826E+02  0.15639127989E+02  0.21665280723E+02  0.00000000000E+00 0.  1.
</event>
<event>
 7    1  0.1284777E-011  0.5930195E+02  0.7816164E-02  0.1266605E+00
        -11   -1    0    0    0    0  0.00000000000E+00  0.00000000000E+00  0.45593999997E+02  0.45594000000E+02  0.51100000000E-03 0.  1.
         11   -1    0    0    0    0 -0.00000000000E+00 -0.00000000000E+00 -0.45593999997E+02  0.45594000000E+02  0.51100000000E-03 0. -1.
    9900012    2    1    2    0    0 -0.77414790408E+01  0.26433413541E+02 -0.16064385763E+02  0.59301947577E+02  0.50000006473E+02 0.  0.
        -12    1    1    2    0    0  0.77414790408E+01 -0.26433413541E+02  0.16064385763E+02  0.31886052423E+02  0.00000000000E+00 0.  1.
         11    1    3    3    0    0  0.51200765718E+01  0.36927177999E+01 -0.23325565341E+01  0.67299456979E+01  0.51100000000E-03 0.  1.
        -11    1    3    3    0    0 -0.19263214907E+01  0.34261529736E+02 -0.57463185569E+01  0.34793437766E+02  0.51100000000E-03 0. -1.
        -12    1    3    3    0    0 -0.10935234122E+02 -0.11520833995E+02 -0.79855106724E+01  0.17778564113E+02  0.00000000000E+00 0.  1.
</event>
<event>
 7    1  0.1284777E-011  0.5930181E+02  0.7816164E-02  0.1266605E+00
        -11   -1    0    0    0    0  0.00000000000E+00  0.00000000000E+00  0.45593999997E+02  0.45594000000E+02  0.51100000000E-03 0.  1.
         11   -1    0    0    0    0 -0.00000000000E+00 -0.00000000000E+00 -0.45593999997E+02  0.45594000000E+02  0.51100000000E-03 0. -1.
    9900012    2    1    2    0    0 -0.25147598013E+02  0.73701028440E+01 -0.18166150995E+02  0.59301809513E+02  0.49999754678E+02 0.  0.
        -12    1    1    2    0    0  0.25147598013E+02 -0.73701028440E+01  0.18166150995E+02  0.31886190487E+02  0.00000000000E+00 0.  1.
         11    1    3    3    0    0 -0.14131165209E+02 -0.76257510954E+01  0.93964704265E+01  0.18604718936E+02  0.51100000000E-03 0. -1.
        -11    1    3    3    0    0  0.44792407422E+01  0.39263558078E+01  0.13204618829E+01  0.61011054245E+01  0.51100000000E-03 0.  1.
         12    1    3    3    0    0 -0.15495673546E+02  0.11069498132E+02 -0.28883083305E+02  0.34595985153E+02  0.00000000000E+00 0. -1.
</event>
<event>
 7    1  0.1284777E-011  0.5930193E+02  0.7816164E-02  0.1266605E+00
        -11   -1    0    0    0    0  0.00000000000E+00  0.00000000000E+00  0.45593999997E+02  0.45594000000E+02  0.51100000000E-03 0. -1.
         11   -1    0    0    0    0 -0.00000000000E+00 -0.00000000000E+00 -0.45593999997E+02  0.45594000000E+02  0.51100000000E-03 0.  1.
    9900012    2    1    2    0    0 -0.22409358404E+02  0.22043290610E+02  0.53512305674E+01  0.59301926651E+02  0.49999968310E+02 0.  0.
        -12    1    1    2    0    0  0.22409358404E+02 -0.22043290610E+02 -0.53512305674E+01  0.31886073349E+02  0.00000000000E+00 0.  1.
         11    1    3    3    0    0 -0.15167598791E+02  0.10176687110E+02 -0.86194564627E+01  0.20196931540E+02  0.51100000000E-03 0. -1.
        -11    1    3    3    0    0 -0.83671697250E+01  0.16478446031E+02 -0.53258285707E+01  0.19233126710E+02  0.51100000000E-03 0.  1.
         12    1    3    3    0    0  0.11254101126E+01 -0.46118425314E+01  0.19296515601E+02  0.19871868402E+02  0.00000000000E+00 0. -1.
</event>
<event>
 7    1  0.1284777E-011  0.5930195E+02  0.7816164E-02  0.1266605E+00
        -11   -1    0    0    0    0  0.00000000000E+00  0.00000000000E+00  0.45593999997E+02  0.45594000000E+02  0.51100000000E-03 0. -1.
         11   -1    0    0    0    0 -0.00000000000E+00 -0.00000000000E+00 -0.45593999997E+02  0.45594000000E+02  0.51100000000E-03 0.  1.
    9900012    2    1    2    0    0 -0.23561580449E+02  0.20822683686E+02 -0.52903488256E+01  0.59301952584E+02  0.50000015605E+02 0.  0.
        -12    1    1    2    0    0  0.23561580449E+02 -0.20822683686E+02  0.52903488256E+01  0.31886047416E+02  0.00000000000E+00 0.  1.
         11    1    3    3    0    0 -0.62097625446E+01  0.74597816173E+01  0.13721147175E+02  0.16807122678E+02  0.51100000000E-03 0. -1.
        -11    1    3    3    0    0  0.39199821094E+01  0.13982707330E+02 -0.89899099335E+00  0.14549589310E+02  0.51100000000E-03 0.  1.
        -12    1    3    3    0    0 -0.21271800013E+02 -0.61980526124E+00 -0.18112505007E+02  0.27945240597E+02  0.00000000000E+00 0.  1.
</event>
<event>
 7    1  0.1284777E-011  0.5930194E+02  0.7816164E-02  0.1266605E+00
        -11   -1    0    0    0    0  0.00000000000E+00  0.00000000000E+00  0.45593999997E+02  0.45594000000E+02  0.51100000000E-03 0.  1.
         11   -1    0    0    0    0 -0.00000000000E+00 -0.00000000000E+00 -0.45593999997E+02  0.45594000000E+02  0.51100000000E-03 0. -1.
    9900012    2    1    2    0    0  0.14815984129E+02 -0.19572437897E+02 -0.20350114033E+02  0.59301939533E+02  0.49999991803E+02 0.  0.
        -12    1    1    2    0    0 -0.14815984129E+02  0.19572437897E+02  0.20350114033E+02  0.31886060467E+02  0.00000000000E+00 0.  1.
         11    1    3    3    0    0 -0.34758787617E+01  0.61132919082E+01 -0.14030765447E+02  0.15694471970E+02  0.51100000000E-03 0. -1.
        -11    1    3    3    0    0 -0.12447154199E+01  0.44232148822E+01  0.41796167328E+01  0.62115491357E+01  0.51100000000E-03 0.  1.
        -12    1    3    3    0    0  0.19536578311E+02 -0.30108944688E+02 -0.10498965319E+02  0.37395918428E+02  0.00000000000E+00 0.  1.
</event>
<event>
 7    1  0.1284777E-011  0.5930194E+02  0.7816164E-02  0.1266605E+00
        -11   -1    0    0    0    0  0.00000000000E+00  0.00000000000E+00  0.45593999997E+02  0.45594000000E+02  0.51100000000E-03 0.  1.
         11   -1    0    0    0    0 -0.00000000000E+00 -0.00000000000E+00 -0.45593999997E+02  0.45594000000E+02  0.51100000000E-03 0. -1.
    9900012    2    1    2    0    0  0.12515245937E+02 -0.19751622072E+02 -0.21678620634E+02  0.59301944303E+02  0.50000000501E+02 0.  0.
        -12    1    1    2    0    0 -0.12515245937E+02  0.19751622072E+02  0.21678620634E+02  0.31886055697E+02  0.00000000000E+00 0.  1.
         11    1    3    3    0    0  0.43239450695E+01  0.52672946783E+01 -0.15803762620E+02  0.17210456339E+02  0.51100000000E-03 0. -1.
        -11    1    3    3    0    0 -0.99674111336E+01  0.65569446111E+00  0.51289873720E+00  0.10002114042E+02  0.51100000000E-03 0.  1.
        -12    1    3    3    0    0  0.18158712001E+02 -0.25674611211E+02 -0.63877567520E+01  0.32089373922E+02  0.00000000000E+00 0.  1.
</event>
<event>
 7    1  0.1284777E-011  0.5930192E+02  0.7816164E-02  0.1266605E+00
        -11   -1    0    0    0    0  0.00000000000E+00  0.00000000000E+00  0.45593999997E+02  0.45594000000E+02  0.51100000000E-03 0.  1.
         11   -1    0    0    0    0 -0.00000000000E+00 -0.00000000000E+00 -0.45593999997E+02  0.45594000000E+02  0.51100000000E-03 0. -1.
    9900012    2    1    2    0    0  0.25554663929E+02  0.17302418099E+02 -0.80191961500E+01  0.59301921102E+02  0.49999958189E+02 0.  0.
        -12    1    1    2    0    0 -0.25554663929E+02 -0.17302418099E+02  0.80191961500E+01  0.31886078898E+02  0.00000000000E+00 0.  1.
         11    1    3    3    0    0  0.25318396126E+02 -0.10033337055E+01  0.39883207611E+01  0.25650235158E+02  0.51100000000E-03 0. -1.
        -11    1    3    3    0    0 -0.12040671396E+01 -0.17339196013E+01  0.61925966104E+01  0.65425154108E+01  0.51100000000E-03 0.  1.
         12    1    3    3    0    0  0.14403349429E+01  0.20039671406E+02 -0.18200113522E+02  0.27109170533E+02  0.00000000000E+00 0. -1.
</event>
<event>
 7    1  0.1284777E-011  0.5930193E+02  0.7816164E-02  0.1266605E+00
        -11   -1    0    0    0    0  0.00000000000E+00  0.00000000000E+00  0.45593999997E+02  0.45594000000E+02  0.51100000000E-03 0.  1.
         11   -1    0    0    0    0 -0.00000000000E+00 -0.00000000000E+00 -0.45593999997E+02  0.45594000000E+02  0.51100000000E-03 0. -1.
    9900012    2    1    2    0    0  0.18388238563E+02  0.23610285453E+02 -0.11006749999E+02  0.59301930280E+02  0.49999974927E+02 0.  0.
        -12    1    1    2    0    0 -0.18388238563E+02 -0.23610285453E+02  0.11006749999E+02  0.31886069720E+02  0.00000000000E+00 0.  1.
         11    1    3    3    0    0  0.74708425615E+01  0.16015073201E+02  0.16811096793E+02  0.24390757140E+02  0.51100000000E-03 0.  1.
        -11    1    3    3    0    0  0.20490702457E+01  0.42771272043E+01  0.76215506455E+00  0.48034765115E+01  0.51100000000E-03 0. -1.
        -12    1    3    3    0    0  0.88683257561E+01  0.33180850481E+01 -0.28580001857E+02  0.30107696628E+02  0.00000000000E+00 0.  1.
</event>
<event>
 7    1  0.1284777E-011  0.5930201E+02  0.7816164E-02  0.1266605E+00
        -11   -1    0    0    0    0  0.00000000000E+00  0.00000000000E+00  0.45593999997E+02  0.45594000000E+02  0.51100000000E-03 0.  1.
         11   -1    0    0    0    0 -0.00000000000E+00 -0.00000000000E+00 -0.45593999997E+02  0.45594000000E+02  0.51100000000E-03 0. -1.
    9900012    2    1    2    0    0 -0.45407689690E+01 -0.23164486483E+02 -0.21436048311E+02  0.59302012733E+02  0.50000125301E+02 0.  0.
        -12    1    1    2    0    0  0.45407689690E+01  0.23164486483E+02  0.21436048311E+02  0.31885987267E+02  0.00000000000E+00 0.  1.
         11    1    3    3    0    0  0.28937937601E+01 -0.24688970121E+02 -0.12206887207E+02  0.27693453803E+02  0.51100000000E-03 0. -1.
        -11    1    3    3    0    0 -0.80613056200E+01 -0.88940346275E+01 -0.15367517908E+02  0.19499977107E+02  0.51100000000E-03 0.  1.
        -12    1    3    3    0    0  0.62674289096E+00  0.10418518266E+02  0.61383568042E+01  0.12108581823E+02  0.00000000000E+00 0.  1.
</event>
<event>
 7    1  0.1284777E-011  0.5930193E+02  0.7816164E-02  0.1266605E+00
        -11   -1    0    0    0    0  0.00000000000E+00  0.00000000000E+00  0.45593999997E+02  0.45594000000E+02  0.51100000000E-03 0. -1.
         11   -1    0    0    0    0 -0.00000000000E+00 -0.00000000000E+00 -0.45593999997E+02  0.45594000000E+02  0.51100000000E-03 0.  1.
    9900012    2    1    2    0    0 -0.10998146959E+02  0.44189152253E+00  0.29926023771E+02  0.59301930888E+02  0.49999976037E+02 0.  0.
        -12    1    1    2    0    0  0.10998146959E+02 -0.44189152253E+00 -0.29926023771E+02  0.31886069112E+02  0.00000000000E+00 0.  1.
         11    1    3    3    0    0 -0.10624795882E+02  0.91954759256E+01  0.19597634497E+02  0.24114525564E+02  0.51100000000E-03 0. -1.
        -11    1    3    3    0    0 -0.95392209592E+01  0.91797276088E+01  0.62446587954E+01  0.14637619315E+02  0.51100000000E-03 0.  1.
         12    1    3    3    0    0  0.91658698822E+01 -0.17933312012E+02  0.40837304791E+01  0.20549786010E+02  0.00000000000E+00 0. -1.
</event>
<event>
 7    1  0.1284777E-011  0.5930195E+02  0.7816164E-02  0.1266605E+00
        -11   -1    0    0    0    0  0.00000000000E+00  0.00000000000E+00  0.45593999997E+02  0.45594000000E+02  0.51100000000E-03 0.  1.
         11   -1    0    0    0    0 -0.00000000000E+00 -0.00000000000E+00 -0.45593999997E+02  0.45594000000E+02  0.51100000000E-03 0. -1.
    9900012    2    1    2    0    0  0.26741950959E+02 -0.79616741444E+00 -0.17348032183E+02  0.59301952201E+02  0.50000014906E+02 0.  0.
        -12    1    1    2    0    0 -0.26741950959E+02  0.79616741444E+00  0.17348032183E+02  0.31886047799E+02  0.00000000000E+00 0.  1.
         11    1    3    3    0    0  0.22075031167E+02 -0.67448343724E+01 -0.12283543096E+01  0.23115117268E+02  0.51100000000E-03 0.  1.
        -11    1    3    3    0    0  0.11079332963E+02  0.16043025152E+02 -0.56672879446E+01  0.20303901789E+02  0.51100000000E-03 0. -1.
        -12    1    3    3    0    0 -0.64124131722E+01 -0.10094358194E+02 -0.10452389929E+02  0.15882933144E+02  0.00000000000E+00 0.  1.
</event>
<event>
 7    1  0.1284777E-011  0.5930195E+02  0.7816164E-02  0.1266605E+00
        -11   -1    0    0    0    0  0.00000000000E+00  0.00000000000E+00  0.45593999997E+02  0.45594000000E+02  0.51100000000E-03 0.  1.
         11   -1    0    0    0    0 -0.00000000000E+00 -0.00000000000E+00 -0.45593999997E+02  0.45594000000E+02  0.51100000000E-03 0. -1.
    9900012    2    1    2    0    0 -0.10126245174E+02  0.51230509911E+01 -0.29798217262E+02  0.59301949056E+02  0.50000009171E+02 0.  0.
        -12    1    1    2    0    0  0.10126245174E+02 -0.51230509911E+01  0.29798217262E+02  0.31886050944E+02  0.00000000000E+00 0.  1.
         11    1    3    3    0    0 -0.11876245491E+02  0.15767372613E+02 -0.16839109864E+02  0.25946307393E+02  0.51100000000E-03 0. -1.
        -11    1    3    3    0    0 -0.79930796244E+01  0.66160879997E+01 -0.15645200629E+01  0.10493315281E+02  0.51100000000E-03 0.  1.
         12    1    3    3    0    0  0.97430799413E+01 -0.17260409621E+02 -0.11394587335E+02  0.22862326382E+02  0.00000000000E+00 0. -1.
</event>
<event>
 7    1  0.1284777E-011  0.5930194E+02  0.7816164E-02  0.1266605E+00
        -11   -1    0    0    0    0  0.00000000000E+00  0.00000000000E+00  0.45593999997E+02  0.45594000000E+02  0.51100000000E-03 0.  1.
         11   -1    0    0    0    0 -0.00000000000E+00 -0.00000000000E+00 -0.45593999997E+02  0.45594000000E+02  0.51100000000E-03 0. -1.
    9900012    2    1    2    0    0 -0.27953157495E+02 -0.11121747134E+02 -0.10566374952E+02  0.59301944225E+02  0.50000000360E+02 0.  0.
        -12    1    1    2    0    0  0.27953157495E+02  0.11121747134E+02  0.10566374952E+02  0.31886055775E+02  0.00000000000E+00 0.  1.
         11    1    3    3    0    0 -0.76583782346E+01 -0.94327841458E+01 -0.14626793133E+02  0.19015026993E+02  0.51100000000E-03 0. -1.
        -11    1    3    3    0    0 -0.60117995603E+01  0.37614610871E+01 -0.14559765341E+02  0.16194971148E+02  0.51100000000E-03 0.  1.
        -12    1    3    3    0    0 -0.14282979700E+02 -0.54504240749E+01  0.18620183522E+02  0.24091946084E+02  0.00000000000E+00 0.  1.
</event>
<event>
 7    1  0.1284777E-011  0.5930194E+02  0.7816164E-02  0.1266605E+00
        -11   -1    0    0    0    0  0.00000000000E+00  0.00000000000E+00  0.45593999997E+02  0.45594000000E+02  0.51100000000E-03 0.  1.
         11   -1    0    0    0    0 -0.00000000000E+00 -0.00000000000E+00 -0.45593999997E+02  0.45594000000E+02  0.51100000000E-03 0. -1.
    9900012    2    1    2    0    0 -0.23088215638E+02  0.57880149172E+01 -0.21216833118E+02  0.59301939949E+02  0.49999992561E+02 0.  0.
        -12    1    1    2    0    0  0.23088215638E+02 -0.57880149172E+01  0.21216833118E+02  0.31886060051E+02  0.00000000000E+00 0.  1.
         11    1    3    3    0    0 -0.13926514620E+02 -0.56256919651E+00 -0.26455355932E+01  0.14186724513E+02  0.51100000000E-03 0. -1.
        -11    1    3    3    0    0 -0.18490082250E+02 -0.10425725354E+02 -0.56166407122E+01  0.21957357398E+02  0.51100000000E-03 0.  1.
        -12    1    3    3    0    0  0.93283812326E+01  0.16776309467E+02 -0.12954656813E+02  0.23157858038E+02  0.00000000000E+00 0.  1.
</event>
<event>
 7    1  0.1284777E-011  0.5930197E+02  0.7816164E-02  0.1266605E+00
        -11   -1    0    0    0    0  0.00000000000E+00  0.00000000000E+00  0.45593999997E+02  0.45594000000E+02  0.51100000000E-03 0.  1.
         11   -1    0    0    0    0 -0.00000000000E+00 -0.00000000000E+00 -0.45593999997E+02  0.45594000000E+02  0.51100000000E-03 0. -1.
    9900012    2    1    2    0    0  0.32212924324E+01 -0.17904035053E+02 -0.26187543583E+02  0.59301974298E+02  0.50000055206E+02 0.  0.
        -12    1    1    2    0    0 -0.32212924324E+01  0.17904035053E+02  0.26187543583E+02  0.31886025702E+02  0.00000000000E+00 0.  1.
         11    1    3    3    0    0 -0.53116291112E+01 -0.12445705998E+02 -0.23334435438E+02  0.26974152055E+02  0.51100000000E-03 0. -1.
        -11    1    3    3    0    0  0.31122604591E+01  0.88149526887E+01 -0.11469316770E+02  0.14796444961E+02  0.51100000000E-03 0.  1.
        -12    1    3    3    0    0  0.54206610844E+01 -0.14273281743E+02  0.86162086249E+01  0.17531377282E+02  0.00000000000E+00 0.  1.
</event>
<event>
 7    1  0.1284777E-011  0.5930194E+02  0.7816164E-02  0.1266605E+00
        -11   -1    0    0    0    0  0.00000000000E+00  0.00000000000E+00  0.45593999997E+02  0.45594000000E+02  0.51100000000E-03 0.  1.
         11   -1    0    0    0    0 -0.00000000000E+00 -0.00000000000E+00 -0.45593999997E+02  0.45594000000E+02  0.51100000000E-03 0. -1.
    9900012    2    1    2    0    0 -0.16391053264E+02  0.24026853201E+02 -0.13067686747E+02  0.59301941311E+02  0.49999995045E+02 0.  0.
        -12    1    1    2    0    0  0.16391053264E+02 -0.24026853201E+02  0.13067686747E+02  0.31886058689E+02  0.00000000000E+00 0.  1.
         11    1    3    3    0    0 -0.30526060327E+01 -0.21105856266E+01 -0.14214965930E+02  0.14691433964E+02  0.51100000000E-03 0. -1.
        -11    1    3    3    0    0 -0.81415166189E+01  0.70059418874E+01 -0.15407971954E+02  0.18782255311E+02  0.51100000000E-03 0.  1.
        -12    1    3    3    0    0 -0.51969306121E+01  0.19131496940E+02  0.16555251137E+02  0.25828252035E+02  0.00000000000E+00 0.  1.
</event>
<event>
 7    1  0.1284777E-011  0.5930194E+02  0.7816164E-02  0.1266605E+00
        -11   -1    0    0    0    0  0.00000000000E+00  0.00000000000E+00  0.45593999997E+02  0.45594000000E+02  0.51100000000E-03 0. -1.
         11   -1    0    0    0    0 -0.00000000000E+00 -0.00000000000E+00 -0.45593999997E+02  0.45594000000E+02  0.51100000000E-03 0.  1.
    9900012    2    1    2    0    0  0.19304141541E+01  0.19581299248E+02  0.25091178349E+02  0.59301937057E+02  0.49999987287E+02 0.  0.
        -12    1    1    2    0    0 -0.19304141541E+01 -0.19581299248E+02 -0.25091178349E+02  0.31886062943E+02  0.00000000000E+00 0.  1.
         11    1    3    3    0    0 -0.42142652275E+01  0.99840392254E+01  0.33179029326E-01  0.10837073949E+02  0.51100000000E-03 0. -1.
        -11    1    3    3    0    0 -0.11151048293E+02  0.68243932457E+01  0.27813499460E+02  0.30732864716E+02  0.51100000000E-03 0.  1.
         12    1    3    3    0    0  0.17295727674E+02  0.27728667771E+01 -0.27555001400E+01  0.17731998392E+02  0.00000000000E+00 0. -1.
</event>
<event>
 7    1  0.1284777E-011  0.5930196E+02  0.7816164E-02  0.1266605E+00
        -11   -1    0    0    0    0  0.00000000000E+00  0.00000000000E+00  0.45593999997E+02  0.45594000000E+02  0.51100000000E-03 0. -1.
         11   -1    0    0    0    0 -0.00000000000E+00 -0.00000000000E+00 -0.45593999997E+02  0.45594000000E+02  0.51100000000E-03 0.  1.
    9900012    2    1    2    0    0  0.25942302765E+02  0.13198246591E+02  0.13020081834E+02  0.59301963608E+02  0.50000035710E+02 0.  0.
        -12    1    1    2    0    0 -0.25942302765E+02 -0.13198246591E+02 -0.13020081834E+02  0.31886036392E+02  0.00000000000E+00 0.  1.
         11    1    3    3    0    0  0.15765451742E+02  0.26347362375E+02  0.14350661893E+00  0.30704292325E+02  0.51100000000E-03 0. -1.
        -11    1    3    3    0    0  0.42677196958E+01 -0.35869652748E+01 -0.49947855839E+01  0.74851609585E+01  0.51100000000E-03 0.  1.
         12    1    3    3    0    0  0.59091313270E+01 -0.95621505087E+01  0.17871360799E+02  0.21112510325E+02  0.00000000000E+00 0. -1.
</event>
<event>
 7    1  0.1284777E-011  0.5930195E+02  0.7816164E-02  0.1266605E+00
        -11   -1    0    0    0    0  0.00000000000E+00  0.00000000000E+00  0.45593999997E+02  0.45594000000E+02  0.51100000000E-03 0.  1.
         11   -1    0    0    0    0 -0.00000000000E+00 -0.00000000000E+00 -0.45593999997E+02  0.45594000000E+02  0.51100000000E-03 0. -1.
    9900012    2    1    2    0    0 -0.23166249810E+02  0.87035825127E+01 -0.20107038193E+02  0.59301945624E+02  0.50000002911E+02 0.  0.
        -12    1    1    2    0    0  0.23166249810E+02 -0.87035825127E+01  0.20107038193E+02  0.31886054376E+02  0.00000000000E+00 0.  1.
         11    1    3    3    0    0 -0.34083604749E+02  0.69817333856E+00 -0.11739803173E+02  0.36055547944E+02  0.51100000000E-03 0. -1.
        -11    1    3    3    0    0 -0.33762025685E+01 -0.12901380311E+01  0.10559467961E+01  0.37653982287E+01  0.51100000000E-03 0.  1.
        -12    1    3    3    0    0  0.14293557508E+02  0.92955472052E+01 -0.94231818157E+01  0.19480999451E+02  0.00000000000E+00 0.  1.
</event>
<event>
 7    1  0.1284777E-011  0.5930193E+02  0.7816164E-02  0.1266605E+00
        -11   -1    0    0    0    0  0.00000000000E+00  0.00000000000E+00  0.45593999997E+02  0.45594000000E+02  0.51100000000E-03 0. -1.
         11   -1    0    0    0    0 -0.00000000000E+00 -0.00000000000E+00 -0.45593999997E+02  0.45594000000E+02  0.51100000000E-03 0.  1.
    9900012    2    1    2    0    0  0.21741765259E+02  0.21541001474E+02 -0.89444083646E+01  0.59301928713E+02  0.49999972070E+02 0.  0.
        -12    1    1    2    0    0 -0.21741765259E+02 -0.21541001474E+02  0.89444083646E+01  0.31886071287E+02  0.00000000000E+00 0.  1.
         11    1    3    3    0    0 -0.33173124677E+01  0.16232821816E+02  0.57740122841E+01  0.17545605838E+02  0.51100000000E-03 0. -1.
        -11    1    3    3    0    0  0.52748347606E+01  0.10805854281E+02  0.52439551137E+01  0.13118286244E+02  0.51100000000E-03 0.  1.
        -12    1    3    3    0    0  0.19784242966E+02 -0.54976746223E+01 -0.19962375762E+02  0.28638036631E+02  0.00000000000E+00 0.  1.
</event>
<event>
 7    1  0.1284777E-011  0.5930194E+02  0.7816164E-02  0.1266605E+00
        -11   -1    0    0    0    0  0.00000000000E+00  0.00000000000E+00  0.45593999997E+02  0.45594000000E+02  0.51100000000E-03 0. -1.
         11   -1    0    0    0    0 -0.00000000000E+00 -0.00000000000E+00 -0.45593999997E+02  0.45594000000E+02  0.51100000000E-03 0.  1.
    9900012    2    1    2    0    0 -0.11956587368E+02  0.29109050703E+02 -0.51404353572E+01  0.59301938939E+02  0.49999990719E+02 0.  0.
        -12    1    1    2    0    0  0.11956587368E+02 -0.29109050703E+02  0.51404353572E+01  0.31886061061E+02  0.00000000000E+00 0.  1.
         11    1    3    3    0    0  0.77761636361E+00  0.29793089053E+01  0.25449366270E+00  0.30896174597E+01  0.51100000000E-03 0. -1.
        -11    1    3    3    0    0 -0.18049485426E+02  0.33426707511E+02 -0.16908470161E+02  0.41581547141E+02  0.51100000000E-03 0.  1.
         12    1    3    3    0    0  0.53152816948E+01 -0.72969657131E+01  0.11513541141E+02  0.14630774338E+02  0.00000000000E+00 0. -1.
</event>
<event>
 7    1  0.1284777E-011  0.5930166E+02  0.7816164E-02  0.1266606E+00
        -11   -1    0    0    0    0  0.00000000000E+00  0.00000000000E+00  0.45593999997E+02  0.45594000000E+02  0.51100000000E-03 0.  1.
         11   -1    0    0    0    0 -0.00000000000E+00 -0.00000000000E+00 -0.45593999997E+02  0.45594000000E+02  0.51100000000E-03 0. -1.
    9900012    2    1    2    0    0 -0.22362648398E+02  0.11769618403E+01 -0.22699458393E+02  0.59301659760E+02  0.49999481561E+02 0.  0.
        -12    1    1    2    0    0  0.22362648398E+02 -0.11769618403E+01  0.22699458393E+02  0.31886340240E+02  0.00000000000E+00 0.  1.
         11    1    3    3    0    0 -0.24676081554E+02  0.10620821218E+02 -0.55247621877E+01  0.27426881735E+02  0.51100000000E-03 0. -1.
        -11    1    3    3    0    0  0.14772013881E+01  0.10044252566E+01  0.60960382974E+01  0.63523757148E+01  0.51100000000E-03 0.  1.
        -12    1    3    3    0    0  0.83623176832E+00 -0.10448284634E+02 -0.23270734503E+02  0.25522402310E+02  0.00000000000E+00 0.  1.
</event>
<event>
 7    1  0.1284777E-011  0.5930199E+02  0.7816164E-02  0.1266605E+00
        -11   -1    0    0    0    0  0.00000000000E+00  0.00000000000E+00  0.45593999997E+02  0.45594000000E+02  0.51100000000E-03 0.  1.
         11   -1    0    0    0    0 -0.00000000000E+00 -0.00000000000E+00 -0.45593999997E+02  0.45594000000E+02  0.51100000000E-03 0. -1.
    9900012    2    1    2    0    0 -0.23001050386E+02 -0.67030066155E+00 -0.22073054099E+02  0.59301994620E+02  0.50000092268E+02 0.  0.
        -12    1    1    2    0    0  0.23001050386E+02  0.67030066155E+00  0.22073054099E+02  0.31886005380E+02  0.00000000000E+00 0.  1.
         11    1    3    3    0    0 -0.63361112630E+01  0.48827339194E-01 -0.10310918915E+02  0.12102220424E+02  0.51100000000E-03 0. -1.
        -11    1    3    3    0    0 -0.24417808525E+02 -0.43747384903E+01 -0.22479195173E+02  0.33476587728E+02  0.51100000000E-03 0.  1.
        -12    1    3    3    0    0  0.77528694016E+01  0.36556104896E+01  0.10717059990E+02  0.13723186468E+02  0.00000000000E+00 0.  1.
</event>
<event>
 7    1  0.1284777E-011  0.5930196E+02  0.7816164E-02  0.1266605E+00
        -11   -1    0    0    0    0  0.00000000000E+00  0.00000000000E+00  0.45593999997E+02  0.45594000000E+02  0.51100000000E-03 0. -1.
         11   -1    0    0    0    0 -0.00000000000E+00 -0.00000000000E+00 -0.45593999997E+02  0.45594000000E+02  0.51100000000E-03 0.  1.
    9900012    2    1    2    0    0  0.28453318910E+01 -0.19880493655E+02  0.24766708910E+02  0.59301955846E+02  0.50000021554E+02 0.  0.
        -12    1    1    2    0    0 -0.28453318910E+01  0.19880493655E+02 -0.24766708910E+02  0.31886044154E+02  0.00000000000E+00 0.  1.
         11    1    3    3    0    0  0.47676627633E+00 -0.11327653124E+02  0.33419507429E+02  0.35290317488E+02  0.51100000000E-03 0. -1.
        -11    1    3    3    0    0  0.89033150800E+01 -0.37924702170E+01  0.27251598496E+01  0.10053772736E+02  0.51100000000E-03 0.  1.
        -12    1    3    3    0    0 -0.65347494653E+01 -0.47603703140E+01 -0.11377958368E+02  0.13957865622E+02  0.00000000000E+00 0.  1.
</event>
<event>
 7    1  0.1284777E-011  0.5930195E+02  0.7816164E-02  0.1266605E+00
        -11   -1    0    0    0    0  0.00000000000E+00  0.00000000000E+00  0.45593999997E+02  0.45594000000E+02  0.51100000000E-03 0. -1.
         11   -1    0    0    0    0 -0.00000000000E+00 -0.00000000000E+00 -0.45593999997E+02  0.45594000000E+02  0.51100000000E-03 0.  1.
    9900012    2    1    2    0    0  0.28890204514E+02 -0.60632010557E+01  0.12054629814E+02  0.59301946249E+02  0.50000004050E+02 0.  0.
        -12    1    1    2    0    0 -0.28890204514E+02  0.60632010557E+01 -0.12054629814E+02  0.31886053751E+02  0.00000000000E+00 0.  1.
         11    1    3    3    0    0  0.31073040519E+01  0.44481342302E+01  0.21512884025E+01  0.58368894673E+01  0.51100000000E-03 0. -1.
        -11    1    3    3    0    0 -0.47724162637E+01  0.11079470824E+02 -0.51755370371E+01  0.13126949935E+02  0.51100000000E-03 0.  1.
         12    1    3    3    0    0  0.30555316725E+02 -0.21590806110E+02  0.15078878449E+02  0.40338106846E+02  0.00000000000E+00 0. -1.
</event>
<event>
 7    1  0.1284777E-011  0.5930193E+02  0.7816164E-02  0.1266605E+00
        -11   -1    0    0    0    0  0.00000000000E+00  0.00000000000E+00  0.45593999997E+02  0.45594000000E+02  0.51100000000E-03 0.  1.
         11   -1    0    0    0    0 -0.00000000000E+00 -0.00000000000E+00 -0.45593999997E+02  0.45594000000E+02  0.51100000000E-03 0. -1.
    9900012    2    1    2    0    0 -0.31645093142E+02  0.29376760745E+01  0.25844561558E+01  0.59301932913E+02  0.49999979729E+02 0.  0.
        -12    1    1    2    0    0  0.31645093142E+02 -0.29376760745E+01 -0.25844561558E+01  0.31886067087E+02  0.00000000000E+00 0.  1.
         11    1    3    3    0    0 -0.24788335975E+02 -0.11273179084E+02 -0.18155698114E+01  0.27291802085E+02  0.51100000000E-03 0. -1.
        -11    1    3    3    0    0 -0.16478626005E+02  0.97388717992E+01 -0.25731436222E+01  0.19313513593E+02  0.51100000000E-03 0.  1.
        -12    1    3    3    0    0  0.96218688379E+01  0.44719833590E+01  0.69731695893E+01  0.12696617235E+02  0.00000000000E+00 0.  1.
</event>
<event>
 7    1  0.1284777E-011  0.5930192E+02  0.7816164E-02  0.1266605E+00
        -11   -1    0    0    0    0  0.00000000000E+00  0.00000000000E+00  0.45593999997E+02  0.45594000000E+02  0.51100000000E-03 0.  1.
         11   -1    0    0    0    0 -0.00000000000E+00 -0.00000000000E+00 -0.45593999997E+02  0.45594000000E+02  0.51100000000E-03 0. -1.
    9900012    2    1    2    0    0  0.46957177946E+01 -0.50251067085E+01 -0.31135521905E+02  0.59301918596E+02  0.49999953618E+02 0.  0.
        -12    1    1    2    0    0 -0.46957177946E+01  0.50251067085E+01  0.31135521905E+02  0.31886081404E+02  0.00000000000E+00 0.  1.
         11    1    3    3    0    0 -0.73873998836E+01  0.51994630777E+01  0.13778105904E+01  0.91381866703E+01  0.51100000000E-03 0. -1.
        -11    1    3    3    0    0 -0.24097754351E+01  0.68145220771E+01 -0.25823123360E+02  0.26815637772E+02  0.51100000000E-03 0.  1.
        -12    1    3    3    0    0  0.14492893113E+02 -0.17039091863E+02 -0.66902091352E+01  0.23348094153E+02  0.00000000000E+00 0.  1.
</event>
<event>
 7    1  0.1284777E-011  0.5930194E+02  0.7816164E-02  0.1266605E+00
        -11   -1    0    0    0    0  0.00000000000E+00  0.00000000000E+00  0.45593999997E+02  0.45594000000E+02  0.51100000000E-03 0.  1.
         11   -1    0    0    0    0 -0.00000000000E+00 -0.00000000000E+00 -0.45593999997E+02  0.45594000000E+02  0.51100000000E-03 0. -1.
    9900012    2    1    2    0    0  0.24749138133E+02  0.19453265660E+02 -0.50765712291E+01  0.59301937863E+02  0.49999988757E+02 0.  0.
        -12    1    1    2    0    0 -0.24749138133E+02 -0.19453265660E+02  0.50765712291E+01  0.31886062137E+02  0.00000000000E+00 0.  1.
         11    1    3    3    0    0  0.23512957933E-01  0.12443104808E+02 -0.40552562382E+01  0.13087265319E+02  0.51100000000E-03 0. -1.
        -11    1    3    3    0    0  0.32316253823E+02  0.30883109306E+01 -0.98537786556E+01  0.33926020686E+02  0.51100000000E-03 0.  1.
         12    1    3    3    0    0 -0.75906286484E+01  0.39218499215E+01  0.88324636647E+01  0.12288651857E+02  0.00000000000E+00 0. -1.
</event>
<event>
 7    1  0.1284777E-011  0.5930194E+02  0.7816164E-02  0.1266605E+00
        -11   -1    0    0    0    0  0.00000000000E+00  0.00000000000E+00  0.45593999997E+02  0.45594000000E+02  0.51100000000E-03 0. -1.
         11   -1    0    0    0    0 -0.00000000000E+00 -0.00000000000E+00 -0.45593999997E+02  0.45594000000E+02  0.51100000000E-03 0.  1.
    9900012    2    1    2    0    0  0.28765127118E+02  0.13206049179E+00  0.13757570588E+02  0.59301941501E+02  0.49999995392E+02 0.  0.
        -12    1    1    2    0    0 -0.28765127118E+02 -0.13206049179E+00 -0.13757570588E+02  0.31886058499E+02  0.00000000000E+00 0.  1.
         11    1    3    3    0    0 -0.17853868073E+01 -0.44843517821E+01  0.37226122760E+01  0.60954786010E+01  0.51100000000E-03 0. -1.
        -11    1    3    3    0    0 -0.53947838787E+01 -0.36113017081E+00 -0.10282595589E+02  0.11617481673E+02  0.51100000000E-03 0.  1.
         12    1    3    3    0    0  0.35945297804E+02  0.49775424447E+01  0.20317553902E+02  0.41588981228E+02  0.00000000000E+00 0. -1.
</event>
<event>
 7    1  0.1284777E-011  0.5930194E+02  0.7816164E-02  0.1266605E+00
        -11   -1    0    0    0    0  0.00000000000E+00  0.00000000000E+00  0.45593999997E+02  0.45594000000E+02  0.51100000000E-03 0.  1.
         11   -1    0    0    0    0 -0.00000000000E+00 -0.00000000000E+00 -0.45593999997E+02  0.45594000000E+02  0.51100000000E-03 0. -1.
    9900012    2    1    2    0    0 -0.12046037419E+02  0.13250825884E+02 -0.26382369488E+02  0.59301939975E+02  0.49999992609E+02 0.  0.
        -12    1    1    2    0    0  0.12046037419E+02 -0.13250825884E+02  0.26382369488E+02  0.31886060025E+02  0.00000000000E+00 0.  1.
         11    1    3    3    0    0  0.41866803062E+01 -0.43075085151E+01 -0.67892315263E+01  0.90651302568E+01  0.51100000000E-03 0. -1.
        -11    1    3    3    0    0 -0.15860214938E+02  0.14948839390E+01 -0.27915842449E+02  0.32141489632E+02  0.51100000000E-03 0.  1.
        -12    1    3    3    0    0 -0.37250278701E+00  0.16063450461E+02  0.83227044875E+01  0.18095320086E+02  0.00000000000E+00 0.  1.
</event>
<event>
 7    1  0.1284777E-011  0.5930193E+02  0.7816164E-02  0.1266605E+00
        -11   -1    0    0    0    0  0.00000000000E+00  0.00000000000E+00  0.45593999997E+02  0.45594000000E+02  0.51100000000E-03 0.  1.
         11   -1    0    0    0    0 -0.00000000000E+00 -0.00000000000E+00 -0.45593999997E+02  0.45594000000E+02  0.51100000000E-03 0. -1.
    9900012    2    1    2    0    0 -0.24972216314E+02  0.19474098656E+02  0.37241484128E+01  0.59301931137E+02  0.49999976491E+02 0.  0.
        -12    1    1    2    0    0  0.24972216314E+02 -0.19474098656E+02 -0.37241484128E+01  0.31886068863E+02  0.00000000000E+00 0.  1.
         11    1    3    3    0    0 -0.26076359100E+02  0.20547177072E+02 -0.13520442252E+01  0.33226360219E+02  0.51100000000E-03 0. -1.
        -11    1    3    3    0    0 -0.11005915199E+02 -0.54067085629E+01  0.39092256838E-01  0.12262307911E+02  0.51100000000E-03 0.  1.
         12    1    3    3    0    0  0.12110057985E+02  0.43336301471E+01  0.50371003812E+01  0.13813263007E+02  0.00000000000E+00 0. -1.
</event>
<event>
 7    1  0.1284777E-011  0.5930195E+02  0.7816164E-02  0.1266605E+00
        -11   -1    0    0    0    0  0.00000000000E+00  0.00000000000E+00  0.45593999997E+02  0.45594000000E+02  0.51100000000E-03 0.  1.
         11   -1    0    0    0    0 -0.00000000000E+00 -0.00000000000E+00 -0.45593999997E+02  0.45594000000E+02  0.51100000000E-03 0. -1.
    9900012    2    1    2    0    0  0.15081077199E+02 -0.93297456812E+01 -0.26499755857E+02  0.59301951257E+02  0.50000013184E+02 0.  0.
        -12    1    1    2    0    0 -0.15081077199E+02  0.93297456812E+01  0.26499755857E+02  0.31886048743E+02  0.00000000000E+00 0.  1.
         11    1    3    3    0    0 -0.11329113922E+02 -0.10741513219E+02 -0.13870442658E+02  0.20883441007E+02  0.51100000000E-03 0. -1.
        -11    1    3    3    0    0 -0.13535001568E+00  0.85393209339E+01 -0.10936467468E+01  0.86101326997E+01  0.51100000000E-03 0.  1.
        -12    1    3    3    0    0  0.26545541137E+02 -0.71275533963E+01 -0.11535666453E+02  0.29808377550E+02  0.00000000000E+00 0.  1.
</event>
<event>
 7    1  0.1284777E-011  0.5930195E+02  0.7816164E-02  0.1266605E+00
        -11   -1    0    0    0    0  0.00000000000E+00  0.00000000000E+00  0.45593999997E+02  0.45594000000E+02  0.51100000000E-03 0. -1.
         11   -1    0    0    0    0 -0.00000000000E+00 -0.00000000000E+00 -0.45593999997E+02  0.45594000000E+02  0.51100000000E-03 0.  1.
    9900012    2    1    2    0    0 -0.30593448332E+02  0.67729597673E+01 -0.59066282247E+01  0.59301947848E+02  0.50000006968E+02 0.  0.
        -12    1    1    2    0    0  0.30593448332E+02 -0.67729597673E+01  0.59066282247E+01  0.31886052152E+02  0.00000000000E+00 0.  1.
         11    1    3    3    0    0 -0.36692232644E+02  0.19220238378E+02 -0.44071298055E+01  0.41655255288E+02  0.51100000000E-03 0. -1.
        -11    1    3    3    0    0  0.22846694701E+00 -0.31084318461E+01 -0.51568237927E+01  0.60255603538E+01  0.51100000000E-03 0.  1.
        -12    1    3    3    0    0  0.58703173658E+01 -0.93388467647E+01  0.36573253735E+01  0.11621132206E+02  0.00000000000E+00 0.  1.
</event>
<event>
 7    1  0.1284777E-011  0.5930200E+02  0.7816164E-02  0.1266605E+00
        -11   -1    0    0    0    0  0.00000000000E+00  0.00000000000E+00  0.45593999997E+02  0.45594000000E+02  0.51100000000E-03 0.  1.
         11   -1    0    0    0    0 -0.00000000000E+00 -0.00000000000E+00 -0.45593999997E+02  0.45594000000E+02  0.51100000000E-03 0. -1.
    9900012    2    1    2    0    0 -0.92966958627E+01  0.10659021276E+02 -0.28577498313E+02  0.59302004667E+02  0.50000110592E+02 0.  0.
        -12    1    1    2    0    0  0.92966958627E+01 -0.10659021276E+02  0.28577498313E+02  0.31885995333E+02  0.00000000000E+00 0.  1.
         11    1    3    3    0    0 -0.11533981562E+02  0.40394124434E+01 -0.11268981159E+01  0.12272712952E+02  0.51100000000E-03 0. -1.
        -11    1    3    3    0    0 -0.74085161240E+01  0.78447098575E+01  0.58947252680E+01  0.12295258035E+02  0.51100000000E-03 0.  1.
        -12    1    3    3    0    0  0.96458018236E+01 -0.12251010250E+01 -0.33345325465E+02  0.34734033680E+02  0.00000000000E+00 0.  1.
</event>
<event>
 7    1  0.1284777E-011  0.5930192E+02  0.7816164E-02  0.1266605E+00
        -11   -1    0    0    0    0  0.00000000000E+00  0.00000000000E+00  0.45593999997E+02  0.45594000000E+02  0.51100000000E-03 0. -1.
         11   -1    0    0    0    0 -0.00000000000E+00 -0.00000000000E+00 -0.45593999997E+02  0.45594000000E+02  0.51100000000E-03 0.  1.
    9900012    2    1    2    0    0  0.44547045875E+00  0.28600005558E+02 -0.14091255220E+02  0.59301917839E+02  0.49999952239E+02 0.  0.
        -12    1    1    2    0    0 -0.44547045875E+00 -0.28600005558E+02  0.14091255220E+02  0.31886082161E+02  0.00000000000E+00 0.  1.
         11    1    3    3    0    0  0.93186557024E+01  0.12828051619E+02  0.91045890158E+01  0.18283593571E+02  0.51100000000E-03 0. -1.
        -11    1    3    3    0    0  0.74746672880E+01 -0.37362054429E+01 -0.51162138935E+01  0.97982410178E+01  0.51100000000E-03 0.  1.
        -12    1    3    3    0    0 -0.16347852532E+02  0.19508159382E+02 -0.18079630343E+02  0.31220083251E+02  0.00000000000E+00 0.  1.
</event>
<event>
 7    1  0.1284777E-011  0.5930195E+02  0.7816164E-02  0.1266605E+00
        -11   -1    0    0    0    0  0.00000000000E+00  0.00000000000E+00  0.45593999997E+02  0.45594000000E+02  0.51100000000E-03 0. -1.
         11   -1    0    0    0    0 -0.00000000000E+00 -0.00000000000E+00 -0.45593999997E+02  0.45594000000E+02  0.51100000000E-03 0.  1.
    9900012    2    1    2    0    0 -0.16052367026E+02 -0.19550113582E+02  0.19412238212E+02  0.59301946300E+02  0.50000004143E+02 0.  0.
        -12    1    1    2    0    0  0.16052367026E+02  0.19550113582E+02 -0.19412238212E+02  0.31886053700E+02  0.00000000000E+00 0.  1.
         11    1    3    3    0    0 -0.34121982116E+00  0.85917215258E+00 -0.31077544187E+01  0.32423364326E+01  0.51100000000E-03 0. -1.
        -11    1    3    3    0    0 -0.36079578003E+01 -0.26257411344E+02 -0.35376307640E+01  0.26739181768E+02  0.51100000000E-03 0.  1.
         12    1    3    3    0    0 -0.12103189404E+02  0.58481256095E+01  0.26057623395E+02  0.29320428099E+02  0.00000000000E+00 0. -1.
</event>
<event>
 7    1  0.1284777E-011  0.5930196E+02  0.7816164E-02  0.1266605E+00
        -11   -1    0    0    0    0  0.00000000000E+00  0.00000000000E+00  0.45593999997E+02  0.45594000000E+02  0.51100000000E-03 0.  1.
         11   -1    0    0    0    0 -0.00000000000E+00 -0.00000000000E+00 -0.45593999997E+02  0.45594000000E+02  0.51100000000E-03 0. -1.
    9900012    2    1    2    0    0 -0.15600830689E+02 -0.19059069902E+01 -0.27743487739E+02  0.59301960554E+02  0.50000030141E+02 0.  0.
        -12    1    1    2    0    0  0.15600830689E+02  0.19059069902E+01  0.27743487739E+02  0.31886039446E+02  0.00000000000E+00 0.  1.
         11    1    3    3    0    0 -0.13376455906E+02 -0.10644459879E+02 -0.22127764449E+02  0.27961975225E+02  0.51100000000E-03 0. -1.
        -11    1    3    3    0    0  0.64806800189E+01 -0.81715900126E+01 -0.65191329691E+01  0.12299316720E+02  0.51100000000E-03 0.  1.
        -12    1    3    3    0    0 -0.87050548012E+01  0.16910142901E+02  0.90340967969E+00  0.19040668609E+02  0.00000000000E+00 0.  1.
</event>
<event>
 7    1  0.1284777E-011  0.5930190E+02  0.7816164E-02  0.1266605E+00
        -11   -1    0    0    0    0  0.00000000000E+00  0.00000000000E+00  0.45593999997E+02  0.45594000000E+02  0.51100000000E-03 0.  1.
         11   -1    0    0    0    0 -0.00000000000E+00 -0.00000000000E+00 -0.45593999997E+02  0.45594000000E+02  0.51100000000E-03 0. -1.
    9900012    2    1    2    0    0  0.28709235311E+02  0.17361157041E+01 -0.13765498268E+02  0.59301902207E+02  0.49999923730E+02 0.  0.
        -12    1    1    2    0    0 -0.28709235311E+02 -0.17361157041E+01  0.13765498268E+02  0.31886097793E+02  0.00000000000E+00 0.  1.
         11    1    3    3    0    0  0.17147158236E+02  0.82195722725E+01 -0.35776165213E+01  0.19349050213E+02  0.51100000000E-03 0. -1.
        -11    1    3    3    0    0  0.71935792612E+01  0.12206288999E+02  0.54651178267E+01  0.15185802146E+02  0.51100000000E-03 0.  1.
         12    1    3    3    0    0  0.43684978133E+01 -0.18689745567E+02 -0.15652999574E+02  0.24767049848E+02  0.00000000000E+00 0. -1.
</event>
<event>
 7    1  0.1284777E-011  0.5930193E+02  0.7816164E-02  0.1266605E+00
        -11   -1    0    0    0    0  0.00000000000E+00  0.00000000000E+00  0.45593999997E+02  0.45594000000E+02  0.51100000000E-03 0. -1.
         11   -1    0    0    0    0 -0.00000000000E+00 -0.00000000000E+00 -0.45593999997E+02  0.45594000000E+02  0.51100000000E-03 0.  1.
    9900012    2    1    2    0    0  0.19487991741E+02 -0.25113140375E+02 -0.25039069367E+01  0.59301934210E+02  0.49999982095E+02 0.  0.
        -12    1    1    2    0    0 -0.19487991741E+02  0.25113140375E+02  0.25039069367E+01  0.31886065790E+02  0.00000000000E+00 0.  1.
         11    1    3    3    0    0  0.76579125652E+00 -0.58317677801E+00  0.46773652484E+01  0.47753824278E+01  0.51100000000E-03 0. -1.
        -11    1    3    3    0    0 -0.29211889698E+01  0.46924147791E+01  0.12146254107E+02  0.13344796385E+02  0.51100000000E-03 0.  1.
         12    1    3    3    0    0  0.21643389454E+02 -0.29222378376E+02 -0.19327526292E+02  0.41181755398E+02  0.00000000000E+00 0. -1.
</event>
<event>
 7    1  0.1284777E-011  0.5930194E+02  0.7816164E-02  0.1266605E+00
        -11   -1    0    0    0    0  0.00000000000E+00  0.00000000000E+00  0.45593999997E+02  0.45594000000E+02  0.51100000000E-03 0. -1.
         11   -1    0    0    0    0 -0.00000000000E+00 -0.00000000000E+00 -0.45593999997E+02  0.45594000000E+02  0.51100000000E-03 0.  1.
    9900012    2    1    2    0    0  0.31800510024E+02  0.23321657567E+01  0.97490737392E-01  0.59301938165E+02  0.49999989308E+02 0.  0.
        -12    1    1    2    0    0 -0.31800510024E+02 -0.23321657567E+01 -0.97490737392E-01  0.31886061835E+02  0.00000000000E+00 0.  1.
         11    1    3    3    0    0 -0.18379019153E+01 -0.11622172757E+01 -0.73092634405E+00  0.22940980859E+01  0.51100000000E-03 0.  1.
        -11    1    3    3    0    0 -0.20726203697E+01  0.22831439515E+01  0.17363973146E+02  0.17635647569E+02  0.51100000000E-03 0. -1.
         12    1    3    3    0    0  0.35711032309E+02  0.12112390809E+01 -0.16535556065E+02  0.39372192510E+02  0.00000000000E+00 0. -1.
</event>
<event>
 7    1  0.1284777E-011  0.5930194E+02  0.7816164E-02  0.1266605E+00
        -11   -1    0    0    0    0  0.00000000000E+00  0.00000000000E+00  0.45593999997E+02  0.45594000000E+02  0.51100000000E-03 0.  1.
         11   -1    0    0    0    0 -0.00000000000E+00 -0.00000000000E+00 -0.45593999997E+02  0.45594000000E+02  0.51100000000E-03 0. -1.
    9900012    2    1    2    0    0  0.10108363336E+02  0.14775994315E+02 -0.26385827818E+02  0.59301938359E+02  0.49999989662E+02 0.  0.
        -12    1    1    2    0    0 -0.10108363336E+02 -0.14775994315E+02  0.26385827818E+02  0.31886061641E+02  0.00000000000E+00 0.  1.
         11    1    3    3    0    0  0.65373590703E+00 -0.25062713961E+01  0.37077745943E+01  0.45228707310E+01  0.51100000000E-03 0. -1.
        -11    1    3    3    0    0  0.54202990645E+01  0.26879864730E+00  0.98108935107E+01  0.11211847591E+02  0.51100000000E-03 0.  1.
         12    1    3    3    0    0  0.40343283641E+01  0.17013467064E+02 -0.39904495923E+02  0.43567220037E+02  0.00000000000E+00 0. -1.
</event>
<event>
 7    1  0.1284777E-011  0.5930193E+02  0.7816164E-02  0.1266605E+00
        -11   -1    0    0    0    0  0.00000000000E+00  0.00000000000E+00  0.45593999997E+02  0.45594000000E+02  0.51100000000E-03 0.  1.
         11   -1    0    0    0    0 -0.00000000000E+00 -0.00000000000E+00 -0.45593999997E+02  0.45594000000E+02  0.51100000000E-03 0. -1.
    9900012    2    1    2    0    0  0.45378322828E+01 -0.57050980304E+01 -0.31041611116E+02  0.59301926456E+02  0.49999967954E+02 0.  0.
        -12    1    1    2    0    0 -0.45378322828E+01  0.57050980304E+01  0.31041611116E+02  0.31886073544E+02  0.00000000000E+00 0.  1.
         11    1    3    3    0    0 -0.35372401039E+01  0.14595379959E+01  0.94048622906E+01  0.10153509427E+02  0.51100000000E-03 0. -1.
        -11    1    3    3    0    0 -0.77983148001E+01 -0.34754239384E+01 -0.44343107292E+01  0.96205715619E+01  0.51100000000E-03 0.  1.
         12    1    3    3    0    0  0.15873387187E+02 -0.36892120880E+01 -0.36012162677E+02  0.39527845468E+02  0.00000000000E+00 0. -1.
</event>
<event>
 7    1  0.1284777E-011  0.5930193E+02  0.7816164E-02  0.1266605E+00
        -11   -1    0    0    0    0  0.00000000000E+00  0.00000000000E+00  0.45593999997E+02  0.45594000000E+02  0.51100000000E-03 0.  1.
         11   -1    0    0    0    0 -0.00000000000E+00 -0.00000000000E+00 -0.45593999997E+02  0.45594000000E+02  0.51100000000E-03 0. -1.
    9900012    2    1    2    0    0  0.19543127350E+02 -0.19745158763E+02  0.15649803676E+02  0.59301929745E+02  0.49999973952E+02 0.  0.
        -12    1    1    2    0    0 -0.19543127350E+02  0.19745158763E+02 -0.15649803676E+02  0.31886070255E+02  0.00000000000E+00 0.  1.
         11    1    3    3    0    0  0.21539335125E+02 -0.35431214267E+01  0.79753205393E+01  0.23240103379E+02  0.51100000000E-03 0. -1.
        -11    1    3    3    0    0  0.77188076104E+01 -0.12466631000E+02  0.16743794584E+02  0.22256494260E+02  0.51100000000E-03 0.  1.
        -12    1    3    3    0    0 -0.97150153853E+01 -0.37354063365E+01 -0.90693114476E+01  0.13805332106E+02  0.00000000000E+00 0.  1.
</event>
<event>
 7    1  0.1284777E-011  0.5930195E+02  0.7816164E-02  0.1266605E+00
        -11   -1    0    0    0    0  0.00000000000E+00  0.00000000000E+00  0.45593999997E+02  0.45594000000E+02  0.51100000000E-03 0.  1.
         11   -1    0    0    0    0 -0.00000000000E+00 -0.00000000000E+00 -0.45593999997E+02  0.45594000000E+02  0.51100000000E-03 0. -1.
    9900012    2    1    2    0    0 -0.31251280818E+02 -0.43146923781E-01  0.63305348792E+01  0.59301951542E+02  0.50000013704E+02 0.  0.
        -12    1    1    2    0    0  0.31251280818E+02  0.43146923781E-01 -0.63305348792E+01  0.31886048458E+02  0.00000000000E+00 0.  1.
         11    1    3    3    0    0 -0.24770250951E+02 -0.11363595659E+02  0.26294532957E+01  0.27379018671E+02  0.51100000000E-03 0. -1.
        -11    1    3    3    0    0 -0.16359289132E+02  0.98152845936E+01  0.84429140895E+01  0.20862620908E+02  0.51100000000E-03 0.  1.
        -12    1    3    3    0    0  0.98782592652E+01  0.15051641416E+01 -0.47418325060E+01  0.11060311963E+02  0.00000000000E+00 0.  1.
</event>
<event>
 7    1  0.1284777E-011  0.5930194E+02  0.7816164E-02  0.1266605E+00
        -11   -1    0    0    0    0  0.00000000000E+00  0.00000000000E+00  0.45593999997E+02  0.45594000000E+02  0.51100000000E-03 0. -1.
         11   -1    0    0    0    0 -0.00000000000E+00 -0.00000000000E+00 -0.45593999997E+02  0.45594000000E+02  0.51100000000E-03 0.  1.
    9900012    2    1    2    0    0 -0.99454512807E+01 -0.27056676720E+02 -0.13628823456E+02  0.59301943720E+02  0.49999999438E+02 0.  0.
        -12    1    1    2    0    0  0.99454512807E+01  0.27056676720E+02  0.13628823456E+02  0.31886056280E+02  0.00000000000E+00 0.  1.
         11    1    3    3    0    0 -0.16427312750E+01 -0.18248268889E+02  0.68579171316E+01  0.19563458568E+02  0.51100000000E-03 0. -1.
        -11    1    3    3    0    0 -0.16858645211E+02 -0.15717168745E+02 -0.13556106025E+02  0.26739695633E+02  0.51100000000E-03 0.  1.
        -12    1    3    3    0    0  0.85559252058E+01  0.69087609147E+01 -0.69306345634E+01  0.12998789519E+02  0.00000000000E+00 0.  1.
</event>
<event>
 7    1  0.1284777E-011  0.5930195E+02  0.7816164E-02  0.1266605E+00
        -11   -1    0    0    0    0  0.00000000000E+00  0.00000000000E+00  0.45593999997E+02  0.45594000000E+02  0.51100000000E-03 0. -1.
         11   -1    0    0    0    0 -0.00000000000E+00 -0.00000000000E+00 -0.45593999997E+02  0.45594000000E+02  0.51100000000E-03 0.  1.
    9900012    2    1    2    0    0 -0.10808780445E+02 -0.28112499037E+02 -0.10467942884E+02  0.59301950307E+02  0.50000011452E+02 0.  0.
        -12    1    1    2    0    0  0.10808780445E+02  0.28112499037E+02  0.10467942884E+02  0.31886049693E+02  0.00000000000E+00 0.  1.
         11    1    3    3    0    0 -0.11192518259E+02 -0.22674917597E+02 -0.11684596684E+02  0.27855953635E+02  0.51100000000E-03 0. -1.
        -11    1    3    3    0    0 -0.62975673799E+01  0.51322880270E+01 -0.11191948301E+02  0.13829658070E+02  0.51100000000E-03 0.  1.
        -12    1    3    3    0    0  0.66813051938E+01 -0.10569869467E+02  0.12408602101E+02  0.17616338602E+02  0.00000000000E+00 0.  1.
</event>
<event>
 7    1  0.1284777E-011  0.5930200E+02  0.7816164E-02  0.1266605E+00
        -11   -1    0    0    0    0  0.00000000000E+00  0.00000000000E+00  0.45593999997E+02  0.45594000000E+02  0.51100000000E-03 0.  1.
         11   -1    0    0    0    0 -0.00000000000E+00 -0.00000000000E+00 -0.45593999997E+02  0.45594000000E+02  0.51100000000E-03 0. -1.
    9900012    2    1    2    0    0 -0.82029871646E+01  0.31024059335E+01 -0.30656212796E+02  0.59301995171E+02  0.50000093272E+02 0.  0.
        -12    1    1    2    0    0  0.82029871646E+01 -0.31024059335E+01  0.30656212796E+02  0.31886004829E+02  0.00000000000E+00 0.  1.
         11    1    3    3    0    0  0.34891854032E+01 -0.10547713241E+02 -0.53195747333E+01  0.12317732949E+02  0.51100000000E-03 0. -1.
        -11    1    3    3    0    0 -0.28793923590E+00 -0.11021810635E+02 -0.13251493463E+02  0.17238483052E+02  0.51100000000E-03 0.  1.
        -12    1    3    3    0    0 -0.11404233332E+02  0.24671929810E+02 -0.12085144599E+02  0.29745779169E+02  0.00000000000E+00 0.  1.
</event>
<event>
 7    1  0.1284777E-011  0.5930193E+02  0.7816164E-02  0.1266605E+00
        -11   -1    0    0    0    0  0.00000000000E+00  0.00000000000E+00  0.45593999997E+02  0.45594000000E+02  0.51100000000E-03 0. -1.
         11   -1    0    0    0    0 -0.00000000000E+00 -0.00000000000E+00 -0.45593999997E+02  0.45594000000E+02  0.51100000000E-03 0.  1.
    9900012    2    1    2    0    0 -0.14178440141E+02 -0.87621367678E+01  0.27183054226E+02  0.59301927137E+02  0.49999969196E+02 0.  0.
        -12    1    1    2    0    0  0.14178440141E+02  0.87621367678E+01 -0.27183054226E+02  0.31886072863E+02  0.00000000000E+00 0.  1.
         11    1    3    3    0    0 -0.25907756574E+02  0.61854414287E+01  0.21781299633E+02  0.34407797813E+02  0.51100000000E-03 0. -1.
        -11    1    3    3    0    0  0.50918178156E+00 -0.11538578801E+02 -0.89405752535E+00  0.11584360403E+02  0.51100000000E-03 0.  1.
        -12    1    3    3    0    0  0.11220134652E+02 -0.34089993954E+01  0.62958121190E+01  0.13309768921E+02  0.00000000000E+00 0.  1.
</event>
<event>
 7    1  0.2218124E-011  0.5930193E+02  0.7816164E-02  0.1266605E+00
        -11   -1    0    0    0    0  0.00000000000E+00  0.00000000000E+00  0.45593999997E+02  0.45594000000E+02  0.51100000000E-03 0. -1.
         11   -1    0    0    0    0 -0.00000000000E+00 -0.00000000000E+00 -0.45593999997E+02  0.45594000000E+02  0.51100000000E-03 0.  1.
    9900012    2    1    2    0    0 -0.11732421394E+02 -0.12597833342E+02  0.26839640191E+02  0.59301930907E+02  0.49999976070E+02 0.  0.
        -12    1    1    2    0    0  0.11732421394E+02  0.12597833342E+02 -0.26839640191E+02  0.31886069093E+02  0.00000000000E+00 0.  1.
         11    1    3    3    0    0 -0.18117652080E+02 -0.18395322139E+01  0.12828398275E+01  0.18255927091E+02  0.51100000000E-03 0. -1.
        -11    1    3    3    0    0 -0.51406956908E+01  0.42806282075E+01 -0.25414351221E+01  0.71560759343E+01  0.51100000000E-03 0.  1.
         12    1    3    3    0    0  0.11525926377E+02 -0.15038929335E+02  0.28098235485E+02  0.33889927881E+02  0.00000000000E+00 0. -1.
</event>
<event>
 7    1  0.1284777E-011  0.5930193E+02  0.7816164E-02  0.1266605E+00
        -11   -1    0    0    0    0  0.00000000000E+00  0.00000000000E+00  0.45593999997E+02  0.45594000000E+02  0.51100000000E-03 0. -1.
         11   -1    0    0    0    0 -0.00000000000E+00 -0.00000000000E+00 -0.45593999997E+02  0.45594000000E+02  0.51100000000E-03 0.  1.
    9900012    2    1    2    0    0  0.15736275198E+02  0.12021081133E+02 -0.24991689247E+02  0.59301932821E+02  0.49999979562E+02 0.  0.
        -12    1    1    2    0    0 -0.15736275198E+02 -0.12021081133E+02  0.24991689247E+02  0.31886067179E+02  0.00000000000E+00 0.  1.
         11    1    3    3    0    0 -0.17921700062E+01 -0.14853285277E+01 -0.68906157029E+01  0.72731464438E+01  0.51100000000E-03 0. -1.
        -11    1    3    3    0    0  0.96421610437E+01  0.31728707314E+01 -0.31658696282E+02  0.33246224279E+02  0.51100000000E-03 0.  1.
         12    1    3    3    0    0  0.78862841604E+01  0.10333538930E+02  0.13557622738E+02  0.18782562098E+02  0.00000000000E+00 0. -1.
</event>
<event>
 7    1  0.1284777E-011  0.5930195E+02  0.7816164E-02  0.1266605E+00
        -11   -1    0    0    0    0  0.00000000000E+00  0.00000000000E+00  0.45593999997E+02  0.45594000000E+02  0.51100000000E-03 0.  1.
         11   -1    0    0    0    0 -0.00000000000E+00 -0.00000000000E+00 -0.45593999997E+02  0.45594000000E+02  0.51100000000E-03 0. -1.
    9900012    2    1    2    0    0  0.42001643637E+01  0.24712897010E+02 -0.19706634514E+02  0.59301951277E+02  0.50000013221E+02 0.  0.
        -12    1    1    2    0    0 -0.42001643637E+01 -0.24712897010E+02  0.19706634514E+02  0.31886048723E+02  0.00000000000E+00 0.  1.
         11    1    3    3    0    0  0.35500359730E+01 -0.11271461199E+02 -0.13319543520E+02  0.17806145928E+02  0.51100000000E-03 0. -1.
        -11    1    3    3    0    0 -0.53504396483E+00 -0.23500286636E+01  0.66480887292E+00  0.25001755664E+01  0.51100000000E-03 0.  1.
         12    1    3    3    0    0  0.11851723555E+01  0.38334386873E+02 -0.70518998666E+01  0.38995629782E+02  0.00000000000E+00 0. -1.
</event>
<event>
 7    1  0.1284777E-011  0.5930186E+02  0.7816164E-02  0.1266605E+00
        -11   -1    0    0    0    0  0.00000000000E+00  0.00000000000E+00  0.45593999997E+02  0.45594000000E+02  0.51100000000E-03 0.  1.
         11   -1    0    0    0    0 -0.00000000000E+00 -0.00000000000E+00 -0.45593999997E+02  0.45594000000E+02  0.51100000000E-03 0. -1.
    9900012    2    1    2    0    0  0.17943503916E+02  0.24422408176E+02  0.99147782700E+01  0.59301855955E+02  0.49999839376E+02 0.  0.
        -12    1    1    2    0    0 -0.17943503916E+02 -0.24422408176E+02 -0.99147782700E+01  0.31886144045E+02  0.00000000000E+00 0.  1.
         11    1    3    3    0    0  0.61881270002E+01  0.12857192122E+02 -0.65760807833E+01  0.15711306240E+02  0.51100000000E-03 0.  1.
        -11    1    3    3    0    0  0.94438567488E+00  0.20309976390E+02 -0.20276236089E+01  0.20432774237E+02  0.51100000000E-03 0. -1.
        -12    1    3    3    0    0  0.10810991241E+02 -0.87447603361E+01  0.18518482662E+02  0.23157775477E+02  0.00000000000E+00 0.  1.
</event>
<event>
 7    1  0.1284777E-011  0.5930187E+02  0.7816164E-02  0.1266605E+00
        -11   -1    0    0    0    0  0.00000000000E+00  0.00000000000E+00  0.45593999997E+02  0.45594000000E+02  0.51100000000E-03 0.  1.
         11   -1    0    0    0    0 -0.00000000000E+00 -0.00000000000E+00 -0.45593999997E+02  0.45594000000E+02  0.51100000000E-03 0. -1.
    9900012    2    1    2    0    0  0.14532027474E+02 -0.20455161185E+02 -0.19675668113E+02  0.59301868888E+02  0.49999862963E+02 0.  0.
        -12    1    1    2    0    0 -0.14532027474E+02  0.20455161185E+02  0.19675668113E+02  0.31886131112E+02  0.00000000000E+00 0.  1.
         11    1    3    3    0    0 -0.54180422313E+01 -0.15606989017E+02 -0.47038164178E+01  0.17177286659E+02  0.51100000000E-03 0. -1.
        -11    1    3    3    0    0  0.22511372519E+02 -0.15318980415E+01 -0.23527247282E+02  0.32598158985E+02  0.51100000000E-03 0.  1.
         12    1    3    3    0    0 -0.25613028136E+01 -0.33162741259E+01  0.85553955870E+01  0.95264232444E+01  0.00000000000E+00 0. -1.
</event>
<event>
 7    1  0.1284777E-011  0.5930195E+02  0.7816164E-02  0.1266605E+00
        -11   -1    0    0    0    0  0.00000000000E+00  0.00000000000E+00  0.45593999997E+02  0.45594000000E+02  0.51100000000E-03 0. -1.
         11   -1    0    0    0    0 -0.00000000000E+00 -0.00000000000E+00 -0.45593999997E+02  0.45594000000E+02  0.51100000000E-03 0.  1.
    9900012    2    1    2    0    0 -0.96638540167E+01  0.18420664505E+02  0.24166283256E+02  0.59301949732E+02  0.50000010404E+02 0.  0.
        -12    1    1    2    0    0  0.96638540167E+01 -0.18420664505E+02 -0.24166283256E+02  0.31886050268E+02  0.00000000000E+00 0.  1.
         11    1    3    3    0    0 -0.10027170734E+02  0.13617447106E+02  0.12813042274E+02  0.21216811052E+02  0.51100000000E-03 0. -1.
        -11    1    3    3    0    0  0.11205775487E+01 -0.17726890276E+01  0.23850802206E+02  0.23942825367E+02  0.51100000000E-03 0.  1.
        -12    1    3    3    0    0 -0.75726083090E+00  0.65759064263E+01 -0.12497561224E+02  0.14142313313E+02  0.00000000000E+00 0.  1.
</event>
<event>
 7    1  0.1284777E-011  0.5930194E+02  0.7816164E-02  0.1266605E+00
        -11   -1    0    0    0    0  0.00000000000E+00  0.00000000000E+00  0.45593999997E+02  0.45594000000E+02  0.51100000000E-03 0.  1.
         11   -1    0    0    0    0 -0.00000000000E+00 -0.00000000000E+00 -0.45593999997E+02  0.45594000000E+02  0.51100000000E-03 0. -1.
    9900012    2    1    2    0    0  0.13608869238E+02  0.13983255368E+02 -0.25218803360E+02  0.59301940420E+02  0.49999993420E+02 0.  0.
        -12    1    1    2    0    0 -0.13608869238E+02 -0.13983255368E+02  0.25218803360E+02  0.31886059580E+02  0.00000000000E+00 0.  1.
         11    1    3    3    0    0  0.91684136622E+01 -0.12045150517E+01 -0.28898595283E+02  0.30342041382E+02  0.51100000000E-03 0. -1.
        -11    1    3    3    0    0 -0.51111195216E+01  0.88094726644E+00 -0.70000024847E+01  0.87120402833E+01  0.51100000000E-03 0.  1.
        -12    1    3    3    0    0  0.95515750977E+01  0.14306823153E+02  0.10679794408E+02  0.20247858755E+02  0.00000000000E+00 0.  1.
</event>
<event>
 7    1  0.1284777E-011  0.5930193E+02  0.7816164E-02  0.1266605E+00
        -11   -1    0    0    0    0  0.00000000000E+00  0.00000000000E+00  0.45593999997E+02  0.45594000000E+02  0.51100000000E-03 0.  1.
         11   -1    0    0    0    0 -0.00000000000E+00 -0.00000000000E+00 -0.45593999997E+02  0.45594000000E+02  0.51100000000E-03 0. -1.
    9900012    2    1    2    0    0 -0.21741903290E+02 -0.22722361441E+02 -0.52635750703E+01  0.59301932656E+02  0.49999979261E+02 0.  0.
        -12    1    1    2    0    0  0.21741903290E+02  0.22722361441E+02  0.52635750703E+01  0.31886067344E+02  0.00000000000E+00 0.  1.
         11    1    3    3    0    0 -0.25859148336E+02  0.80728222861E+01 -0.34050582641E+01  0.27303121330E+02  0.51100000000E-03 0.  1.
        -11    1    3    3    0    0  0.47309144795E+01 -0.12904928436E+02  0.13567436177E+01  0.13811570630E+02  0.51100000000E-03 0. -1.
        -12    1    3    3    0    0 -0.61366943380E+00 -0.17890255291E+02 -0.32152604239E+01  0.18187240696E+02  0.00000000000E+00 0.  1.
</event>
<event>
 7    1  0.1284777E-011  0.5930195E+02  0.7816164E-02  0.1266605E+00
        -11   -1    0    0    0    0  0.00000000000E+00  0.00000000000E+00  0.45593999997E+02  0.45594000000E+02  0.51100000000E-03 0. -1.
         11   -1    0    0    0    0 -0.00000000000E+00 -0.00000000000E+00 -0.45593999997E+02  0.45594000000E+02  0.51100000000E-03 0.  1.
    9900012    2    1    2    0    0 -0.62768133611E+01  0.29927347244E+02 -0.90374776678E+01  0.59301945029E+02  0.50000001826E+02 0.  0.
        -12    1    1    2    0    0  0.62768133611E+01 -0.29927347244E+02  0.90374776678E+01  0.31886054971E+02  0.00000000000E+00 0.  1.
         11    1    3    3    0    0  0.25373995209E+01 -0.26574183987E+01 -0.28549103955E+01  0.46530401354E+01  0.51100000000E-03 0. -1.
        -11    1    3    3    0    0  0.66156117706E+00  0.31891402108E+00 -0.18738471248E+02  0.18752857764E+02  0.51100000000E-03 0.  1.
         12    1    3    3    0    0 -0.94757740591E+01  0.32265851621E+02  0.12555903976E+02  0.35896047130E+02  0.00000000000E+00 0. -1.
</event>
<event>
 7    1  0.1284777E-011  0.5930195E+02  0.7816164E-02  0.1266605E+00
        -11   -1    0    0    0    0  0.00000000000E+00  0.00000000000E+00  0.45593999997E+02  0.45594000000E+02  0.51100000000E-03 0. -1.
         11   -1    0    0    0    0 -0.00000000000E+00 -0.00000000000E+00 -0.45593999997E+02  0.45594000000E+02  0.51100000000E-03 0.  1.
    9900012    2    1    2    0    0 -0.27241098603E+02 -0.14464077603E+02 -0.80890977152E+01  0.59301945120E+02  0.50000001991E+02 0.  0.
        -12    1    1    2    0    0  0.27241098603E+02  0.14464077603E+02  0.80890977152E+01  0.31886054880E+02  0.00000000000E+00 0.  1.
         11    1    3    3    0    0 -0.10086664279E+02  0.80546433342E+01 -0.32200003503E-01  0.12908102596E+02  0.51100000000E-03 0. -1.
        -11    1    3    3    0    0 -0.73848018041E+01  0.86552890216E+01  0.32347109072E+01  0.11828469075E+02  0.51100000000E-03 0.  1.
         12    1    3    3    0    0 -0.97696325192E+01 -0.31174009959E+02 -0.11291608619E+02  0.34565373449E+02  0.00000000000E+00 0. -1.
</event>
<event>
 7    1  0.1284777E-011  0.5930200E+02  0.7816164E-02  0.1266605E+00
        -11   -1    0    0    0    0  0.00000000000E+00  0.00000000000E+00  0.45593999997E+02  0.45594000000E+02  0.51100000000E-03 0.  1.
         11   -1    0    0    0    0 -0.00000000000E+00 -0.00000000000E+00 -0.45593999997E+02  0.45594000000E+02  0.51100000000E-03 0. -1.
    9900012    2    1    2    0    0 -0.31487462613E+02 -0.60609412857E+00 -0.49889509356E+01  0.59301995495E+02  0.50000093863E+02 0.  0.
        -12    1    1    2    0    0  0.31487462613E+02  0.60609412857E+00  0.49889509356E+01  0.31886004505E+02  0.00000000000E+00 0.  1.
         11    1    3    3    0    0 -0.11472552095E+02  0.13625872366E+02  0.20704374022E+01  0.17932388592E+02  0.51100000000E-03 0. -1.
        -11    1    3    3    0    0 -0.50396965295E+00  0.29505714141E+01  0.98907455924E+01  0.10333765321E+02  0.51100000000E-03 0.  1.
         12    1    3    3    0    0 -0.19510940865E+02 -0.17182537909E+02 -0.16950133930E+02  0.31035841582E+02  0.00000000000E+00 0. -1.
</event>
<event>
 7    1  0.1314403E-011  0.5930197E+02  0.7816164E-02  0.1266605E+00
        -11   -1    0    0    0    0  0.00000000000E+00  0.00000000000E+00  0.45593999997E+02  0.45594000000E+02  0.51100000000E-03 0. -1.
         11   -1    0    0    0    0 -0.00000000000E+00 -0.00000000000E+00 -0.45593999997E+02  0.45594000000E+02  0.51100000000E-03 0.  1.
    9900012    2    1    2    0    0  0.11328290164E+02  0.20046840253E+02  0.22057034353E+02  0.59301972863E+02  0.50000052588E+02 0.  0.
        -12    1    1    2    0    0 -0.11328290164E+02 -0.20046840253E+02 -0.22057034353E+02  0.31886027137E+02  0.00000000000E+00 0.  1.
         11    1    3    3    0    0  0.14363522745E+02  0.14733185850E+02  0.12471061977E+01  0.20613898832E+02  0.51100000000E-03 0. -1.
        -11    1    3    3    0    0 -0.48347249430E+01  0.12566994345E+02 -0.29468298643E+01  0.13783603254E+02  0.51100000000E-03 0.  1.
         12    1    3    3    0    0  0.17994923622E+01 -0.72533399423E+01  0.23756758019E+02  0.24904470777E+02  0.00000000000E+00 0. -1.
</event>
<event>
 7    1  0.1284777E-011  0.5930192E+02  0.7816164E-02  0.1266605E+00
        -11   -1    0    0    0    0  0.00000000000E+00  0.00000000000E+00  0.45593999997E+02  0.45594000000E+02  0.51100000000E-03 0.  1.
         11   -1    0    0    0    0 -0.00000000000E+00 -0.00000000000E+00 -0.45593999997E+02  0.45594000000E+02  0.51100000000E-03 0. -1.
    9900012    2    1    2    0    0 -0.30730277699E+02  0.17372626077E+01 -0.83279132629E+01  0.59301918583E+02  0.49999953594E+02 0.  0.
        -12    1    1    2    0    0  0.30730277699E+02 -0.17372626077E+01  0.83279132629E+01  0.31886081417E+02  0.00000000000E+00 0.  1.
         11    1    3    3    0    0 -0.31106962925E+02 -0.16981365358E+02 -0.14085007185E+02  0.38136561715E+02  0.51100000000E-03 0. -1.
        -11    1    3    3    0    0  0.27122703092E+00  0.11968003557E+01 -0.17213935795E+01  0.21140225426E+01  0.51100000000E-03 0.  1.
        -12    1    3    3    0    0  0.10545819430E+00  0.17521827610E+02  0.74784875013E+01  0.19051334325E+02  0.00000000000E+00 0.  1.
</event>
<event>
 7    1  0.1284777E-011  0.5930196E+02  0.7816164E-02  0.1266605E+00
        -11   -1    0    0    0    0  0.00000000000E+00  0.00000000000E+00  0.45593999997E+02  0.45594000000E+02  0.51100000000E-03 0. -1.
         11   -1    0    0    0    0 -0.00000000000E+00 -0.00000000000E+00 -0.45593999997E+02  0.45594000000E+02  0.51100000000E-03 0.  1.
    9900012    2    1    2    0    0  0.30042196941E+02  0.47358920237E+01  0.95790109639E+01  0.59301957265E+02  0.50000024141E+02 0.  0.
        -12    1    1    2    0    0 -0.30042196941E+02 -0.47358920237E+01 -0.95790109639E+01  0.31886042735E+02  0.00000000000E+00 0.  1.
         11    1    3    3    0    0  0.12845653694E+02  0.97901243132E+01 -0.60687480300E+01  0.17253609935E+02  0.51100000000E-03 0. -1.
        -11    1    3    3    0    0  0.70457553133E+01  0.14754755625E+02  0.36142870501E+01  0.16745403926E+02  0.51100000000E-03 0.  1.
         12    1    3    3    0    0  0.10150787934E+02 -0.19808987915E+02  0.12033471944E+02  0.25302943404E+02  0.00000000000E+00 0. -1.
</event>
<event>
 7    1  0.1284777E-011  0.5930198E+02  0.7816164E-02  0.1266605E+00
        -11   -1    0    0    0    0  0.00000000000E+00  0.00000000000E+00  0.45593999997E+02  0.45594000000E+02  0.51100000000E-03 0.  1.
         11   -1    0    0    0    0 -0.00000000000E+00 -0.00000000000E+00 -0.45593999997E+02  0.45594000000E+02  0.51100000000E-03 0. -1.
    9900012    2    1    2    0    0 -0.13313516382E+02  0.24421033203E+02 -0.15591085438E+02  0.59301976003E+02  0.50000058316E+02 0.  0.
        -12    1    1    2    0    0  0.13313516382E+02 -0.24421033203E+02  0.15591085438E+02  0.31886023997E+02  0.00000000000E+00 0.  1.
         11    1    3    3    0    0  0.11453344469E+02  0.35476188357E+01 -0.35245058846E+01  0.12497473381E+02  0.51100000000E-03 0. -1.
        -11    1    3    3    0    0  0.63465654923E+01  0.80492685691E+01 -0.78038106341E+01  0.12882898692E+02  0.51100000000E-03 0.  1.
         12    1    3    3    0    0 -0.31113426344E+02  0.12824145799E+02 -0.42627689191E+01  0.33921603930E+02  0.00000000000E+00 0. -1.
</event>
<event>
 7    1  0.1284777E-011  0.5930195E+02  0.7816164E-02  0.1266605E+00
        -11   -1    0    0    0    0  0.00000000000E+00  0.00000000000E+00  0.45593999997E+02  0.45594000000E+02  0.51100000000E-03 0.  1.
         11   -1    0    0    0    0 -0.00000000000E+00 -0.00000000000E+00 -0.45593999997E+02  0.45594000000E+02  0.51100000000E-03 0. -1.
    9900012    2    1    2    0    0  0.39970955412E+01  0.80570933503E+01  0.30591282497E+02  0.59301951470E+02  0.50000013573E+02 0.  0.
        -12    1    1    2    0    0 -0.39970955412E+01 -0.80570933503E+01 -0.30591282497E+02  0.31886048530E+02  0.00000000000E+00 0.  1.
         11    1    3    3    0    0  0.48537616345E+01 -0.55645993540E+01  0.94001139354E+00  0.74436140185E+01  0.51100000000E-03 0.  1.
        -11    1    3    3    0    0  0.16282759143E+01  0.27575346751E+02  0.24024351233E+02  0.36609021884E+02  0.51100000000E-03 0. -1.
         12    1    3    3    0    0 -0.24849420077E+01 -0.13953654047E+02  0.56269198707E+01  0.15249315567E+02  0.00000000000E+00 0. -1.
</event>
<event>
 7    1  0.1284777E-011  0.5930195E+02  0.7816164E-02  0.1266605E+00
        -11   -1    0    0    0    0  0.00000000000E+00  0.00000000000E+00  0.45593999997E+02  0.45594000000E+02  0.51100000000E-03 0. -1.
         11   -1    0    0    0    0 -0.00000000000E+00 -0.00000000000E+00 -0.45593999997E+02  0.45594000000E+02  0.51100000000E-03 0.  1.
    9900012    2    1    2    0    0 -0.29592845803E+02  0.44169688394E+01 -0.11021520450E+02  0.59301952119E+02  0.50000014756E+02 0.  0.
        -12    1    1    2    0    0  0.29592845803E+02 -0.44169688394E+01  0.11021520450E+02  0.31886047881E+02  0.00000000000E+00 0.  1.
         11    1    3    3    0    0 -0.14980465081E+02 -0.48124377045E+01  0.59843448303E+01  0.16834080729E+02  0.51100000000E-03 0. -1.
        -11    1    3    3    0    0 -0.22592985616E+02 -0.40671154603E+01 -0.13273594349E+02  0.26517404368E+02  0.51100000000E-03 0.  1.
        -12    1    3    3    0    0  0.79806048938E+01  0.13296522004E+02 -0.37322709314E+01  0.15950467021E+02  0.00000000000E+00 0.  1.
</event>
<event>
 7    1  0.1284777E-011  0.5930195E+02  0.7816164E-02  0.1266605E+00
        -11   -1    0    0    0    0  0.00000000000E+00  0.00000000000E+00  0.45593999997E+02  0.45594000000E+02  0.51100000000E-03 0.  1.
         11   -1    0    0    0    0 -0.00000000000E+00 -0.00000000000E+00 -0.45593999997E+02  0.45594000000E+02  0.51100000000E-03 0. -1.
    9900012    2    1    2    0    0 -0.16544754963E+01  0.20150664758E+01 -0.31779279816E+02  0.59301946502E+02  0.50000004512E+02 0.  0.
        -12    1    1    2    0    0  0.16544754963E+01 -0.20150664758E+01  0.31779279816E+02  0.31886053498E+02  0.00000000000E+00 0.  1.
         11    1    3    3    0    0 -0.69160303941E+00 -0.20046083358E+02 -0.16849666944E+02  0.26196088432E+02  0.51100000000E-03 0. -1.
        -11    1    3    3    0    0 -0.51928236853E+00 -0.33297764216E+01  0.47607027592E+00  0.34034847384E+01  0.51100000000E-03 0.  1.
        -12    1    3    3    0    0 -0.44359008834E+00  0.25390926255E+02 -0.15405683148E+02  0.29702373332E+02  0.00000000000E+00 0.  1.
</event>
<event>
 7    1  0.1284777E-011  0.5930194E+02  0.7816164E-02  0.1266605E+00
        -11   -1    0    0    0    0  0.00000000000E+00  0.00000000000E+00  0.45593999997E+02  0.45594000000E+02  0.51100000000E-03 0. -1.
         11   -1    0    0    0    0 -0.00000000000E+00 -0.00000000000E+00 -0.45593999997E+02  0.45594000000E+02  0.51100000000E-03 0.  1.
    9900012    2    1    2    0    0  0.25983344435E+02 -0.15591016577E+02  0.99250500816E+01  0.59301943407E+02  0.49999998868E+02 0.  0.
        -12    1    1    2    0    0 -0.25983344435E+02  0.15591016577E+02 -0.99250500816E+01  0.31886056593E+02  0.00000000000E+00 0.  1.
         11    1    3    3    0    0  0.11076012581E+02  0.14200985351E+02 -0.62336385544E+01  0.19057919339E+02  0.51100000000E-03 0. -1.
        -11    1    3    3    0    0 -0.26527403021E+01 -0.58045691166E+01  0.61856745187E+01  0.88877794331E+01  0.51100000000E-03 0.  1.
        -12    1    3    3    0    0  0.17560072156E+02 -0.23987432812E+02  0.99730141172E+01  0.31356244635E+02  0.00000000000E+00 0.  1.
</event>
<event>
 7    1  0.1284777E-011  0.5930215E+02  0.7816164E-02  0.1266604E+00
        -11   -1    0    0    0    0  0.00000000000E+00  0.00000000000E+00  0.45593999997E+02  0.45594000000E+02  0.51100000000E-03 0. -1.
         11   -1    0    0    0    0 -0.00000000000E+00 -0.00000000000E+00 -0.45593999997E+02  0.45594000000E+02  0.51100000000E-03 0.  1.
    9900012    2    1    2    0    0  0.29024066468E+02  0.10820060176E+02 -0.75655126890E+01  0.59302154883E+02  0.50000384548E+02 0.  0.
        -12    1    1    2    0    0 -0.29024066468E+02 -0.10820060176E+02  0.75655126890E+01  0.31885845117E+02  0.00000000000E+00 0.  1.
         11    1    3    3    0    0 -0.10784910437E+01  0.63941230441E+01 -0.96603676019E+00  0.65560033342E+01  0.51100000000E-03 0. -1.
        -11    1    3    3    0    0 -0.10705779304E+02  0.37596000767E+01  0.31349545549E+00  0.11351060872E+02  0.51100000000E-03 0.  1.
         12    1    3    3    0    0  0.40808336816E+02  0.66633705570E+00 -0.69129713843E+01  0.41395090677E+02  0.00000000000E+00 0. -1.
</event>
<event>
 7    1  0.1284777E-011  0.5930188E+02  0.7816164E-02  0.1266605E+00
        -11   -1    0    0    0    0  0.00000000000E+00  0.00000000000E+00  0.45593999997E+02  0.45594000000E+02  0.51100000000E-03 0.  1.
         11   -1    0    0    0    0 -0.00000000000E+00 -0.00000000000E+00 -0.45593999997E+02  0.45594000000E+02  0.51100000000E-03 0. -1.
    9900012    2    1    2    0    0  0.20209411405E+01  0.28859882379E+02  0.13407008162E+02  0.59301876343E+02  0.49999876560E+02 0.  0.
        -12    1    1    2    0    0 -0.20209411405E+01 -0.28859882379E+02 -0.13407008162E+02  0.31886123657E+02  0.00000000000E+00 0.  1.
         11    1    3    3    0    0 -0.13425934509E+02  0.27323268505E+01  0.43408977471E+01  0.14372359617E+02  0.51100000000E-03 0. -1.
        -11    1    3    3    0    0  0.20119521723E+02  0.78571247554E+01  0.13612239187E+02  0.25530817059E+02  0.51100000000E-03 0.  1.
         12    1    3    3    0    0 -0.46726460731E+01  0.18270430773E+02 -0.45461287724E+01  0.19398699667E+02  0.00000000000E+00 0. -1.
</event>
<event>
 7    1  0.1284777E-011  0.5930193E+02  0.7816164E-02  0.1266605E+00
        -11   -1    0    0    0    0  0.00000000000E+00  0.00000000000E+00  0.45593999997E+02  0.45594000000E+02  0.51100000000E-03 0. -1.
         11   -1    0    0    0    0 -0.00000000000E+00 -0.00000000000E+00 -0.45593999997E+02  0.45594000000E+02  0.51100000000E-03 0.  1.
    9900012    2    1    2    0    0 -0.16591703070E+02 -0.68067205836E+01  0.26364848759E+02  0.59301932417E+02  0.49999978824E+02 0.  0.
        -12    1    1    2    0    0  0.16591703070E+02  0.68067205836E+01 -0.26364848759E+02  0.31886067583E+02  0.00000000000E+00 0.  1.
         11    1    3    3    0    0 -0.25074953974E+02 -0.85869669700E+01  0.68161089045E+01  0.27366926378E+02  0.51100000000E-03 0. -1.
        -11    1    3    3    0    0 -0.80702843048E+00 -0.21701417435E+01 -0.49352709623E+01  0.54513952166E+01  0.51100000000E-03 0.  1.
         12    1    3    3    0    0  0.92902793345E+01  0.39503881298E+01  0.24484010816E+02  0.26483610822E+02  0.00000000000E+00 0. -1.
</event>
<event>
 7    1  0.1284777E-011  0.5930188E+02  0.7816164E-02  0.1266605E+00
        -11   -1    0    0    0    0  0.00000000000E+00  0.00000000000E+00  0.45593999997E+02  0.45594000000E+02  0.51100000000E-03 0.  1.
         11   -1    0    0    0    0 -0.00000000000E+00 -0.00000000000E+00 -0.45593999997E+02  0.45594000000E+02  0.51100000000E-03 0. -1.
    9900012    2    1    2    0    0 -0.58764492981E+01  0.21675466240E+02 -0.22635505648E+02  0.59301880622E+02  0.49999884362E+02 0.  0.
        -12    1    1    2    0    0  0.58764492981E+01 -0.21675466240E+02  0.22635505648E+02  0.31886119378E+02  0.00000000000E+00 0.  1.
         11    1    3    3    0    0  0.59661464735E+01  0.10207554914E+02 -0.87902887492E+01  0.14732897122E+02  0.51100000000E-03 0. -1.
        -11    1    3    3    0    0  0.36382059873E+01  0.22682265606E+02 -0.50201792550E+01  0.23514334263E+02  0.51100000000E-03 0.  1.
         12    1    3    3    0    0 -0.15480801759E+02 -0.11214354280E+02 -0.88250376438E+01  0.21054649236E+02  0.00000000000E+00 0. -1.
</event>
<event>
 7    1  0.1284777E-011  0.5930195E+02  0.7816164E-02  0.1266605E+00
        -11   -1    0    0    0    0  0.00000000000E+00  0.00000000000E+00  0.45593999997E+02  0.45594000000E+02  0.51100000000E-03 0. -1.
         11   -1    0    0    0    0 -0.00000000000E+00 -0.00000000000E+00 -0.45593999997E+02  0.45594000000E+02  0.51100000000E-03 0.  1.
    9900012    2    1    2    0    0  0.96332209832E+00  0.31520588103E+02 -0.47164142114E+01  0.59301952474E+02  0.50000015404E+02 0.  0.
        -12    1    1    2    0    0 -0.96332209832E+00 -0.31520588103E+02  0.47164142114E+01  0.31886047526E+02  0.00000000000E+00 0.  1.
         11    1    3    3    0    0 -0.54253973212E+01  0.18303041745E+01 -0.70666167870E+01  0.90951647890E+01  0.51100000000E-03 0. -1.
        -11    1    3    3    0    0  0.75682292810E+01 -0.23381685414E+01 -0.12567049119E+02  0.14855162416E+02  0.51100000000E-03 0.  1.
         12    1    3    3    0    0 -0.11795098615E+01  0.32028452470E+02  0.14917251694E+02  0.35351625270E+02  0.00000000000E+00 0. -1.
</event>
<event>
 7    1  0.1284777E-011  0.5930194E+02  0.7816164E-02  0.1266605E+00
        -11   -1    0    0    0    0  0.00000000000E+00  0.00000000000E+00  0.45593999997E+02  0.45594000000E+02  0.51100000000E-03 0. -1.
         11   -1    0    0    0    0 -0.00000000000E+00 -0.00000000000E+00 -0.45593999997E+02  0.45594000000E+02  0.51100000000E-03 0.  1.
    9900012    2    1    2    0    0 -0.14078224870E+02  0.24566768508E+02  0.14662810491E+02  0.59301944397E+02  0.50000000673E+02 0.  0.
        -12    1    1    2    0    0  0.14078224870E+02 -0.24566768508E+02 -0.14662810491E+02  0.31886055603E+02  0.00000000000E+00 0.  1.
         11    1    3    3    0    0  0.17315531610E+01  0.54255622631E+01 -0.35840100034E+01  0.67290512099E+01  0.51100000000E-03 0. -1.
        -11    1    3    3    0    0 -0.89308657892E+01 -0.12914391389E+02  0.15422981001E+01  0.15777216243E+02  0.51100000000E-03 0.  1.
         12    1    3    3    0    0 -0.68789122421E+01  0.32055597634E+02  0.16704522394E+02  0.36795676944E+02  0.00000000000E+00 0. -1.
</event>
<event>
 7    1  0.1284777E-011  0.5930195E+02  0.7816164E-02  0.1266605E+00
        -11   -1    0    0    0    0  0.00000000000E+00  0.00000000000E+00  0.45593999997E+02  0.45594000000E+02  0.51100000000E-03 0.  1.
         11   -1    0    0    0    0 -0.00000000000E+00 -0.00000000000E+00 -0.45593999997E+02  0.45594000000E+02  0.51100000000E-03 0. -1.
    9900012    2    1    2    0    0 -0.25478930980E+02  0.19159957156E+02 -0.66374006033E+00  0.59301946105E+02  0.50000003789E+02 0.  0.
        -12    1    1    2    0    0  0.25478930980E+02 -0.19159957156E+02  0.66374006033E+00  0.31886053895E+02  0.00000000000E+00 0.  1.
         11    1    3    3    0    0 -0.13662159599E+02  0.10126194438E+02  0.20353872575E+02  0.26523094611E+02  0.51100000000E-03 0.  1.
        -11    1    3    3    0    0  0.28571236577E+01  0.62758330918E+01  0.12372408396E+00  0.68967053367E+01  0.51100000000E-03 0. -1.
         12    1    3    3    0    0 -0.14673895038E+02  0.27579296269E+01 -0.21141336719E+02  0.25882146157E+02  0.00000000000E+00 0. -1.
</event>
<event>
 7    1  0.1284777E-011  0.5930196E+02  0.7816164E-02  0.1266605E+00
        -11   -1    0    0    0    0  0.00000000000E+00  0.00000000000E+00  0.45593999997E+02  0.45594000000E+02  0.51100000000E-03 0.  1.
         11   -1    0    0    0    0 -0.00000000000E+00 -0.00000000000E+00 -0.45593999997E+02  0.45594000000E+02  0.51100000000E-03 0. -1.
    9900012    2    1    2    0    0 -0.34110834018E+01 -0.20204613008E+01 -0.31638611466E+02  0.59301960903E+02  0.50000030776E+02 0.  0.
        -12    1    1    2    0    0  0.34110834018E+01  0.20204613008E+01  0.31638611466E+02  0.31886039097E+02  0.00000000000E+00 0.  1.
         11    1    3    3    0    0 -0.26395924033E+01 -0.57899843046E+01 -0.58688051615E+00  0.63902891409E+01  0.51100000000E-03 0. -1.
        -11    1    3    3    0    0  0.13509536686E+01 -0.16725135433E+02 -0.14459864353E+01  0.16841796463E+02  0.51100000000E-03 0.  1.
         12    1    3    3    0    0 -0.21224446671E+01  0.20494658437E+02 -0.29605744514E+02  0.36069875299E+02  0.00000000000E+00 0. -1.
</event>
<event>
 7    1  0.1284777E-011  0.5930193E+02  0.7816164E-02  0.1266605E+00
        -11   -1    0    0    0    0  0.00000000000E+00  0.00000000000E+00  0.45593999997E+02  0.45594000000E+02  0.51100000000E-03 0.  1.
         11   -1    0    0    0    0 -0.00000000000E+00 -0.00000000000E+00 -0.45593999997E+02  0.45594000000E+02  0.51100000000E-03 0. -1.
    9900012    2    1    2    0    0  0.24919027424E+01  0.31778506161E+02  0.79911806475E+00  0.59301927448E+02  0.49999969762E+02 0.  0.
        -12    1    1    2    0    0 -0.24919027424E+01 -0.31778506161E+02 -0.79911806475E+00  0.31886072552E+02  0.00000000000E+00 0.  1.
         11    1    3    3    0    0 -0.16480498908E+01  0.28861640164E+00  0.98988448455E+01  0.10039247851E+02  0.51100000000E-03 0. -1.
        -11    1    3    3    0    0 -0.73005894638E+01  0.71754131550E+01  0.11505741856E+02  0.15400235595E+02  0.51100000000E-03 0.  1.
         12    1    3    3    0    0  0.11440542097E+02  0.24314476605E+02 -0.20605468637E+02  0.33862444002E+02  0.00000000000E+00 0. -1.
</event>
<event>
 7    1  0.1284777E-011  0.5930195E+02  0.7816164E-02  0.1266605E+00
        -11   -1    0    0    0    0  0.00000000000E+00  0.00000000000E+00  0.45593999997E+02  0.45594000000E+02  0.51100000000E-03 0. -1.
         11   -1    0    0    0    0 -0.00000000000E+00 -0.00000000000E+00 -0.45593999997E+02  0.45594000000E+02  0.51100000000E-03 0.  1.
    9900012    2    1    2    0    0  0.21917566517E+02 -0.43658246251E+01  0.22743791271E+02  0.59301949946E+02  0.50000010793E+02 0.  0.
        -12    1    1    2    0    0 -0.21917566517E+02  0.43658246251E+01 -0.22743791271E+02  0.31886050054E+02  0.00000000000E+00 0.  1.
         11    1    3    3    0    0  0.25453138045E+02 -0.44405818275E-01  0.82000192628E+01  0.26741438338E+02  0.51100000000E-03 0.  1.
        -11    1    3    3    0    0  0.55625759154E+01 -0.13302054387E+02  0.18353314557E+01  0.14534625676E+02  0.51100000000E-03 0. -1.
        -12    1    3    3    0    0 -0.90981474434E+01  0.89806355804E+01  0.12708440552E+02  0.18025885931E+02  0.00000000000E+00 0.  1.
</event>
<event>
 7    1  0.1284777E-011  0.5930194E+02  0.7816164E-02  0.1266605E+00
        -11   -1    0    0    0    0  0.00000000000E+00  0.00000000000E+00  0.45593999997E+02  0.45594000000E+02  0.51100000000E-03 0. -1.
         11   -1    0    0    0    0 -0.00000000000E+00 -0.00000000000E+00 -0.45593999997E+02  0.45594000000E+02  0.51100000000E-03 0.  1.
    9900012    2    1    2    0    0 -0.11312924030E+02 -0.19049381757E+01  0.29750794566E+02  0.59301940086E+02  0.49999992811E+02 0.  0.
        -12    1    1    2    0    0  0.11312924030E+02  0.19049381757E+01 -0.29750794566E+02  0.31886059914E+02  0.00000000000E+00 0.  1.
         11    1    3    3    0    0 -0.87547003354E+00 -0.27616839363E+01 -0.29703674246E+01  0.41492684707E+01  0.51100000000E-03 0. -1.
        -11    1    3    3    0    0 -0.11961211580E+01 -0.64153522005E+01 -0.93874231215E+01  0.11432898268E+02  0.51100000000E-03 0.  1.
         12    1    3    3    0    0 -0.92413328386E+01  0.72720979612E+01  0.42108585112E+02  0.43719773347E+02  0.00000000000E+00 0. -1.
</event>
<event>
 7    1  0.1284777E-011  0.5930197E+02  0.7816164E-02  0.1266605E+00
        -11   -1    0    0    0    0  0.00000000000E+00  0.00000000000E+00  0.45593999997E+02  0.45594000000E+02  0.51100000000E-03 0.  1.
         11   -1    0    0    0    0 -0.00000000000E+00 -0.00000000000E+00 -0.45593999997E+02  0.45594000000E+02  0.51100000000E-03 0. -1.
    9900012    2    1    2    0    0 -0.31114403637E+02  0.27886112897E+01 -0.63903562005E+01  0.59301966710E+02  0.50000041366E+02 0.  0.
        -12    1    1    2    0    0  0.31114403637E+02 -0.27886112897E+01  0.63903562005E+01  0.31886033290E+02  0.00000000000E+00 0.  1.
         11    1    3    3    0    0  0.37594241623E+01  0.99551021581E+01  0.61022945978E+01  0.12266838575E+02  0.51100000000E-03 0. -1.
        -11    1    3    3    0    0 -0.21561587259E+02  0.92554518957E+01 -0.23306654180E+01  0.23579597886E+02  0.51100000000E-03 0.  1.
        -12    1    3    3    0    0 -0.13312240540E+02 -0.16421942764E+02 -0.10161985380E+02  0.23455530248E+02  0.00000000000E+00 0.  1.
</event>
<event>
 7    1  0.1284777E-011  0.5930194E+02  0.7816164E-02  0.1266605E+00
        -11   -1    0    0    0    0  0.00000000000E+00  0.00000000000E+00  0.45593999997E+02  0.45594000000E+02  0.51100000000E-03 0.  1.
         11   -1    0    0    0    0 -0.00000000000E+00 -0.00000000000E+00 -0.45593999997E+02  0.45594000000E+02  0.51100000000E-03 0. -1.
    9900012    2    1    2    0    0  0.55810434982E+01  0.12562484334E+02  0.28770759157E+02  0.59301942834E+02  0.49999997822E+02 0.  0.
        -12    1    1    2    0    0 -0.55810434982E+01 -0.12562484334E+02 -0.28770759157E+02  0.31886057166E+02  0.00000000000E+00 0.  1.
         11    1    3    3    0    0  0.53293459517E+01  0.40943483542E+01  0.12762027115E+01  0.68406366911E+01  0.51100000000E-03 0. -1.
        -11    1    3    3    0    0  0.55017018882E+01  0.92974182037E+01 -0.99225407353E+01  0.14668589701E+02  0.51100000000E-03 0.  1.
        -12    1    3    3    0    0 -0.52500043416E+01 -0.82928222371E+00  0.37417097180E+02  0.37792716441E+02  0.00000000000E+00 0.  1.
</event>
<event>
 7    1  0.1284777E-011  0.5930195E+02  0.7816164E-02  0.1266605E+00
        -11   -1    0    0    0    0  0.00000000000E+00  0.00000000000E+00  0.45593999997E+02  0.45594000000E+02  0.51100000000E-03 0.  1.
         11   -1    0    0    0    0 -0.00000000000E+00 -0.00000000000E+00 -0.45593999997E+02  0.45594000000E+02  0.51100000000E-03 0. -1.
    9900012    2    1    2    0    0 -0.42244800329E+01 -0.28059869585E+02 -0.14543656039E+02  0.59301945938E+02  0.50000003484E+02 0.  0.
        -12    1    1    2    0    0  0.42244800329E+01  0.28059869585E+02  0.14543656039E+02  0.31886054062E+02  0.00000000000E+00 0.  1.
         11    1    3    3    0    0 -0.86709850021E+01 -0.24268097515E+02 -0.11922425381E+02  0.28394907380E+02  0.51100000000E-03 0. -1.
        -11    1    3    3    0    0 -0.12585806534E+02  0.52772988096E-01  0.22365006100E+01  0.12783084383E+02  0.51100000000E-03 0.  1.
        -12    1    3    3    0    0  0.17032311503E+02 -0.38445450582E+01 -0.48577312687E+01  0.18123954175E+02  0.00000000000E+00 0.  1.
</event>
<event>
 7    1  0.1284777E-011  0.5930194E+02  0.7816164E-02  0.1266605E+00
        -11   -1    0    0    0    0  0.00000000000E+00  0.00000000000E+00  0.45593999997E+02  0.45594000000E+02  0.51100000000E-03 0.  1.
         11   -1    0    0    0    0 -0.00000000000E+00 -0.00000000000E+00 -0.45593999997E+02  0.45594000000E+02  0.51100000000E-03 0. -1.
    9900012    2    1    2    0    0 -0.58889322987E+01  0.28401238759E+02 -0.13244268944E+02  0.59301944325E+02  0.50000000541E+02 0.  0.
        -12    1    1    2    0    0  0.58889322987E+01 -0.28401238759E+02  0.13244268944E+02  0.31886055675E+02  0.00000000000E+00 0.  1.
         11    1    3    3    0    0  0.36066260505E+01  0.74858725056E+01 -0.25389148396E+01  0.86886205730E+01  0.51100000000E-03 0. -1.
        -11    1    3    3    0    0 -0.80657363642E+01 -0.37749214999E+01  0.13392282799E+02  0.16082890731E+02  0.51100000000E-03 0.  1.
         12    1    3    3    0    0 -0.14298219850E+01  0.24690287753E+02 -0.24097636904E+02  0.34530433021E+02  0.00000000000E+00 0. -1.
</event>
<event>
 7    1  0.1284777E-011  0.5930162E+02  0.7816164E-02  0.1266606E+00
        -11   -1    0    0    0    0  0.00000000000E+00  0.00000000000E+00  0.45593999997E+02  0.45594000000E+02  0.51100000000E-03 0. -1.
         11   -1    0    0    0    0 -0.00000000000E+00 -0.00000000000E+00 -0.45593999997E+02  0.45594000000E+02  0.51100000000E-03 0.  1.
    9900012    2    1    2    0    0  0.72172655965E+01 -0.30948986330E+02 -0.26101366396E+01  0.59301615902E+02  0.49999401574E+02 0.  0.
        -12    1    1    2    0    0 -0.72172655965E+01  0.30948986330E+02  0.26101366396E+01  0.31886384098E+02  0.00000000000E+00 0.  1.
         11    1    3    3    0    0  0.38968568163E+01  0.30923018860E+01  0.83766532660E+01  0.97424916834E+01  0.51100000000E-03 0.  1.
        -11    1    3    3    0    0  0.12200444257E+02 -0.19755554082E+02 -0.19848696969E+02  0.30546743341E+02  0.51100000000E-03 0. -1.
         12    1    3    3    0    0 -0.88800354766E+01 -0.14285734135E+02  0.88619070633E+01  0.19012380877E+02  0.00000000000E+00 0. -1.
</event>
<event>
 7    1  0.1284777E-011  0.5930195E+02  0.7816164E-02  0.1266605E+00
        -11   -1    0    0    0    0  0.00000000000E+00  0.00000000000E+00  0.45593999997E+02  0.45594000000E+02  0.51100000000E-03 0. -1.
         11   -1    0    0    0    0 -0.00000000000E+00 -0.00000000000E+00 -0.45593999997E+02  0.45594000000E+02  0.51100000000E-03 0.  1.
    9900012    2    1    2    0    0  0.26801804343E+02 -0.90821693354E+01  0.14693455094E+02  0.59301950723E+02  0.50000012211E+02 0.  0.
        -12    1    1    2    0    0 -0.26801804343E+02  0.90821693354E+01 -0.14693455094E+02  0.31886049277E+02  0.00000000000E+00 0.  1.
         11    1    3    3    0    0  0.11065193028E+02 -0.14502490674E+01  0.13573737417E+02  0.17572366569E+02  0.51100000000E-03 0. -1.
        -11    1    3    3    0    0  0.94029699822E+01 -0.79892914643E+01  0.19057478050E+02  0.22703129574E+02  0.51100000000E-03 0.  1.
        -12    1    3    3    0    0  0.63336413332E+01  0.35737119622E+00 -0.17937760373E+02  0.19026454580E+02  0.00000000000E+00 0.  1.
</event>
<event>
 7    1  0.1284777E-011  0.5930205E+02  0.7816164E-02  0.1266604E+00
        -11   -1    0    0    0    0  0.00000000000E+00  0.00000000000E+00  0.45593999997E+02  0.45594000000E+02  0.51100000000E-03 0.  1.
         11   -1    0    0    0    0 -0.00000000000E+00 -0.00000000000E+00 -0.45593999997E+02  0.45594000000E+02  0.51100000000E-03 0. -1.
    9900012    2    1    2    0    0 -0.30508557474E+01  0.26409002087E+02 -0.17605988790E+02  0.59302047712E+02  0.50000189095E+02 0.  0.
        -12    1    1    2    0    0  0.30508557474E+01 -0.26409002087E+02  0.17605988790E+02  0.31885952288E+02  0.00000000000E+00 0.  1.
         11    1    3    3    0    0 -0.71394206360E-01  0.67020190398E+00 -0.18456789017E+02  0.18469091174E+02  0.51100000000E-03 0. -1.
        -11    1    3    3    0    0  0.11230818642E+02  0.10627599548E+02  0.97304613320E+01  0.18269073253E+02  0.51100000000E-03 0.  1.
        -12    1    3    3    0    0 -0.14210280183E+02  0.15111200635E+02 -0.88796611057E+01  0.22563883285E+02  0.00000000000E+00 0.  1.
</event>
<event>
 7    1  0.1284777E-011  0.5930193E+02  0.7816164E-02  0.1266605E+00
        -11   -1    0    0    0    0  0.00000000000E+00  0.00000000000E+00  0.45593999997E+02  0.45594000000E+02  0.51100000000E-03 0. -1.
         11   -1    0    0    0    0 -0.00000000000E+00 -0.00000000000E+00 -0.45593999997E+02  0.45594000000E+02  0.51100000000E-03 0.  1.
    9900012    2    1    2    0    0 -0.23743636005E+02  0.82518825011E+01 -0.19618046015E+02  0.59301928668E+02  0.49999971987E+02 0.  0.
        -12    1    1    2    0    0  0.23743636005E+02 -0.82518825011E+01  0.19618046015E+02  0.31886071332E+02  0.00000000000E+00 0.  1.
         11    1    3    3    0    0  0.88711893953E+01 -0.32110731429E+01 -0.89743592694E+01  0.13021064341E+02  0.51100000000E-03 0. -1.
        -11    1    3    3    0    0  0.52583850163E+01 -0.15592835882E+00 -0.25541918917E+01  0.58479759844E+01  0.51100000000E-03 0.  1.
         12    1    3    3    0    0 -0.37873210417E+02  0.11618884003E+02 -0.80894948538E+01  0.40432888343E+02  0.00000000000E+00 0. -1.
</event>
<event>
 7    1  0.1284777E-011  0.5930194E+02  0.7816164E-02  0.1266605E+00
        -11   -1    0    0    0    0  0.00000000000E+00  0.00000000000E+00  0.45593999997E+02  0.45594000000E+02  0.51100000000E-03 0.  1.
         11   -1    0    0    0    0 -0.00000000000E+00 -0.00000000000E+00 -0.45593999997E+02  0.45594000000E+02  0.51100000000E-03 0. -1.
    9900012    2    1    2    0    0 -0.29358324909E+01 -0.26600485874E+02 -0.17335385441E+02  0.59301944277E+02  0.50000000455E+02 0.  0.
        -12    1    1    2    0    0  0.29358324909E+01  0.26600485874E+02  0.17335385441E+02  0.31886055723E+02  0.00000000000E+00 0.  1.
         11    1    3    3    0    0 -0.51331791537E+01 -0.11708562665E+02 -0.21134184538E+02  0.24700075390E+02  0.51100000000E-03 0. -1.
        -11    1    3    3    0    0  0.56864409322E+00 -0.22495430442E+02  0.10030488918E+02  0.24636932745E+02  0.51100000000E-03 0.  1.
         12    1    3    3    0    0  0.16287025696E+01  0.76035072331E+01 -0.62316898205E+01  0.99649361425E+01  0.00000000000E+00 0. -1.
</event>
<event>
 7    1  0.1284777E-011  0.5930197E+02  0.7816164E-02  0.1266605E+00
        -11   -1    0    0    0    0  0.00000000000E+00  0.00000000000E+00  0.45593999997E+02  0.45594000000E+02  0.51100000000E-03 0.  1.
         11   -1    0    0    0    0 -0.00000000000E+00 -0.00000000000E+00 -0.45593999997E+02  0.45594000000E+02  0.51100000000E-03 0. -1.
    9900012    2    1    2    0    0 -0.23467076970E+02 -0.13533529996E+02 -0.16818413928E+02  0.59301965710E+02  0.50000039544E+02 0.  0.
        -12    1    1    2    0    0  0.23467076970E+02  0.13533529996E+02  0.16818413928E+02  0.31886034290E+02  0.00000000000E+00 0.  1.
         11    1    3    3    0    0 -0.64035468063E+01 -0.11425316927E+02  0.56319683964E+01  0.14257010446E+02  0.51100000000E-03 0. -1.
        -11    1    3    3    0    0 -0.19970685485E+02 -0.79519524356E+00  0.22741658366E+01  0.20115477740E+02  0.51100000000E-03 0.  1.
         12    1    3    3    0    0  0.29071553207E+01 -0.13130178254E+01 -0.24724548161E+02  0.24929477524E+02  0.00000000000E+00 0. -1.
</event>
<event>
 7    1  0.1284777E-011  0.5930195E+02  0.7816164E-02  0.1266605E+00
        -11   -1    0    0    0    0  0.00000000000E+00  0.00000000000E+00  0.45593999997E+02  0.45594000000E+02  0.51100000000E-03 0. -1.
         11   -1    0    0    0    0 -0.00000000000E+00 -0.00000000000E+00 -0.45593999997E+02  0.45594000000E+02  0.51100000000E-03 0.  1.
    9900012    2    1    2    0    0  0.28364376093E+02  0.12035867802E+02 -0.82049040564E+01  0.59301946693E+02  0.50000004861E+02 0.  0.
        -12    1    1    2    0    0 -0.28364376093E+02 -0.12035867802E+02  0.82049040564E+01  0.31886053307E+02  0.00000000000E+00 0.  1.
         11    1    3    3    0    0  0.58299437870E+01  0.98697744661E+01 -0.84500599124E+01  0.14240934146E+02  0.51100000000E-03 0. -1.
        -11    1    3    3    0    0  0.20340673475E+02 -0.22005515056E+01 -0.17334070312E+02  0.26815208710E+02  0.51100000000E-03 0.  1.
        -12    1    3    3    0    0  0.21937588311E+01  0.43666448418E+01  0.17579226168E+02  0.18245803836E+02  0.00000000000E+00 0.  1.
</event>
<event>
 7    1  0.1284777E-011  0.5930196E+02  0.7816164E-02  0.1266605E+00
        -11   -1    0    0    0    0  0.00000000000E+00  0.00000000000E+00  0.45593999997E+02  0.45594000000E+02  0.51100000000E-03 0. -1.
         11   -1    0    0    0    0 -0.00000000000E+00 -0.00000000000E+00 -0.45593999997E+02  0.45594000000E+02  0.51100000000E-03 0.  1.
    9900012    2    1    2    0    0  0.24287659678E+02  0.18663045762E+02 -0.88611512641E+01  0.59301957732E+02  0.50000024994E+02 0.  0.
        -12    1    1    2    0    0 -0.24287659678E+02 -0.18663045762E+02  0.88611512641E+01  0.31886042268E+02  0.00000000000E+00 0.  1.
         11    1    3    3    0    0  0.21643470419E+02  0.49669756234E-01  0.74715392645E+01  0.22896859569E+02  0.51100000000E-03 0. -1.
        -11    1    3    3    0    0  0.10707644591E+02  0.39805137527E+00 -0.11134770715E+00  0.10715619262E+02  0.51100000000E-03 0.  1.
        -12    1    3    3    0    0 -0.80634553326E+01  0.18215324631E+02 -0.16221342821E+02  0.25689478902E+02  0.00000000000E+00 0.  1.
</event>
<event>
 7    1  0.1284777E-011  0.5930195E+02  0.7816164E-02  0.1266605E+00
        -11   -1    0    0    0    0  0.00000000000E+00  0.00000000000E+00  0.45593999997E+02  0.45594000000E+02  0.51100000000E-03 0.  1.
         11   -1    0    0    0    0 -0.00000000000E+00 -0.00000000000E+00 -0.45593999997E+02  0.45594000000E+02  0.51100000000E-03 0. -1.
    9900012    2    1    2    0    0 -0.27849302568E+02 -0.14292481877E+02 -0.60713488664E+01  0.59301953384E+02  0.50000017064E+02 0.  0.
        -12    1    1    2    0    0  0.27849302568E+02  0.14292481877E+02  0.60713488664E+01  0.31886046616E+02  0.00000000000E+00 0.  1.
         11    1    3    3    0    0 -0.27561084781E+02 -0.10118885804E+02  0.99462770102E+01  0.30998930156E+02  0.51100000000E-03 0.  1.
        -11    1    3    3    0    0 -0.11296032186E+02  0.62054711646E+00 -0.72655282391E+01  0.13445197013E+02  0.51100000000E-03 0. -1.
        -12    1    3    3    0    0  0.11007814399E+02 -0.47941431892E+01 -0.87520976375E+01  0.14857826215E+02  0.00000000000E+00 0.  1.
</event>
<event>
 7    1  0.1284777E-011  0.5930195E+02  0.7816164E-02  0.1266605E+00
        -11   -1    0    0    0    0  0.00000000000E+00  0.00000000000E+00  0.45593999997E+02  0.45594000000E+02  0.51100000000E-03 0. -1.
         11   -1    0    0    0    0 -0.00000000000E+00 -0.00000000000E+00 -0.45593999997E+02  0.45594000000E+02  0.51100000000E-03 0.  1.
    9900012    2    1    2    0    0 -0.17995940453E+02  0.12370389647E+02  0.23234452118E+02  0.59301950103E+02  0.50000011080E+02 0.  0.
        -12    1    1    2    0    0  0.17995940453E+02 -0.12370389647E+02 -0.23234452118E+02  0.31886049897E+02  0.00000000000E+00 0.  1.
         11    1    3    3    0    0 -0.22558932506E+02  0.30829016018E+01  0.94234049476E+01  0.24641637104E+02  0.51100000000E-03 0. -1.
        -11    1    3    3    0    0 -0.19943438699E+01 -0.96233919519E+01 -0.82801021660E+00  0.98626913828E+01  0.51100000000E-03 0.  1.
        -12    1    3    3    0    0  0.65573359224E+01  0.18910879997E+02  0.14639057387E+02  0.24797621616E+02  0.00000000000E+00 0.  1.
</event>
<event>
 7    1  0.1284777E-011  0.5930193E+02  0.7816164E-02  0.1266605E+00
        -11   -1    0    0    0    0  0.00000000000E+00  0.00000000000E+00  0.45593999997E+02  0.45594000000E+02  0.51100000000E-03 0. -1.
         11   -1    0    0    0    0 -0.00000000000E+00 -0.00000000000E+00 -0.45593999997E+02  0.45594000000E+02  0.51100000000E-03 0.  1.
    9900012    2    1    2    0    0 -0.25592069442E+02 -0.15281525082E+02  0.11324406060E+02  0.59301934081E+02  0.49999981860E+02 0.  0.
        -12    1    1    2    0    0  0.25592069442E+02  0.15281525082E+02 -0.11324406060E+02  0.31886065919E+02  0.00000000000E+00 0.  1.
         11    1    3    3    0    0 -0.40238900975E+01 -0.14182214847E+02  0.70157164700E+01  0.16326272916E+02  0.51100000000E-03 0.  1.
        -11    1    3    3    0    0  0.31490437082E+01 -0.13831452310E+02  0.53286215500E+01  0.15153209468E+02  0.51100000000E-03 0. -1.
        -12    1    3    3    0    0 -0.24717223053E+02  0.12732142075E+02 -0.10199319596E+01  0.27822451698E+02  0.00000000000E+00 0.  1.
</event>
<event>
 7    1  0.1284777E-011  0.5930194E+02  0.7816164E-02  0.1266605E+00
        -11   -1    0    0    0    0  0.00000000000E+00  0.00000000000E+00  0.45593999997E+02  0.45594000000E+02  0.51100000000E-03 0. -1.
         11   -1    0    0    0    0 -0.00000000000E+00 -0.00000000000E+00 -0.45593999997E+02  0.45594000000E+02  0.51100000000E-03 0.  1.
    9900012    2    1    2    0    0  0.11527135717E+02 -0.29242858626E+02 -0.53573210896E+01  0.59301944620E+02  0.50000001080E+02 0.  0.
        -12    1    1    2    0    0 -0.11527135717E+02  0.29242858626E+02  0.53573210896E+01  0.31886055380E+02  0.00000000000E+00 0.  1.
         11    1    3    3    0    0  0.10603929685E+02  0.87586670088E+01 -0.10511515927E+02  0.17310388207E+02  0.51100000000E-03 0. -1.
        -11    1    3    3    0    0  0.49789996851E+01 -0.48264330402E+01 -0.30527995885E+01  0.75765743806E+01  0.51100000000E-03 0.  1.
         12    1    3    3    0    0 -0.40557936525E+01 -0.33175092594E+02  0.82069944258E+01  0.34414982033E+02  0.00000000000E+00 0. -1.
</event>
<event>
 7    1  0.1284777E-011  0.5930192E+02  0.7816164E-02  0.1266605E+00
        -11   -1    0    0    0    0  0.00000000000E+00  0.00000000000E+00  0.45593999997E+02  0.45594000000E+02  0.51100000000E-03 0.  1.
         11   -1    0    0    0    0 -0.00000000000E+00 -0.00000000000E+00 -0.45593999997E+02  0.45594000000E+02  0.51100000000E-03 0. -1.
    9900012    2    1    2    0    0 -0.31481116296E+02  0.18263963448E+01 -0.47250175065E+01  0.59301918440E+02  0.49999953333E+02 0.  0.
        -12    1    1    2    0    0  0.31481116296E+02 -0.18263963448E+01  0.47250175065E+01  0.31886081560E+02  0.00000000000E+00 0.  1.
         11    1    3    3    0    0 -0.15676750365E+00 -0.62228686317E+01  0.22511075646E+01  0.66193772808E+01  0.51100000000E-03 0. -1.
        -11    1    3    3    0    0  0.33025468600E+01 -0.10473961437E+02 -0.76884773861E+01  0.13406094462E+02  0.51100000000E-03 0.  1.
         12    1    3    3    0    0 -0.34626895652E+02  0.18523226414E+02  0.71235231501E+00  0.39276446697E+02  0.00000000000E+00 0. -1.
</event>
<event>
 7    1  0.1284777E-011  0.5930194E+02  0.7816164E-02  0.1266605E+00
        -11   -1    0    0    0    0  0.00000000000E+00  0.00000000000E+00  0.45593999997E+02  0.45594000000E+02  0.51100000000E-03 0.  1.
         11   -1    0    0    0    0 -0.00000000000E+00 -0.00000000000E+00 -0.45593999997E+02  0.45594000000E+02  0.51100000000E-03 0. -1.
    9900012    2    1    2    0    0  0.93069853217E+01  0.21000778416E+02 -0.22114882584E+02  0.59301941894E+02  0.49999996108E+02 0.  0.
        -12    1    1    2    0    0 -0.93069853217E+01 -0.21000778416E+02  0.22114882584E+02  0.31886058106E+02  0.00000000000E+00 0.  1.
         11    1    3    3    0    0 -0.13155571780E+02  0.80671008872E+01 -0.86179745909E+01  0.17675312498E+02  0.51100000000E-03 0. -1.
        -11    1    3    3    0    0  0.11438391822E+02 -0.24584874135E+01  0.70718650991E+01  0.13670853816E+02  0.51100000000E-03 0.  1.
         12    1    3    3    0    0  0.11024165281E+02  0.15392164942E+02 -0.20568773092E+02  0.27955775579E+02  0.00000000000E+00 0. -1.
</event>
<event>
 7    1  0.1284777E-011  0.5930195E+02  0.7816164E-02  0.1266605E+00
        -11   -1    0    0    0    0  0.00000000000E+00  0.00000000000E+00  0.45593999997E+02  0.45594000000E+02  0.51100000000E-03 0.  1.
         11   -1    0    0    0    0 -0.00000000000E+00 -0.00000000000E+00 -0.45593999997E+02  0.45594000000E+02  0.51100000000E-03 0. -1.
    9900012    2    1    2    0    0  0.22169746621E+02  0.37073362785E+01 -0.22615887380E+02  0.59301947101E+02  0.50000005604E+02 0.  0.
        -12    1    1    2    0    0 -0.22169746621E+02 -0.37073362785E+01  0.22615887380E+02  0.31886052899E+02  0.00000000000E+00 0.  1.
         11    1    3    3    0    0 -0.29333205500E+01 -0.97989927880E+01 -0.21296832830E+02  0.23625827350E+02  0.51100000000E-03 0. -1.
        -11    1    3    3    0    0  0.63956177830E+01 -0.18866545346E+01  0.73699268347E+01  0.99387732628E+01  0.51100000000E-03 0.  1.
        -12    1    3    3    0    0  0.18707449388E+02  0.15392983601E+02 -0.86889813847E+01  0.25737346488E+02  0.00000000000E+00 0.  1.
</event>
<event>
 7    1  0.1284777E-011  0.5930195E+02  0.7816164E-02  0.1266605E+00
        -11   -1    0    0    0    0  0.00000000000E+00  0.00000000000E+00  0.45593999997E+02  0.45594000000E+02  0.51100000000E-03 0. -1.
         11   -1    0    0    0    0 -0.00000000000E+00 -0.00000000000E+00 -0.45593999997E+02  0.45594000000E+02  0.51100000000E-03 0.  1.
    9900012    2    1    2    0    0  0.29475119454E+02 -0.11578042287E+02  0.37264795240E+01  0.59301946942E+02  0.50000005314E+02 0.  0.
        -12    1    1    2    0    0 -0.29475119454E+02  0.11578042287E+02 -0.37264795240E+01  0.31886053058E+02  0.00000000000E+00 0.  1.
         11    1    3    3    0    0  0.16850893554E+02 -0.56411481370E+01 -0.19976634990E+02  0.26736512705E+02  0.51100000000E-03 0. -1.
        -11    1    3    3    0    0  0.73733312423E+00 -0.62029955843E+01  0.22780703972E+00  0.62508167997E+01  0.51100000000E-03 0.  1.
        -12    1    3    3    0    0  0.11886892775E+02  0.26610143456E+00  0.23475307474E+02  0.26314617437E+02  0.00000000000E+00 0.  1.
</event>
<event>
 7    1  0.1284777E-011  0.5930194E+02  0.7816164E-02  0.1266605E+00
        -11   -1    0    0    0    0  0.00000000000E+00  0.00000000000E+00  0.45593999997E+02  0.45594000000E+02  0.51100000000E-03 0. -1.
         11   -1    0    0    0    0 -0.00000000000E+00 -0.00000000000E+00 -0.45593999997E+02  0.45594000000E+02  0.51100000000E-03 0.  1.
    9900012    2    1    2    0    0 -0.27699037351E+01 -0.25658157122E+02  0.18727186450E+02  0.59301938689E+02  0.49999990263E+02 0.  0.
        -12    1    1    2    0    0  0.27699037351E+01  0.25658157122E+02 -0.18727186450E+02  0.31886061311E+02  0.00000000000E+00 0.  1.
         11    1    3    3    0    0 -0.19282907282E+02 -0.74739852249E+01  0.13716403324E+01  0.20726127614E+02  0.51100000000E-03 0. -1.
        -11    1    3    3    0    0  0.17510172545E+01  0.52580835780E+01  0.71645208756E+01  0.90578067972E+01  0.51100000000E-03 0.  1.
        -12    1    3    3    0    0  0.14761986293E+02 -0.23442255475E+02  0.10191025242E+02  0.29518004278E+02  0.00000000000E+00 0.  1.
</event>
<event>
 7    1  0.1284777E-011  0.5930195E+02  0.7816164E-02  0.1266605E+00
        -11   -1    0    0    0    0  0.00000000000E+00  0.00000000000E+00  0.45593999997E+02  0.45594000000E+02  0.51100000000E-03 0.  1.
         11   -1    0    0    0    0 -0.00000000000E+00 -0.00000000000E+00 -0.45593999997E+02  0.45594000000E+02  0.51100000000E-03 0. -1.
    9900012    2    1    2    0    0 -0.13516134477E+02 -0.12292644916E+01 -0.28853480895E+02  0.59301947529E+02  0.50000006386E+02 0.  0.
        -12    1    1    2    0    0  0.13516134477E+02  0.12292644916E+01  0.28853480895E+02  0.31886052471E+02  0.00000000000E+00 0.  1.
         11    1    3    3    0    0 -0.12069507342E+02 -0.14089993778E+02 -0.79028358212E+01  0.20165707189E+02  0.51100000000E-03 0. -1.
        -11    1    3    3    0    0 -0.18132242130E+01 -0.55069838019E+01  0.47841511940E+01  0.75168314833E+01  0.51100000000E-03 0.  1.
         12    1    3    3    0    0  0.36659707729E+00  0.18367713089E+02 -0.25734796268E+02  0.31619408857E+02  0.00000000000E+00 0. -1.
</event>
<event>
 7    1  0.1284777E-011  0.5930195E+02  0.7816164E-02  0.1266605E+00
        -11   -1    0    0    0    0  0.00000000000E+00  0.00000000000E+00  0.45593999997E+02  0.45594000000E+02  0.51100000000E-03 0. -1.
         11   -1    0    0    0    0 -0.00000000000E+00 -0.00000000000E+00 -0.45593999997E+02  0.45594000000E+02  0.51100000000E-03 0.  1.
    9900012    2    1    2    0    0 -0.10708594464E+02  0.25612647902E+02  0.15685613266E+02  0.59301949892E+02  0.50000010696E+02 0.  0.
        -12    1    1    2    0    0  0.10708594464E+02 -0.25612647902E+02 -0.15685613266E+02  0.31886050108E+02  0.00000000000E+00 0.  1.
         11    1    3    3    0    0 -0.18802232933E+02  0.67741924474E+01  0.35908145850E+01  0.20305358806E+02  0.51100000000E-03 0. -1.
        -11    1    3    3    0    0  0.67613043234E+01  0.26794051436E+02  0.46553696324E+01  0.28023363381E+02  0.51100000000E-03 0.  1.
         12    1    3    3    0    0  0.13323341459E+01 -0.79555959817E+01  0.74394290489E+01  0.10973227705E+02  0.00000000000E+00 0. -1.
</event>
<event>
 7    1  0.1284777E-011  0.5930195E+02  0.7816164E-02  0.1266605E+00
        -11   -1    0    0    0    0  0.00000000000E+00  0.00000000000E+00  0.45593999997E+02  0.45594000000E+02  0.51100000000E-03 0. -1.
         11   -1    0    0    0    0 -0.00000000000E+00 -0.00000000000E+00 -0.45593999997E+02  0.45594000000E+02  0.51100000000E-03 0.  1.
    9900012    2    1    2    0    0 -0.27419657258E+01 -0.11940238890E+01  0.31745491607E+02  0.59301948089E+02  0.50000007407E+02 0.  0.
        -12    1    1    2    0    0  0.27419657258E+01  0.11940238890E+01 -0.31745491607E+02  0.31886051911E+02  0.00000000000E+00 0.  1.
         11    1    3    3    0    0  0.20681616130E+01 -0.23382672360E+02  0.17677769398E+02  0.29385884201E+02  0.51100000000E-03 0. -1.
        -11    1    3    3    0    0  0.42286934860E+01  0.47221313070E+01  0.57660507878E+01  0.85689972942E+01  0.51100000000E-03 0.  1.
        -12    1    3    3    0    0 -0.90388208249E+01  0.17466517164E+02  0.83016714217E+01  0.21347066593E+02  0.00000000000E+00 0.  1.
</event>
<event>
 7    1  0.1284777E-011  0.5930193E+02  0.7816164E-02  0.1266605E+00
        -11   -1    0    0    0    0  0.00000000000E+00  0.00000000000E+00  0.45593999997E+02  0.45594000000E+02  0.51100000000E-03 0. -1.
         11   -1    0    0    0    0 -0.00000000000E+00 -0.00000000000E+00 -0.45593999997E+02  0.45594000000E+02  0.51100000000E-03 0.  1.
    9900012    2    1    2    0    0 -0.82629594462E+00 -0.23150981106E+02 -0.21910515372E+02  0.59301931334E+02  0.49999976849E+02 0.  0.
        -12    1    1    2    0    0  0.82629594462E+00  0.23150981106E+02  0.21910515372E+02  0.31886068666E+02  0.00000000000E+00 0.  1.
         11    1    3    3    0    0 -0.14174223384E+01 -0.11145259629E+02 -0.13185295218E+01  0.11312135901E+02  0.51100000000E-03 0. -1.
        -11    1    3    3    0    0 -0.14497061044E+02 -0.20149687323E+02 -0.17970073630E+02  0.30644709571E+02  0.51100000000E-03 0.  1.
        -12    1    3    3    0    0  0.15088187438E+02  0.81439658464E+01 -0.26219122193E+01  0.17345085862E+02  0.00000000000E+00 0.  1.
</event>
<event>
 7    1  0.1284777E-011  0.5930194E+02  0.7816164E-02  0.1266605E+00
        -11   -1    0    0    0    0  0.00000000000E+00  0.00000000000E+00  0.45593999997E+02  0.45594000000E+02  0.51100000000E-03 0. -1.
         11   -1    0    0    0    0 -0.00000000000E+00 -0.00000000000E+00 -0.45593999997E+02  0.45594000000E+02  0.51100000000E-03 0.  1.
    9900012    2    1    2    0    0  0.23869302470E+02  0.21106551062E+02 -0.12210787442E+01  0.59301935153E+02  0.49999983814E+02 0.  0.
        -12    1    1    2    0    0 -0.23869302470E+02 -0.21106551062E+02  0.12210787442E+01  0.31886064847E+02  0.00000000000E+00 0.  1.
         11    1    3    3    0    0  0.16208540481E+02  0.10214776837E+02  0.78214088201E+01  0.20693788598E+02  0.51100000000E-03 0. -1.
        -11    1    3    3    0    0  0.11574592205E+02  0.76896882091E+01  0.11134752288E+02  0.17806886259E+02  0.51100000000E-03 0.  1.
        -12    1    3    3    0    0 -0.39138302160E+01  0.32020860165E+01 -0.20177239853E+02  0.20801260296E+02  0.00000000000E+00 0.  1.
</event>
<event>
 7    1  0.1284777E-011  0.5930194E+02  0.7816164E-02  0.1266605E+00
        -11   -1    0    0    0    0  0.00000000000E+00  0.00000000000E+00  0.45593999997E+02  0.45594000000E+02  0.51100000000E-03 0.  1.
         11   -1    0    0    0    0 -0.00000000000E+00 -0.00000000000E+00 -0.45593999997E+02  0.45594000000E+02  0.51100000000E-03 0. -1.
    9900012    2    1    2    0    0  0.13475115684E+02 -0.22084429989E+01 -0.28814316622E+02  0.59301940263E+02  0.49999993134E+02 0.  0.
        -12    1    1    2    0    0 -0.13475115684E+02  0.22084429989E+01  0.28814316622E+02  0.31886059737E+02  0.00000000000E+00 0.  1.
         11    1    3    3    0    0 -0.85598450825E+01 -0.99441456487E+01 -0.22161818152E+02  0.25754672675E+02  0.51100000000E-03 0. -1.
        -11    1    3    3    0    0  0.10682508524E+02 -0.31805780888E+01 -0.12499788977E+02  0.16747441299E+02  0.51100000000E-03 0.  1.
        -12    1    3    3    0    0  0.11352452242E+02  0.10916280739E+02  0.58472905064E+01  0.16799826289E+02  0.00000000000E+00 0.  1.
</event>
<event>
 7    1  0.1284777E-011  0.5930197E+02  0.7816164E-02  0.1266605E+00
        -11   -1    0    0    0    0  0.00000000000E+00  0.00000000000E+00  0.45593999997E+02  0.45594000000E+02  0.51100000000E-03 0.  1.
         11   -1    0    0    0    0 -0.00000000000E+00 -0.00000000000E+00 -0.45593999997E+02  0.45594000000E+02  0.51100000000E-03 0. -1.
    9900012    2    1    2    0    0 -0.95690249389E+00  0.28974075694E+02  0.13278027471E+02  0.59301972681E+02  0.50000052257E+02 0.  0.
        -12    1    1    2    0    0  0.95690249389E+00 -0.28974075694E+02 -0.13278027471E+02  0.31886027319E+02  0.00000000000E+00 0.  1.
         11    1    3    3    0    0  0.30682668280E+01  0.70237164309E+01  0.46372125886E+00  0.76786646949E+01  0.51100000000E-03 0. -1.
        -11    1    3    3    0    0  0.18541490500E+02  0.20113188355E+02  0.64793574550E+01  0.28112440112E+02  0.51100000000E-03 0.  1.
        -12    1    3    3    0    0 -0.22566659822E+02  0.18371709078E+01  0.63349487568E+01  0.23510867874E+02  0.00000000000E+00 0.  1.
</event>
<event>
 7    1  0.1284777E-011  0.5930194E+02  0.7816164E-02  0.1266605E+00
        -11   -1    0    0    0    0  0.00000000000E+00  0.00000000000E+00  0.45593999997E+02  0.45594000000E+02  0.51100000000E-03 0.  1.
         11   -1    0    0    0    0 -0.00000000000E+00 -0.00000000000E+00 -0.45593999997E+02  0.45594000000E+02  0.51100000000E-03 0. -1.
    9900012    2    1    2    0    0  0.10226612651E+01 -0.30904796383E+02 -0.77825861444E+01  0.59301938427E+02  0.49999989786E+02 0.  0.
        -12    1    1    2    0    0 -0.10226612651E+01  0.30904796383E+02  0.77825861444E+01  0.31886061573E+02  0.00000000000E+00 0.  1.
         11    1    3    3    0    0  0.59545368194E+01  0.67923384596E+01 -0.33984278518E+01  0.96509938664E+01  0.51100000000E-03 0. -1.
        -11    1    3    3    0    0 -0.10610153663E+02 -0.51042651250E+01  0.80987413246E+01  0.14290503648E+02  0.51100000000E-03 0.  1.
         12    1    3    3    0    0  0.56782781083E+01 -0.32592869717E+02 -0.12482899617E+02  0.35360440913E+02  0.00000000000E+00 0. -1.
</event>
<event>
 7    1  0.1284777E-011  0.5930191E+02  0.7816164E-02  0.1266605E+00
        -11   -1    0    0    0    0  0.00000000000E+00  0.00000000000E+00  0.45593999997E+02  0.45594000000E+02  0.51100000000E-03 0. -1.
         11   -1    0    0    0    0 -0.00000000000E+00 -0.00000000000E+00 -0.45593999997E+02  0.45594000000E+02  0.51100000000E-03 0.  1.
    9900012    2    1    2    0    0 -0.28639412334E+02  0.99833338068E+00  0.13982495298E+02  0.59301909253E+02  0.49999936579E+02 0.  0.
        -12    1    1    2    0    0  0.28639412334E+02 -0.99833338068E+00 -0.13982495298E+02  0.31886090747E+02  0.00000000000E+00 0.  1.
         11    1    3    3    0    0 -0.20880204345E+02 -0.23636909689E+01  0.13918467281E+02  0.25205033231E+02  0.51100000000E-03 0. -1.
        -11    1    3    3    0    0 -0.17731349058E+02  0.29735438691E+01  0.95242535343E+01  0.20345862189E+02  0.51100000000E-03 0.  1.
        -12    1    3    3    0    0  0.99721410682E+01  0.38848048049E+00 -0.94602255181E+01  0.13751013833E+02  0.00000000000E+00 0.  1.
</event>
<event>
 7    1  0.1284777E-011  0.5930194E+02  0.7816164E-02  0.1266605E+00
        -11   -1    0    0    0    0  0.00000000000E+00  0.00000000000E+00  0.45593999997E+02  0.45594000000E+02  0.51100000000E-03 0. -1.
         11   -1    0    0    0    0 -0.00000000000E+00 -0.00000000000E+00 -0.45593999997E+02  0.45594000000E+02  0.51100000000E-03 0.  1.
    9900012    2    1    2    0    0  0.26009312040E+02 -0.16442553194E+02 -0.83593545438E+01  0.59301942283E+02  0.49999996818E+02 0.  0.
        -12    1    1    2    0    0 -0.26009312040E+02  0.16442553194E+02  0.83593545438E+01  0.31886057717E+02  0.00000000000E+00 0.  1.
         11    1    3    3    0    0  0.29645839143E+02 -0.68960676133E+01 -0.21808560963E+02  0.37443889469E+02  0.51100000000E-03 0. -1.
        -11    1    3    3    0    0 -0.37828890159E+00 -0.39678581011E+01 -0.24622589165E+01  0.46850527890E+01  0.51100000000E-03 0.  1.
         12    1    3    3    0    0 -0.32582382009E+01 -0.55786274793E+01  0.15911465336E+02  0.17173000025E+02  0.00000000000E+00 0. -1.
</event>
<event>
 7    1  0.1284777E-011  0.5930194E+02  0.7816164E-02  0.1266605E+00
        -11   -1    0    0    0    0  0.00000000000E+00  0.00000000000E+00  0.45593999997E+02  0.45594000000E+02  0.51100000000E-03 0.  1.
         11   -1    0    0    0    0 -0.00000000000E+00 -0.00000000000E+00 -0.45593999997E+02  0.45594000000E+02  0.51100000000E-03 0. -1.
    9900012    2    1    2    0    0 -0.41996504029E+01  0.26728927006E+02 -0.16871512704E+02  0.59301944375E+02  0.50000000633E+02 0.  0.
        -12    1    1    2    0    0  0.41996504029E+01 -0.26728927006E+02  0.16871512704E+02  0.31886055625E+02  0.00000000000E+00 0.  1.
         11    1    3    3    0    0 -0.59414745639E+01  0.22178612068E+02 -0.30308092414E+02  0.38023314154E+02  0.51100000000E-03 0. -1.
        -11    1    3    3    0    0 -0.12242607953E+01  0.30912256594E+01 -0.30210307458E+01  0.44923398803E+01  0.51100000000E-03 0.  1.
        -12    1    3    3    0    0  0.29660849564E+01  0.14590892792E+01  0.16457610455E+02  0.16786290340E+02  0.00000000000E+00 0.  1.
</event>
<event>
 7    1  0.1284777E-011  0.5930213E+02  0.7816164E-02  0.1266604E+00
        -11   -1    0    0    0    0  0.00000000000E+00  0.00000000000E+00  0.45593999997E+02  0.45594000000E+02  0.51100000000E-03 0. -1.
         11   -1    0    0    0    0 -0.00000000000E+00 -0.00000000000E+00 -0.45593999997E+02  0.45594000000E+02  0.51100000000E-03 0.  1.
    9900012    2    1    2    0    0 -0.29645309524E+01  0.31598160676E+02  0.30783865786E+01  0.59302130625E+02  0.50000340307E+02 0.  0.
        -12    1    1    2    0    0  0.29645309524E+01 -0.31598160676E+02 -0.30783865786E+01  0.31885869375E+02  0.00000000000E+00 0.  1.
         11    1    3    3    0    0  0.49356385135E+01 -0.70375754162E+01 -0.69574362847E+00  0.86239233956E+01  0.51100000000E-03 0. -1.
        -11    1    3    3    0    0  0.61197060085E+01  0.83911336366E+01  0.12468211830E+02  0.16227083281E+02  0.51100000000E-03 0.  1.
        -12    1    3    3    0    0 -0.14019875474E+02  0.30244602456E+02 -0.86940816224E+01  0.34451123948E+02  0.00000000000E+00 0.  1.
</event>
<event>
 7    1  0.1284777E-011  0.5930196E+02  0.7816164E-02  0.1266605E+00
        -11   -1    0    0    0    0  0.00000000000E+00  0.00000000000E+00  0.45593999997E+02  0.45594000000E+02  0.51100000000E-03 0. -1.
         11   -1    0    0    0    0 -0.00000000000E+00 -0.00000000000E+00 -0.45593999997E+02  0.45594000000E+02  0.51100000000E-03 0.  1.
    9900012    2    1    2    0    0 -0.88104344077E+01 -0.25083370501E+02  0.17604558774E+02  0.59301957289E+02  0.50000024185E+02 0.  0.
        -12    1    1    2    0    0  0.88104344077E+01  0.25083370501E+02 -0.17604558774E+02  0.31886042711E+02  0.00000000000E+00 0.  1.
         11    1    3    3    0    0 -0.14444077251E+01  0.80709975875E+01  0.17318630971E+02  0.19161479449E+02  0.51100000000E-03 0. -1.
        -11    1    3    3    0    0 -0.13983455750E+02 -0.18862585593E+02  0.43385628921E+01  0.23877966793E+02  0.51100000000E-03 0.  1.
        -12    1    3    3    0    0  0.66174290676E+01 -0.14291782496E+02 -0.40526350883E+01  0.16262511046E+02  0.00000000000E+00 0.  1.
</event>
<event>
 7    1  0.1284777E-011  0.5930196E+02  0.7816164E-02  0.1266605E+00
        -11   -1    0    0    0    0  0.00000000000E+00  0.00000000000E+00  0.45593999997E+02  0.45594000000E+02  0.51100000000E-03 0.  1.
         11   -1    0    0    0    0 -0.00000000000E+00 -0.00000000000E+00 -0.45593999997E+02  0.45594000000E+02  0.51100000000E-03 0. -1.
    9900012    2    1    2    0    0  0.14680973370E+01 -0.18370622314E+02 -0.26020847619E+02  0.59301959405E+02  0.50000028045E+02 0.  0.
        -12    1    1    2    0    0 -0.14680973370E+01  0.18370622314E+02  0.26020847619E+02  0.31886040595E+02  0.00000000000E+00 0.  1.
         11    1    3    3    0    0 -0.84083540506E+01 -0.14204117865E+02 -0.29424641110E+01  0.16766498665E+02  0.51100000000E-03 0. -1.
        -11    1    3    3    0    0  0.18038518045E+02  0.28853919642E+01 -0.13994968529E+01  0.18321359441E+02  0.51100000000E-03 0.  1.
         12    1    3    3    0    0 -0.81620666576E+01 -0.70518964129E+01 -0.21678886655E+02  0.24214101300E+02  0.00000000000E+00 0. -1.
</event>
<event>
 7    1  0.1284777E-011  0.5930194E+02  0.7816164E-02  0.1266605E+00
        -11   -1    0    0    0    0  0.00000000000E+00  0.00000000000E+00  0.45593999997E+02  0.45594000000E+02  0.51100000000E-03 0.  1.
         11   -1    0    0    0    0 -0.00000000000E+00 -0.00000000000E+00 -0.45593999997E+02  0.45594000000E+02  0.51100000000E-03 0. -1.
    9900012    2    1    2    0    0  0.88842190253E+01  0.27864026769E+02 -0.12703845124E+02  0.59301936956E+02  0.49999987104E+02 0.  0.
        -12    1    1    2    0    0 -0.88842190253E+01 -0.27864026769E+02  0.12703845124E+02  0.31886063044E+02  0.00000000000E+00 0.  1.
         11    1    3    3    0    0 -0.93193484446E+00  0.89581407227E+01 -0.68324830064E+00  0.90323649319E+01  0.51100000000E-03 0. -1.
        -11    1    3    3    0    0  0.21968376207E+02  0.20074090088E+02  0.41087209545E+01  0.30040975919E+02  0.51100000000E-03 0.  1.
        -12    1    3    3    0    0 -0.12152222337E+02 -0.11682040415E+01 -0.16129317778E+02  0.20228596106E+02  0.00000000000E+00 0.  1.
</event>
<event>
 7    1  0.1284777E-011  0.5930194E+02  0.7816164E-02  0.1266605E+00
        -11   -1    0    0    0    0  0.00000000000E+00  0.00000000000E+00  0.45593999997E+02  0.45594000000E+02  0.51100000000E-03 0.  1.
         11   -1    0    0    0    0 -0.00000000000E+00 -0.00000000000E+00 -0.45593999997E+02  0.45594000000E+02  0.51100000000E-03 0. -1.
    9900012    2    1    2    0    0 -0.20782063374E+02  0.22589772918E+02  0.86329960946E+01  0.59301943170E+02  0.49999998436E+02 0.  0.
        -12    1    1    2    0    0  0.20782063374E+02 -0.22589772918E+02 -0.86329960946E+01  0.31886056830E+02  0.00000000000E+00 0.  1.
         11    1    3    3    0    0  0.81631661359E+01 -0.55201322371E+01 -0.49030243735E+01  0.11006761083E+02  0.51100000000E-03 0. -1.
        -11    1    3    3    0    0  0.78391397436E+00 -0.26019012900E+01 -0.13488259696E+01  0.30337671630E+01  0.51100000000E-03 0.  1.
        -12    1    3    3    0    0 -0.29729143484E+02  0.30711806445E+02  0.14884846438E+02  0.45261414924E+02  0.00000000000E+00 0.  1.
</event>
<event>
 7    1  0.1284777E-011  0.5930189E+02  0.7816164E-02  0.1266605E+00
        -11   -1    0    0    0    0  0.00000000000E+00  0.00000000000E+00  0.45593999997E+02  0.45594000000E+02  0.51100000000E-03 0. -1.
         11   -1    0    0    0    0 -0.00000000000E+00 -0.00000000000E+00 -0.45593999997E+02  0.45594000000E+02  0.51100000000E-03 0.  1.
    9900012    2    1    2    0    0 -0.27495152408E+02 -0.15662204739E+02  0.39288794115E+01  0.59301887715E+02  0.49999897299E+02 0.  0.
        -12    1    1    2    0    0  0.27495152408E+02  0.15662204739E+02 -0.39288794115E+01  0.31886112285E+02  0.00000000000E+00 0.  1.
         11    1    3    3    0    0 -0.86591806032E+01  0.82586173738E+01 -0.77252269620E+00  0.11990953308E+02  0.51100000000E-03 0. -1.
        -11    1    3    3    0    0  0.91752053341E+01 -0.91308730736E+00  0.60649956139E+01  0.11036407632E+02  0.51100000000E-03 0.  1.
        -12    1    3    3    0    0 -0.28011177138E+02 -0.23007734806E+02 -0.13635935063E+01  0.36274526776E+02  0.00000000000E+00 0.  1.
</event>
<event>
 7    1  0.1284777E-011  0.5930186E+02  0.7816164E-02  0.1266605E+00
        -11   -1    0    0    0    0  0.00000000000E+00  0.00000000000E+00  0.45593999997E+02  0.45594000000E+02  0.51100000000E-03 0.  1.
         11   -1    0    0    0    0 -0.00000000000E+00 -0.00000000000E+00 -0.45593999997E+02  0.45594000000E+02  0.51100000000E-03 0. -1.
    9900012    2    1    2    0    0  0.38476921335E+01  0.93351502144E+00 -0.31639366099E+02  0.59301863950E+02  0.49999853958E+02 0.  0.
        -12    1    1    2    0    0 -0.38476921335E+01 -0.93351502144E+00  0.31639366099E+02  0.31886136050E+02  0.00000000000E+00 0.  1.
         11    1    3    3    0    0 -0.72756125964E+01 -0.12653610819E+02 -0.18889108003E+02  0.23871464279E+02  0.51100000000E-03 0. -1.
        -11    1    3    3    0    0 -0.16298130343E+01  0.19323341436E+01  0.80229908824E+01  0.84118124521E+01  0.51100000000E-03 0.  1.
         12    1    3    3    0    0  0.12753117764E+02  0.11654791697E+02 -0.20773248978E+02  0.27018587219E+02  0.00000000000E+00 0. -1.
</event>
<event>
 7    1  0.1284777E-011  0.5930182E+02  0.7816164E-02  0.1266605E+00
        -11   -1    0    0    0    0  0.00000000000E+00  0.00000000000E+00  0.45593999997E+02  0.45594000000E+02  0.51100000000E-03 0.  1.
         11   -1    0    0    0    0 -0.00000000000E+00 -0.00000000000E+00 -0.45593999997E+02  0.45594000000E+02  0.51100000000E-03 0. -1.
    9900012    2    1    2    0    0 -0.22783434056E+02  0.22287430914E+02 -0.95604434280E+00  0.59301820158E+02  0.49999774090E+02 0.  0.
        -12    1    1    2    0    0  0.22783434056E+02 -0.22287430914E+02  0.95604434280E+00  0.31886179842E+02  0.00000000000E+00 0.  1.
         11    1    3    3    0    0 -0.44842077865E+01  0.26580687411E+02 -0.29126315364E+01  0.27113179184E+02  0.51100000000E-03 0. -1.
        -11    1    3    3    0    0  0.61395062875E+01 -0.19822415944E+00 -0.31274465724E+01  0.68930220220E+01  0.51100000000E-03 0.  1.
        -12    1    3    3    0    0 -0.24438732557E+02 -0.40950323373E+01  0.50840337660E+01  0.25295618952E+02  0.00000000000E+00 0.  1.
</event>
<event>
 7    1  0.1284777E-011  0.5930194E+02  0.7816164E-02  0.1266605E+00
        -11   -1    0    0    0    0  0.00000000000E+00  0.00000000000E+00  0.45593999997E+02  0.45594000000E+02  0.51100000000E-03 0. -1.
         11   -1    0    0    0    0 -0.00000000000E+00 -0.00000000000E+00 -0.45593999997E+02  0.45594000000E+02  0.51100000000E-03 0.  1.
    9900012    2    1    2    0    0  0.24870754400E+02 -0.13225009931E+02  0.14942068730E+02  0.59301941447E+02  0.49999995294E+02 0.  0.
        -12    1    1    2    0    0 -0.24870754400E+02  0.13225009931E+02 -0.14942068730E+02  0.31886058553E+02  0.00000000000E+00 0.  1.
         11    1    3    3    0    0  0.12590203556E+02 -0.20229827611E+02  0.60423461419E+01  0.24581885564E+02  0.51100000000E-03 0. -1.
        -11    1    3    3    0    0 -0.86776087725E+01 -0.97842373105E+00 -0.31222135632E+01  0.92739648911E+01  0.51100000000E-03 0.  1.
        -12    1    3    3    0    0  0.20958159616E+02  0.79832414110E+01  0.12021936152E+02  0.25446090992E+02  0.00000000000E+00 0.  1.
</event>
<event>
 7    1  0.1284777E-011  0.5930195E+02  0.7816164E-02  0.1266605E+00
        -11   -1    0    0    0    0  0.00000000000E+00  0.00000000000E+00  0.45593999997E+02  0.45594000000E+02  0.51100000000E-03 0.  1.
         11   -1    0    0    0    0 -0.00000000000E+00 -0.00000000000E+00 -0.45593999997E+02  0.45594000000E+02  0.51100000000E-03 0. -1.
    9900012    2    1    2    0    0  0.19259662910E+02  0.24027492508E+02 -0.82743552387E+01  0.59301953424E+02  0.50000017137E+02 0.  0.
        -12    1    1    2    0    0 -0.19259662910E+02 -0.24027492508E+02  0.82743552387E+01  0.31886046576E+02  0.00000000000E+00 0.  1.
         11    1    3    3    0    0  0.65165348896E+01  0.18050478018E+02 -0.16841716695E+02  0.25532888696E+02  0.51100000000E-03 0. -1.
        -11    1    3    3    0    0  0.53333022274E+01  0.45547428832E+01 -0.10860072266E+02  0.12927914188E+02  0.51100000000E-03 0.  1.
        -12    1    3    3    0    0  0.74098257926E+01  0.14222716072E+01  0.19427433722E+02  0.20841150540E+02  0.00000000000E+00 0.  1.
</event>
<event>
 7    1  0.1284777E-011  0.5930167E+02  0.7816164E-02  0.1266606E+00
        -11   -1    0    0    0    0  0.00000000000E+00  0.00000000000E+00  0.45593999997E+02  0.45594000000E+02  0.51100000000E-03 0. -1.
         11   -1    0    0    0    0 -0.00000000000E+00 -0.00000000000E+00 -0.45593999997E+02  0.45594000000E+02  0.51100000000E-03 0.  1.
    9900012    2    1    2    0    0  0.13103412428E+02 -0.18058426134E+02  0.22780081894E+02  0.59301665893E+02  0.49999492746E+02 0.  0.
        -12    1    1    2    0    0 -0.13103412428E+02  0.18058426134E+02 -0.22780081894E+02  0.31886334107E+02  0.00000000000E+00 0.  1.
         11    1    3    3    0    0  0.91521004244E+01 -0.23178207338E+02  0.20730233663E+02  0.32415009264E+02  0.51100000000E-03 0. -1.
        -11    1    3    3    0    0  0.56927715337E+01 -0.89543321683E+01 -0.41705934710E+01  0.11400945683E+02  0.51100000000E-03 0.  1.
        -12    1    3    3    0    0 -0.17414595304E+01  0.14074113373E+02  0.62204417018E+01  0.15485710945E+02  0.00000000000E+00 0.  1.
</event>
<event>
 7    1  0.1284777E-011  0.5930195E+02  0.7816164E-02  0.1266605E+00
        -11   -1    0    0    0    0  0.00000000000E+00  0.00000000000E+00  0.45593999997E+02  0.45594000000E+02  0.51100000000E-03 0.  1.
         11   -1    0    0    0    0 -0.00000000000E+00 -0.00000000000E+00 -0.45593999997E+02  0.45594000000E+02  0.51100000000E-03 0. -1.
    9900012    2    1    2    0    0 -0.67038401674E+01  0.19457702785E+01 -0.31112584316E+02  0.59301946657E+02  0.50000004796E+02 0.  0.
        -12    1    1    2    0    0  0.67038401674E+01 -0.19457702785E+01  0.31112584316E+02  0.31886053343E+02  0.00000000000E+00 0.  1.
         11    1    3    3    0    0  0.32806786158E+01  0.16881556035E+02 -0.15728502588E+02  0.23305269368E+02  0.51100000000E-03 0. -1.
        -11    1    3    3    0    0 -0.12793471665E+02 -0.35152667130E+00  0.21930142795E+01  0.12984829615E+02  0.51100000000E-03 0.  1.
         12    1    3    3    0    0  0.28089528818E+01 -0.14584259086E+02 -0.17577096007E+02  0.23011847675E+02  0.00000000000E+00 0. -1.
</event>
<event>
 7    1  0.1284777E-011  0.5930195E+02  0.7816164E-02  0.1266605E+00
        -11   -1    0    0    0    0  0.00000000000E+00  0.00000000000E+00  0.45593999997E+02  0.45594000000E+02  0.51100000000E-03 0.  1.
         11   -1    0    0    0    0 -0.00000000000E+00 -0.00000000000E+00 -0.45593999997E+02  0.45594000000E+02  0.51100000000E-03 0. -1.
    9900012    2    1    2    0    0 -0.10185951138E+02  0.26969352469E+02  0.13624268642E+02  0.59301948673E+02  0.50000008472E+02 0.  0.
        -12    1    1    2    0    0  0.10185951138E+02 -0.26969352469E+02 -0.13624268642E+02  0.31886051327E+02  0.00000000000E+00 0.  1.
         11    1    3    3    0    0 -0.14805975339E+02  0.13496573294E+02  0.40807672090E+01  0.20445710007E+02  0.51100000000E-03 0. -1.
        -11    1    3    3    0    0 -0.12647195076E+01  0.20628174459E+02  0.17160394194E+02  0.26862617632E+02  0.51100000000E-03 0.  1.
         12    1    3    3    0    0  0.58847437087E+01 -0.71553952835E+01 -0.76168927605E+01  0.11993621034E+02  0.00000000000E+00 0. -1.
</event>
<event>
 7    1  0.1284777E-011  0.5930193E+02  0.7816164E-02  0.1266605E+00
        -11   -1    0    0    0    0  0.00000000000E+00  0.00000000000E+00  0.45593999997E+02  0.45594000000E+02  0.51100000000E-03 0. -1.
         11   -1    0    0    0    0 -0.00000000000E+00 -0.00000000000E+00 -0.45593999997E+02  0.45594000000E+02  0.51100000000E-03 0.  1.
    9900012    2    1    2    0    0 -0.31108513077E+02 -0.64307411105E+01 -0.27617268997E+01  0.59301934821E+02  0.49999983210E+02 0.  0.
        -12    1    1    2    0    0  0.31108513077E+02  0.64307411105E+01  0.27617268997E+01  0.31886065179E+02  0.00000000000E+00 0.  1.
         11    1    3    3    0    0 -0.16904033830E+02  0.14789081131E+02 -0.96722982583E+01  0.24454378632E+02  0.51100000000E-03 0.  1.
        -11    1    3    3    0    0 -0.72486549514E+01 -0.35749133611E+01  0.12667837396E+02  0.15026546799E+02  0.51100000000E-03 0. -1.
        -12    1    3    3    0    0 -0.69558242962E+01 -0.17644908880E+02 -0.57572660376E+01  0.19821009391E+02  0.00000000000E+00 0.  1.
</event>
<event>
 7    1  0.1284777E-011  0.5930194E+02  0.7816164E-02  0.1266605E+00
        -11   -1    0    0    0    0  0.00000000000E+00  0.00000000000E+00  0.45593999997E+02  0.45594000000E+02  0.51100000000E-03 0.  1.
         11   -1    0    0    0    0 -0.00000000000E+00 -0.00000000000E+00 -0.45593999997E+02  0.45594000000E+02  0.51100000000E-03 0. -1.
    9900012    2    1    2    0    0  0.42252395383E+01  0.26115406595E+02 -0.17800390374E+02  0.59301937085E+02  0.49999987337E+02 0.  0.
        -12    1    1    2    0    0 -0.42252395383E+01 -0.26115406595E+02  0.17800390374E+02  0.31886062915E+02  0.00000000000E+00 0.  1.
         11    1    3    3    0    0  0.25737688675E+02  0.20151701117E+02 -0.11703703295E+02  0.34720258456E+02  0.51100000000E-03 0. -1.
        -11    1    3    3    0    0 -0.82393510510E+01  0.11055034007E-02  0.11618474740E+01  0.83208651460E+01  0.51100000000E-03 0.  1.
        -12    1    3    3    0    0 -0.13273098085E+02  0.59625999751E+01 -0.72585345528E+01  0.16260813482E+02  0.00000000000E+00 0.  1.
</event>
<event>
 7    1  0.1284777E-011  0.5930194E+02  0.7816164E-02  0.1266605E+00
        -11   -1    0    0    0    0  0.00000000000E+00  0.00000000000E+00  0.45593999997E+02  0.45594000000E+02  0.51100000000E-03 0.  1.
         11   -1    0    0    0    0 -0.00000000000E+00 -0.00000000000E+00 -0.45593999997E+02  0.45594000000E+02  0.51100000000E-03 0. -1.
    9900012    2    1    2    0    0  0.18816450196E+02 -0.21982503761E+02 -0.13395204431E+02  0.59301940799E+02  0.49999994112E+02 0.  0.
        -12    1    1    2    0    0 -0.18816450196E+02  0.21982503761E+02  0.13395204431E+02  0.31886059201E+02  0.00000000000E+00 0.  1.
         11    1    3    3    0    0 -0.29864228087E+01 -0.66843186859E+01  0.59661334031E+00  0.73453921084E+01  0.51100000000E-03 0. -1.
        -11    1    3    3    0    0  0.77885517650E+01  0.12245779589E+02 -0.15217030692E+02  0.21028045075E+02  0.51100000000E-03 0.  1.
         12    1    3    3    0    0  0.14014321240E+02 -0.27543964664E+02  0.12252129197E+01  0.30928503616E+02  0.00000000000E+00 0. -1.
</event>
<event>
 7    1  0.1284777E-011  0.5930196E+02  0.7816164E-02  0.1266605E+00
        -11   -1    0    0    0    0  0.00000000000E+00  0.00000000000E+00  0.45593999997E+02  0.45594000000E+02  0.51100000000E-03 0.  1.
         11   -1    0    0    0    0 -0.00000000000E+00 -0.00000000000E+00 -0.45593999997E+02  0.45594000000E+02  0.51100000000E-03 0. -1.
    9900012    2    1    2    0    0 -0.78993550285E+01  0.18050597924E+02 -0.25069815426E+02  0.59301960095E+02  0.50000029304E+02 0.  0.
        -12    1    1    2    0    0  0.78993550285E+01 -0.18050597924E+02  0.25069815426E+02  0.31886039905E+02  0.00000000000E+00 0.  1.
         11    1    3    3    0    0  0.62827283541E+01  0.16650071883E+02 -0.25823431497E+02  0.31361555826E+02  0.51100000000E-03 0. -1.
        -11    1    3    3    0    0 -0.10953539496E+02  0.11583308756E+02 -0.37015286507E+01  0.16366257478E+02  0.51100000000E-03 0.  1.
        -12    1    3    3    0    0 -0.32285438871E+01 -0.10182782715E+02  0.44551447216E+01  0.11574146791E+02  0.00000000000E+00 0.  1.
</event>
<event>
 7    1  0.1284777E-011  0.5930193E+02  0.7816164E-02  0.1266605E+00
        -11   -1    0    0    0    0  0.00000000000E+00  0.00000000000E+00  0.45593999997E+02  0.45594000000E+02  0.51100000000E-03 0. -1.
         11   -1    0    0    0    0 -0.00000000000E+00 -0.00000000000E+00 -0.45593999997E+02  0.45594000000E+02  0.51100000000E-03 0.  1.
    9900012    2    1    2    0    0 -0.25791484333E+02 -0.27107945318E-01 -0.18748868100E+02  0.59301930096E+02  0.49999974591E+02 0.  0.
        -12    1    1    2    0    0  0.25791484333E+02  0.27107945318E-01  0.18748868100E+02  0.31886069904E+02  0.00000000000E+00 0.  1.
         11    1    3    3    0    0  0.75020758505E+01 -0.40426987000E+01  0.10002891720E+02  0.13140867470E+02  0.51100000000E-03 0. -1.
        -11    1    3    3    0    0 -0.95030331465E+01 -0.45112293438E+01 -0.57503605217E+01  0.11988556025E+02  0.51100000000E-03 0.  1.
        -12    1    3    3    0    0 -0.23790527037E+02  0.85268200985E+01 -0.23001399298E+02  0.34172506600E+02  0.00000000000E+00 0.  1.
</event>
<event>
 7    1  0.1284777E-011  0.5930194E+02  0.7816164E-02  0.1266605E+00
        -11   -1    0    0    0    0  0.00000000000E+00  0.00000000000E+00  0.45593999997E+02  0.45594000000E+02  0.51100000000E-03 0.  1.
         11   -1    0    0    0    0 -0.00000000000E+00 -0.00000000000E+00 -0.45593999997E+02  0.45594000000E+02  0.51100000000E-03 0. -1.
    9900012    2    1    2    0    0  0.25558609748E+02  0.19057208672E+02  0.54864923125E+00  0.59301941125E+02  0.49999994706E+02 0.  0.
        -12    1    1    2    0    0 -0.25558609748E+02 -0.19057208672E+02 -0.54864923125E+00  0.31886058875E+02  0.00000000000E+00 0.  1.
         11    1    3    3    0    0  0.14222362727E+02  0.17903632193E+02  0.40250714576E+01  0.23216736371E+02  0.51100000000E-03 0. -1.
        -11    1    3    3    0    0  0.13464069717E+02 -0.29463186389E+01  0.13016517909E+02  0.18957629219E+02  0.51100000000E-03 0.  1.
         12    1    3    3    0    0 -0.21278226958E+01  0.40998951176E+01 -0.16492940135E+02  0.17127575535E+02  0.00000000000E+00 0. -1.
</event>
<event>
 7    1  0.1284777E-011  0.5930198E+02  0.7816164E-02  0.1266605E+00
        -11   -1    0    0    0    0  0.00000000000E+00  0.00000000000E+00  0.45593999997E+02  0.45594000000E+02  0.51100000000E-03 0.  1.
         11   -1    0    0    0    0 -0.00000000000E+00 -0.00000000000E+00 -0.45593999997E+02  0.45594000000E+02  0.51100000000E-03 0. -1.
    9900012    2    1    2    0    0 -0.71556072092E+01  0.28584352045E+02 -0.12184016136E+02  0.59301981974E+02  0.50000069204E+02 0.  0.
        -12    1    1    2    0    0  0.71556072092E+01 -0.28584352045E+02  0.12184016136E+02  0.31886018026E+02  0.00000000000E+00 0.  1.
         11    1    3    3    0    0 -0.35619474190E+01 -0.69201551772E+01  0.29698666311E+01  0.83304336718E+01  0.51100000000E-03 0. -1.
        -11    1    3    3    0    0 -0.95367397809E+01  0.77356656942E+01  0.77221603717E+01  0.14505919152E+02  0.51100000000E-03 0.  1.
        -12    1    3    3    0    0  0.59430799908E+01  0.27768841528E+02 -0.22876043139E+02  0.36465629150E+02  0.00000000000E+00 0.  1.
</event>
<event>
 7    1  0.1284777E-011  0.5930203E+02  0.7816164E-02  0.1266604E+00
        -11   -1    0    0    0    0  0.00000000000E+00  0.00000000000E+00  0.45593999997E+02  0.45594000000E+02  0.51100000000E-03 0.  1.
         11   -1    0    0    0    0 -0.00000000000E+00 -0.00000000000E+00 -0.45593999997E+02  0.45594000000E+02  0.51100000000E-03 0. -1.
    9900012    2    1    2    0    0  0.24762260718E+02  0.10826815355E+02 -0.16921156481E+02  0.59302030934E+02  0.50000158496E+02 0.  0.
        -12    1    1    2    0    0 -0.24762260718E+02 -0.10826815355E+02  0.16921156481E+02  0.31885969066E+02  0.00000000000E+00 0.  1.
         11    1    3    3    0    0  0.16666166609E+02 -0.48263632786E+01 -0.91838246895E+01  0.19631544212E+02  0.51100000000E-03 0. -1.
        -11    1    3    3    0    0  0.16922699686E+02  0.16310613559E+02 -0.15286485109E+02  0.28037305622E+02  0.51100000000E-03 0.  1.
         12    1    3    3    0    0 -0.88266055777E+01 -0.65743492540E+00  0.75491533167E+01  0.11633181100E+02  0.00000000000E+00 0. -1.
</event>
<event>
 7    1  0.1284777E-011  0.5930191E+02  0.7816164E-02  0.1266605E+00
        -11   -1    0    0    0    0  0.00000000000E+00  0.00000000000E+00  0.45593999997E+02  0.45594000000E+02  0.51100000000E-03 0.  1.
         11   -1    0    0    0    0 -0.00000000000E+00 -0.00000000000E+00 -0.45593999997E+02  0.45594000000E+02  0.51100000000E-03 0. -1.
    9900012    2    1    2    0    0 -0.23363520954E+02 -0.15491067031E+02 -0.15195245043E+02  0.59301909912E+02  0.49999937782E+02 0.  0.
        -12    1    1    2    0    0  0.23363520954E+02  0.15491067031E+02  0.15195245043E+02  0.31886090088E+02  0.00000000000E+00 0.  1.
         11    1    3    3    0    0 -0.17159231466E+02 -0.10889351171E+02  0.82978335384E+01  0.21951565664E+02  0.51100000000E-03 0. -1.
        -11    1    3    3    0    0  0.31410799921E+01 -0.85383233038E+01  0.25118691454E+01  0.94381584656E+01  0.51100000000E-03 0.  1.
         12    1    3    3    0    0 -0.93453694807E+01  0.39366074433E+01 -0.26004947727E+02  0.27912185783E+02  0.00000000000E+00 0. -1.
</event>
<event>
 7    1  0.1284777E-011  0.5930196E+02  0.7816164E-02  0.1266605E+00
        -11   -1    0    0    0    0  0.00000000000E+00  0.00000000000E+00  0.45593999997E+02  0.45594000000E+02  0.51100000000E-03 0.  1.
         11   -1    0    0    0    0 -0.00000000000E+00 -0.00000000000E+00 -0.45593999997E+02  0.45594000000E+02  0.51100000000E-03 0. -1.
    9900012    2    1    2    0    0 -0.37349217058E+01 -0.30352495211E+02 -0.90274968066E+01  0.59301963804E+02  0.50000036068E+02 0.  0.
        -12    1    1    2    0    0  0.37349217058E+01  0.30352495211E+02  0.90274968066E+01  0.31886036196E+02  0.00000000000E+00 0.  1.
         11    1    3    3    0    0  0.53132076157E+01 -0.27325421572E+02  0.10453509557E+02  0.29735243426E+02  0.51100000000E-03 0. -1.
        -11    1    3    3    0    0 -0.49463257796E+01 -0.56585973007E+01  0.18054555806E+01  0.77295234163E+01  0.51100000000E-03 0.  1.
        -12    1    3    3    0    0 -0.41018035419E+01  0.26315236618E+01 -0.21286461944E+02  0.21837196962E+02  0.00000000000E+00 0.  1.
</event>
<event>
 7    1  0.1284777E-011  0.5930173E+02  0.7816164E-02  0.1266606E+00
        -11   -1    0    0    0    0  0.00000000000E+00  0.00000000000E+00  0.45593999997E+02  0.45594000000E+02  0.51100000000E-03 0.  1.
         11   -1    0    0    0    0 -0.00000000000E+00 -0.00000000000E+00 -0.45593999997E+02  0.45594000000E+02  0.51100000000E-03 0. -1.
    9900012    2    1    2    0    0 -0.10949831396E+02  0.29889300643E+02 -0.18615042049E+01  0.59301728684E+02  0.49999607264E+02 0.  0.
        -12    1    1    2    0    0  0.10949831396E+02 -0.29889300643E+02  0.18615042049E+01  0.31886271316E+02  0.00000000000E+00 0.  1.
         11    1    3    3    0    0  0.12208918842E+02 -0.70286650329E+01  0.96980602263E+00  0.14120919072E+02  0.51100000000E-03 0. -1.
        -11    1    3    3    0    0  0.11877791567E+01  0.15225421820E+01  0.74974400146E+00  0.20714898865E+01  0.51100000000E-03 0.  1.
         12    1    3    3    0    0 -0.24346529395E+02  0.35395423494E+02 -0.35810542290E+01  0.43109319726E+02  0.00000000000E+00 0. -1.
</event>
<event>
 7    1  0.1284777E-011  0.5930191E+02  0.7816164E-02  0.1266605E+00
        -11   -1    0    0    0    0  0.00000000000E+00  0.00000000000E+00  0.45593999997E+02  0.45594000000E+02  0.51100000000E-03 0. -1.
         11   -1    0    0    0    0 -0.00000000000E+00 -0.00000000000E+00 -0.45593999997E+02  0.45594000000E+02  0.51100000000E-03 0.  1.
    9900012    2    1    2    0    0 -0.31288330798E+00  0.10318517252E+02  0.30168742387E+02  0.59301910377E+02  0.49999938630E+02 0.  0.
        -12    1    1    2    0    0  0.31288330798E+00 -0.10318517252E+02 -0.30168742387E+02  0.31886089623E+02  0.00000000000E+00 0.  1.
         11    1    3    3    0    0  0.90069306045E+01  0.45322283694E+01  0.12188903052E+02  0.15818825834E+02  0.51100000000E-03 0. -1.
        -11    1    3    3    0    0 -0.59383440588E+01  0.16753937570E+02 -0.44178876221E+01  0.18316006267E+02  0.51100000000E-03 0.  1.
        -12    1    3    3    0    0 -0.33814698538E+01 -0.10967648688E+02  0.22397726957E+02  0.25167078276E+02  0.00000000000E+00 0.  1.
</event>
<event>
 7    1  0.1284777E-011  0.5930187E+02  0.7816164E-02  0.1266605E+00
        -11   -1    0    0    0    0  0.00000000000E+00  0.00000000000E+00  0.45593999997E+02  0.45594000000E+02  0.51100000000E-03 0.  1.
         11   -1    0    0    0    0 -0.00000000000E+00 -0.00000000000E+00 -0.45593999997E+02  0.45594000000E+02  0.51100000000E-03 0. -1.
    9900012    2    1    2    0    0 -0.23129409886E+02 -0.73688643174E+01 -0.20674995240E+02  0.59301871493E+02  0.49999867714E+02 0.  0.
        -12    1    1    2    0    0  0.23129409886E+02  0.73688643174E+01  0.20674995240E+02  0.31886128507E+02  0.00000000000E+00 0.  1.
         11    1    3    3    0    0  0.93410896009E+01  0.51030344746E+01  0.68986738611E+00  0.10666434880E+02  0.51100000000E-03 0. -1.
        -11    1    3    3    0    0 -0.11300658458E+02  0.80435349284E+01 -0.97280777960E+01  0.16942220445E+02  0.51100000000E-03 0.  1.
         12    1    3    3    0    0 -0.21169841029E+02 -0.20515433720E+02 -0.11636784830E+02  0.31693216168E+02  0.00000000000E+00 0. -1.
</event>
<event>
 7    1  0.1284777E-011  0.5930199E+02  0.7816164E-02  0.1266605E+00
        -11   -1    0    0    0    0  0.00000000000E+00  0.00000000000E+00  0.45593999997E+02  0.45594000000E+02  0.51100000000E-03 0.  1.
         11   -1    0    0    0    0 -0.00000000000E+00 -0.00000000000E+00 -0.45593999997E+02  0.45594000000E+02  0.51100000000E-03 0. -1.
    9900012    2    1    2    0    0  0.97772170388E+01 -0.25305074089E+02 -0.16756406301E+02  0.59301985828E+02  0.50000076233E+02 0.  0.
        -12    1    1    2    0    0 -0.97772170388E+01  0.25305074089E+02  0.16756406301E+02  0.31886014172E+02  0.00000000000E+00 0.  1.
         11    1    3    3    0    0  0.41204011311E+01 -0.46156166816E+01 -0.28855321479E+01  0.68269992581E+01  0.51100000000E-03 0. -1.
        -11    1    3    3    0    0  0.20796166061E+02 -0.23416675745E+02  0.64453489369E+00  0.31324697146E+02  0.51100000000E-03 0.  1.
        -12    1    3    3    0    0 -0.15139350153E+02  0.27272183381E+01 -0.14515409047E+02  0.21150289424E+02  0.00000000000E+00 0.  1.
</event>
<event>
 7    1  0.1284777E-011  0.5930183E+02  0.7816164E-02  0.1266605E+00
        -11   -1    0    0    0    0  0.00000000000E+00  0.00000000000E+00  0.45593999997E+02  0.45594000000E+02  0.51100000000E-03 0.  1.
         11   -1    0    0    0    0 -0.00000000000E+00 -0.00000000000E+00 -0.45593999997E+02  0.45594000000E+02  0.51100000000E-03 0. -1.
    9900012    2    1    2    0    0 -0.12374382811E+01  0.15967332836E+02 -0.27572462748E+02  0.59301832570E+02  0.49999796727E+02 0.  0.
        -12    1    1    2    0    0  0.12374382811E+01 -0.15967332836E+02  0.27572462748E+02  0.31886167430E+02  0.00000000000E+00 0.  1.
         11    1    3    3    0    0  0.10958767334E+02  0.95746969437E+01 -0.76645868720E+01  0.16447349185E+02  0.51100000000E-03 0. -1.
        -11    1    3    3    0    0  0.10671109773E+02 -0.87540079680E+00 -0.14891628426E+02  0.18341197010E+02  0.51100000000E-03 0.  1.
        -12    1    3    3    0    0 -0.22867315388E+02  0.72680366892E+01 -0.50162474502E+01  0.24513286374E+02  0.00000000000E+00 0.  1.
</event>
<event>
 7    1  0.1284777E-011  0.5930189E+02  0.7816164E-02  0.1266605E+00
        -11   -1    0    0    0    0  0.00000000000E+00  0.00000000000E+00  0.45593999997E+02  0.45594000000E+02  0.51100000000E-03 0.  1.
         11   -1    0    0    0    0 -0.00000000000E+00 -0.00000000000E+00 -0.45593999997E+02  0.45594000000E+02  0.51100000000E-03 0. -1.
    9900012    2    1    2    0    0 -0.24629244665E+02  0.18898906083E+02  0.72770727046E+01  0.59301888116E+02  0.49999898031E+02 0.  0.
        -12    1    1    2    0    0  0.24629244665E+02 -0.18898906083E+02 -0.72770727046E+01  0.31886111884E+02  0.00000000000E+00 0.  1.
         11    1    3    3    0    0 -0.49961901578E+01  0.83002466160E+01  0.52714031614E+01  0.11029220350E+02  0.51100000000E-03 0. -1.
        -11    1    3    3    0    0 -0.40382517625E+01  0.17914198493E+02 -0.15265298141E+02  0.23880019106E+02  0.51100000000E-03 0.  1.
         12    1    3    3    0    0 -0.15594802745E+02 -0.73155390259E+01  0.17270967684E+02  0.24392648660E+02  0.00000000000E+00 0. -1.
</event>
<event>
 7    1  0.1284777E-011  0.5930198E+02  0.7816164E-02  0.1266605E+00
        -11   -1    0    0    0    0  0.00000000000E+00  0.00000000000E+00  0.45593999997E+02  0.45594000000E+02  0.51100000000E-03 0. -1.
         11   -1    0    0    0    0 -0.00000000000E+00 -0.00000000000E+00 -0.45593999997E+02  0.45594000000E+02  0.51100000000E-03 0.  1.
    9900012    2    1    2    0    0 -0.18738472730E+02  0.19904898055E+02  0.16412895234E+02  0.59301977094E+02  0.50000060305E+02 0.  0.
        -12    1    1    2    0    0  0.18738472730E+02 -0.19904898055E+02 -0.16412895234E+02  0.31886022906E+02  0.00000000000E+00 0.  1.
         11    1    3    3    0    0 -0.81253013639E+01 -0.36291646240E+01  0.92257163628E+01  0.12818159025E+02  0.51100000000E-03 0. -1.
        -11    1    3    3    0    0 -0.20268570617E+02  0.16114726338E+00  0.61183556335E+01  0.21172510461E+02  0.51100000000E-03 0.  1.
         12    1    3    3    0    0  0.96553992511E+01  0.23372915415E+02  0.10688232373E+01  0.25311307608E+02  0.00000000000E+00 0. -1.
</event>
<event>
 7    1  0.1284777E-011  0.5930199E+02  0.7816164E-02  0.1266605E+00
        -11   -1    0    0    0    0  0.00000000000E+00  0.00000000000E+00  0.45593999997E+02  0.45594000000E+02  0.51100000000E-03 0.  1.
         11   -1    0    0    0    0 -0.00000000000E+00 -0.00000000000E+00 -0.45593999997E+02  0.45594000000E+02  0.51100000000E-03 0. -1.
    9900012    2    1    2    0    0  0.22203479529E+02 -0.19273432793E+02  0.12339295245E+02  0.59301985480E+02  0.50000075599E+02 0.  0.
        -12    1    1    2    0    0 -0.22203479529E+02  0.19273432793E+02 -0.12339295245E+02  0.31886014520E+02  0.00000000000E+00 0.  1.
         11    1    3    3    0    0  0.71150976267E+01 -0.78596247802E+01 -0.83272115733E+01  0.13481126391E+02  0.51100000000E-03 0. -1.
        -11    1    3    3    0    0 -0.11312608953E+01 -0.18935319280E+02  0.64712899500E+00  0.18980117061E+02  0.51100000000E-03 0.  1.
         12    1    3    3    0    0  0.16219642797E+02  0.75215112667E+01  0.20019377823E+02  0.26840742028E+02  0.00000000000E+00 0. -1.
</event>
<event>
 7    1  0.1284777E-011  0.5930194E+02  0.7816164E-02  0.1266605E+00
        -11   -1    0    0    0    0  0.00000000000E+00  0.00000000000E+00  0.45593999997E+02  0.45594000000E+02  0.51100000000E-03 0. -1.
         11   -1    0    0    0    0 -0.00000000000E+00 -0.00000000000E+00 -0.45593999997E+02  0.45594000000E+02  0.51100000000E-03 0.  1.
    9900012    2    1    2    0    0  0.17329049524E+02  0.16252006640E+02  0.21267284217E+02  0.59301936349E+02  0.49999985995E+02 0.  0.
        -12    1    1    2    0    0 -0.17329049524E+02 -0.16252006640E+02 -0.21267284217E+02  0.31886063651E+02  0.00000000000E+00 0.  1.
         11    1    3    3    0    0  0.19004881781E+01  0.24411110655E+00  0.16866583422E+02  0.16975072375E+02  0.51100000000E-03 0. -1.
        -11    1    3    3    0    0  0.22558186896E+02  0.89843762864E+01 -0.87421647563E+01  0.25807290795E+02  0.51100000000E-03 0.  1.
         12    1    3    3    0    0 -0.71296255507E+01  0.70235192468E+01  0.13142865551E+02  0.16519573179E+02  0.00000000000E+00 0. -1.
</event>
<event>
 7    1  0.1284777E-011  0.5930194E+02  0.7816164E-02  0.1266605E+00
        -11   -1    0    0    0    0  0.00000000000E+00  0.00000000000E+00  0.45593999997E+02  0.45594000000E+02  0.51100000000E-03 0.  1.
         11   -1    0    0    0    0 -0.00000000000E+00 -0.00000000000E+00 -0.45593999997E+02  0.45594000000E+02  0.51100000000E-03 0. -1.
    9900012    2    1    2    0    0 -0.48857871645E+01 -0.15882545856E+02 -0.27213865452E+02  0.59301942672E+02  0.49999997527E+02 0.  0.
        -12    1    1    2    0    0  0.48857871645E+01  0.15882545856E+02  0.27213865452E+02  0.31886057328E+02  0.00000000000E+00 0.  1.
         11    1    3    3    0    0  0.11689787189E+02 -0.16027790844E+02 -0.41159027809E+01  0.20260351918E+02  0.51100000000E-03 0. -1.
        -11    1    3    3    0    0 -0.12004887929E+01  0.14764740754E+01 -0.23526206523E+02  0.23603040962E+02  0.51100000000E-03 0.  1.
        -12    1    3    3    0    0 -0.15375085560E+02 -0.13312290871E+01  0.42824385168E+00  0.15438549792E+02  0.00000000000E+00 0.  1.
</event>
<event>
 7    1  0.1284777E-011  0.5930193E+02  0.7816164E-02  0.1266605E+00
        -11   -1    0    0    0    0  0.00000000000E+00  0.00000000000E+00  0.45593999997E+02  0.45594000000E+02  0.51100000000E-03 0. -1.
         11   -1    0    0    0    0 -0.00000000000E+00 -0.00000000000E+00 -0.45593999997E+02  0.45594000000E+02  0.51100000000E-03 0.  1.
    9900012    2    1    2    0    0 -0.21943144525E+02 -0.17969297778E+02 -0.14571346162E+02  0.59301931204E+02  0.49999976613E+02 0.  0.
        -12    1    1    2    0    0  0.21943144525E+02  0.17969297778E+02  0.14571346162E+02  0.31886068796E+02  0.00000000000E+00 0.  1.
         11    1    3    3    0    0 -0.27058629229E+02 -0.25812143186E+01 -0.24456328342E+02  0.36564245915E+02  0.51100000000E-03 0. -1.
        -11    1    3    3    0    0 -0.29977852105E+01 -0.29304940671E+01 -0.10028631502E+01  0.43104809946E+01  0.51100000000E-03 0.  1.
        -12    1    3    3    0    0  0.81132699151E+01 -0.12457589392E+02  0.10887845330E+02  0.18427204294E+02  0.00000000000E+00 0.  1.
</event>
<event>
 7    1  0.1284777E-011  0.5930197E+02  0.7816164E-02  0.1266605E+00
        -11   -1    0    0    0    0  0.00000000000E+00  0.00000000000E+00  0.45593999997E+02  0.45594000000E+02  0.51100000000E-03 0. -1.
         11   -1    0    0    0    0 -0.00000000000E+00 -0.00000000000E+00 -0.45593999997E+02  0.45594000000E+02  0.51100000000E-03 0.  1.
    9900012    2    1    2    0    0 -0.13210465786E+02  0.24986284854E+02  0.14761042976E+02  0.59301965019E+02  0.50000038283E+02 0.  0.
        -12    1    1    2    0    0  0.13210465786E+02 -0.24986284854E+02 -0.14761042976E+02  0.31886034981E+02  0.00000000000E+00 0.  1.
         11    1    3    3    0    0 -0.13547353789E+02 -0.48801354542E+01 -0.27669435106E+01  0.14662963322E+02  0.51100000000E-03 0. -1.
        -11    1    3    3    0    0 -0.12678787312E+02  0.86294482610E+01  0.11047854779E+02  0.18901696232E+02  0.51100000000E-03 0.  1.
        -12    1    3    3    0    0  0.13015675315E+02  0.21236972047E+02  0.64801317076E+01  0.25737305465E+02  0.00000000000E+00 0.  1.
</event>
<event>
 7    1  0.1284777E-011  0.5930195E+02  0.7816164E-02  0.1266605E+00
        -11   -1    0    0    0    0  0.00000000000E+00  0.00000000000E+00  0.45593999997E+02  0.45594000000E+02  0.51100000000E-03 0.  1.
         11   -1    0    0    0    0 -0.00000000000E+00 -0.00000000000E+00 -0.45593999997E+02  0.45594000000E+02  0.51100000000E-03 0. -1.
    9900012    2    1    2    0    0 -0.24910443940E+02  0.16878651141E+02 -0.10549946731E+02  0.59301945718E+02  0.50000003083E+02 0.  0.
        -12    1    1    2    0    0  0.24910443940E+02 -0.16878651141E+02  0.10549946731E+02  0.31886054282E+02  0.00000000000E+00 0.  1.
         11    1    3    3    0    0 -0.15865594067E+02  0.91466816723E+01 -0.17385121702E+02  0.25251164677E+02  0.51100000000E-03 0. -1.
        -11    1    3    3    0    0 -0.94966988011E+01 -0.55877061414E+01 -0.83659115123E+01  0.13834674688E+02  0.51100000000E-03 0.  1.
        -12    1    3    3    0    0  0.45184892794E+00  0.13319675610E+02  0.15201086483E+02  0.20216106353E+02  0.00000000000E+00 0.  1.
</event>
<event>
 7    1  0.1284777E-011  0.5930207E+02  0.7816164E-02  0.1266604E+00
        -11   -1    0    0    0    0  0.00000000000E+00  0.00000000000E+00  0.45593999997E+02  0.45594000000E+02  0.51100000000E-03 0. -1.
         11   -1    0    0    0    0 -0.00000000000E+00 -0.00000000000E+00 -0.45593999997E+02  0.45594000000E+02  0.51100000000E-03 0.  1.
    9900012    2    1    2    0    0 -0.22729458624E+02 -0.15031384316E+02  0.16557221608E+02  0.59302072208E+02  0.50000233769E+02 0.  0.
        -12    1    1    2    0    0  0.22729458624E+02  0.15031384316E+02 -0.16557221608E+02  0.31885927792E+02  0.00000000000E+00 0.  1.
         11    1    3    3    0    0  0.62140201565E+01 -0.14187412102E+02  0.43009846828E+01  0.16074675056E+02  0.51100000000E-03 0. -1.
        -11    1    3    3    0    0 -0.21585978030E+01 -0.53507895066E+01 -0.76288164641E+01  0.95650056834E+01  0.51100000000E-03 0.  1.
         12    1    3    3    0    0 -0.26784880978E+02  0.45068172923E+01  0.19885053389E+02  0.33662391469E+02  0.00000000000E+00 0. -1.
</event>
<event>
 7    1  0.1284777E-011  0.5930194E+02  0.7816164E-02  0.1266605E+00
        -11   -1    0    0    0    0  0.00000000000E+00  0.00000000000E+00  0.45593999997E+02  0.45594000000E+02  0.51100000000E-03 0.  1.
         11   -1    0    0    0    0 -0.00000000000E+00 -0.00000000000E+00 -0.45593999997E+02  0.45594000000E+02  0.51100000000E-03 0. -1.
    9900012    2    1    2    0    0 -0.29860941508E+02  0.88924044306E+01 -0.67801120650E+01  0.59301943425E+02  0.49999998901E+02 0.  0.
        -12    1    1    2    0    0  0.29860941508E+02 -0.88924044306E+01  0.67801120650E+01  0.31886056575E+02  0.00000000000E+00 0.  1.
         11    1    3    3    0    0  0.87758663307E+00 -0.12952396502E+02  0.14174455364E+01  0.13059245214E+02  0.51100000000E-03 0. -1.
        -11    1    3    3    0    0 -0.21847640982E+02  0.72250685727E+00  0.12822849820E+00  0.21859960554E+02  0.51100000000E-03 0.  1.
         12    1    3    3    0    0 -0.88908871595E+01  0.21122294075E+02 -0.83257860995E+01  0.24382737657E+02  0.00000000000E+00 0. -1.
</event>
<event>
 7    1  0.1284777E-011  0.5930194E+02  0.7816164E-02  0.1266605E+00
        -11   -1    0    0    0    0  0.00000000000E+00  0.00000000000E+00  0.45593999997E+02  0.45594000000E+02  0.51100000000E-03 0. -1.
         11   -1    0    0    0    0 -0.00000000000E+00 -0.00000000000E+00 -0.45593999997E+02  0.45594000000E+02  0.51100000000E-03 0.  1.
    9900012    2    1    2    0    0 -0.17045839548E+02  0.92634728222E+01  0.25305102050E+02  0.59301940909E+02  0.49999994312E+02 0.  0.
        -12    1    1    2    0    0  0.17045839548E+02 -0.92634728222E+01 -0.25305102050E+02  0.31886059091E+02  0.00000000000E+00 0.  1.
         11    1    3    3    0    0  0.25943259207E+01  0.40668378045E+01  0.18443838129E+02  0.19064229906E+02  0.51100000000E-03 0. -1.
        -11    1    3    3    0    0 -0.23909855060E+02  0.11491284521E+02  0.13834697238E+02  0.29918717166E+02  0.51100000000E-03 0.  1.
        -12    1    3    3    0    0  0.42696895912E+01 -0.62946495034E+01 -0.69734333176E+01  0.10318993837E+02  0.00000000000E+00 0.  1.
</event>
<event>
 7    1  0.1284777E-011  0.5930197E+02  0.7816164E-02  0.1266605E+00
        -11   -1    0    0    0    0  0.00000000000E+00  0.00000000000E+00  0.45593999997E+02  0.45594000000E+02  0.51100000000E-03 0. -1.
         11   -1    0    0    0    0 -0.00000000000E+00 -0.00000000000E+00 -0.45593999997E+02  0.45594000000E+02  0.51100000000E-03 0.  1.
    9900012    2    1    2    0    0  0.31812989308E+02 -0.13157597521E+01  0.17091686119E+01  0.59301972186E+02  0.50000051354E+02 0.  0.
        -12    1    1    2    0    0 -0.31812989308E+02  0.13157597521E+01 -0.17091686119E+01  0.31886027814E+02  0.00000000000E+00 0.  1.
         11    1    3    3    0    0  0.66747263227E+01 -0.72332180223E+01  0.28079976373E+01  0.10235050827E+02  0.51100000000E-03 0. -1.
        -11    1    3    3    0    0  0.18934212559E+02 -0.16714080445E+02  0.22788055400E+01  0.25358585239E+02  0.51100000000E-03 0.  1.
         12    1    3    3    0    0  0.62040504255E+01  0.22631538716E+02 -0.33776345654E+01  0.23708336120E+02  0.00000000000E+00 0. -1.
</event>
<event>
 7    1  0.1284777E-011  0.5930192E+02  0.7816164E-02  0.1266605E+00
        -11   -1    0    0    0    0  0.00000000000E+00  0.00000000000E+00  0.45593999997E+02  0.45594000000E+02  0.51100000000E-03 0. -1.
         11   -1    0    0    0    0 -0.00000000000E+00 -0.00000000000E+00 -0.45593999997E+02  0.45594000000E+02  0.51100000000E-03 0.  1.
    9900012    2    1    2    0    0 -0.21504356393E+02  0.23526155525E+02  0.89700904372E+00  0.59301922115E+02  0.49999960036E+02 0.  0.
        -12    1    1    2    0    0  0.21504356393E+02 -0.23526155525E+02 -0.89700904372E+00  0.31886077885E+02  0.00000000000E+00 0.  1.
         11    1    3    3    0    0  0.23310429148E+00 -0.51467333228E+00  0.27507511420E+00  0.62840498823E+00  0.51100000000E-03 0. -1.
        -11    1    3    3    0    0  0.58267616024E+01 -0.70812096070E+01 -0.12113332480E+02  0.15193008402E+02  0.51100000000E-03 0.  1.
         12    1    3    3    0    0 -0.27564222287E+02  0.31122038464E+02  0.12735266409E+02  0.43480508725E+02  0.00000000000E+00 0. -1.
</event>
<event>
 7    1  0.1284777E-011  0.5930196E+02  0.7816164E-02  0.1266605E+00
        -11   -1    0    0    0    0  0.00000000000E+00  0.00000000000E+00  0.45593999997E+02  0.45594000000E+02  0.51100000000E-03 0.  1.
         11   -1    0    0    0    0 -0.00000000000E+00 -0.00000000000E+00 -0.45593999997E+02  0.45594000000E+02  0.51100000000E-03 0. -1.
    9900012    2    1    2    0    0  0.13012595389E+02  0.21025000625E+02 -0.20133094223E+02  0.59301956454E+02  0.50000022662E+02 0.  0.
        -12    1    1    2    0    0 -0.13012595389E+02 -0.21025000625E+02  0.20133094223E+02  0.31886043546E+02  0.00000000000E+00 0.  1.
         11    1    3    3    0    0  0.24420890892E+02  0.17097090876E+02 -0.19182746959E+02  0.35449516351E+02  0.51100000000E-03 0. -1.
        -11    1    3    3    0    0 -0.63207266310E+01  0.12390227293E+02  0.20749259674E+00  0.13910872401E+02  0.51100000000E-03 0.  1.
        -12    1    3    3    0    0 -0.50875688720E+01 -0.84623175434E+01 -0.11578398602E+01  0.99415677020E+01  0.00000000000E+00 0.  1.
</event>
<event>
 7    1  0.1284777E-011  0.5930189E+02  0.7816164E-02  0.1266605E+00
        -11   -1    0    0    0    0  0.00000000000E+00  0.00000000000E+00  0.45593999997E+02  0.45594000000E+02  0.51100000000E-03 0.  1.
         11   -1    0    0    0    0 -0.00000000000E+00 -0.00000000000E+00 -0.45593999997E+02  0.45594000000E+02  0.51100000000E-03 0. -1.
    9900012    2    1    2    0    0  0.38028629650E+01  0.60477204281E+01 -0.31075508237E+02  0.59301891719E+02  0.49999904602E+02 0.  0.
        -12    1    1    2    0    0 -0.38028629650E+01 -0.60477204281E+01  0.31075508237E+02  0.31886108281E+02  0.00000000000E+00 0.  1.
         11    1    3    3    0    0 -0.60194862848E+01  0.23765706916E+02 -0.25802030983E+02  0.35591963187E+02  0.51100000000E-03 0. -1.
        -11    1    3    3    0    0 -0.18141242084E+01 -0.14021791703E+00 -0.13543740139E+01  0.22682673869E+01  0.51100000000E-03 0.  1.
        -12    1    3    3    0    0  0.11636473458E+02 -0.17577768571E+02 -0.39191032399E+01  0.21441661146E+02  0.00000000000E+00 0.  1.
</event>
<event>
 7    1  0.1284777E-011  0.5930194E+02  0.7816164E-02  0.1266605E+00
        -11   -1    0    0    0    0  0.00000000000E+00  0.00000000000E+00  0.45593999997E+02  0.45594000000E+02  0.51100000000E-03 0. -1.
         11   -1    0    0    0    0 -0.00000000000E+00 -0.00000000000E+00 -0.45593999997E+02  0.45594000000E+02  0.51100000000E-03 0.  1.
    9900012    2    1    2    0    0 -0.34786617438E+00  0.63314359845E+01  0.31249207647E+02  0.59301936100E+02  0.49999985541E+02 0.  0.
        -12    1    1    2    0    0  0.34786617438E+00 -0.63314359845E+01 -0.31249207647E+02  0.31886063900E+02  0.00000000000E+00 0.  1.
         11    1    3    3    0    0  0.68864956523E+01 -0.53579468749E+01  0.33936552830E+01  0.93620678017E+01  0.51100000000E-03 0. -1.
        -11    1    3    3    0    0  0.14735261266E+02 -0.27657014909E+01  0.80453794331E+01  0.17014851154E+02  0.51100000000E-03 0.  1.
        -12    1    3    3    0    0 -0.21969623092E+02  0.14455084350E+02  0.19810172931E+02  0.32925017144E+02  0.00000000000E+00 0.  1.
</event>
<event>
 7    1  0.1284777E-011  0.5930195E+02  0.7816164E-02  0.1266605E+00
        -11   -1    0    0    0    0  0.00000000000E+00  0.00000000000E+00  0.45593999997E+02  0.45594000000E+02  0.51100000000E-03 0. -1.
         11   -1    0    0    0    0 -0.00000000000E+00 -0.00000000000E+00 -0.45593999997E+02  0.45594000000E+02  0.51100000000E-03 0.  1.
    9900012    2    1    2    0    0 -0.24951480672E+02 -0.62022643654E+01  0.18859373358E+02  0.59301946082E+02  0.50000003747E+02 0.  0.
        -12    1    1    2    0    0  0.24951480672E+02  0.62022643654E+01 -0.18859373358E+02  0.31886053918E+02  0.00000000000E+00 0.  1.
         11    1    3    3    0    0 -0.39558115779E+00 -0.99229241155E+01  0.21589130711E+02  0.23763658652E+02  0.51100000000E-03 0. -1.
        -11    1    3    3    0    0 -0.15729271601E+02 -0.17275638143E+01  0.10302372223E+02  0.18882090337E+02  0.51100000000E-03 0.  1.
        -12    1    3    3    0    0 -0.88266279135E+01  0.54482235644E+01 -0.13032129575E+02  0.16656197093E+02  0.00000000000E+00 0.  1.
</event>
<event>
 7    1  0.1284777E-011  0.5930194E+02  0.7816164E-02  0.1266605E+00
        -11   -1    0    0    0    0  0.00000000000E+00  0.00000000000E+00  0.45593999997E+02  0.45594000000E+02  0.51100000000E-03 0.  1.
         11   -1    0    0    0    0 -0.00000000000E+00 -0.00000000000E+00 -0.45593999997E+02  0.45594000000E+02  0.51100000000E-03 0. -1.
    9900012    2    1    2    0    0  0.28215312012E+02  0.14156104938E+02 -0.44968187503E+01  0.59301944775E+02  0.50000001362E+02 0.  0.
        -12    1    1    2    0    0 -0.28215312012E+02 -0.14156104938E+02  0.44968187503E+01  0.31886055225E+02  0.00000000000E+00 0.  1.
         11    1    3    3    0    0  0.30513772025E+02  0.13998493736E+02 -0.79323862460E+01  0.34495954283E+02  0.51100000000E-03 0. -1.
        -11    1    3    3    0    0 -0.23995215914E+01  0.10276133465E+02 -0.49576350119E+01  0.11659106657E+02  0.51100000000E-03 0.  1.
        -12    1    3    3    0    0  0.10106157831E+00 -0.10118522263E+02  0.83932025075E+01  0.13146883835E+02  0.00000000000E+00 0.  1.
</event>
<event>
 7    1  0.1284777E-011  0.5930209E+02  0.7816164E-02  0.1266604E+00
        -11   -1    0    0    0    0  0.00000000000E+00  0.00000000000E+00  0.45593999997E+02  0.45594000000E+02  0.51100000000E-03 0. -1.
         11   -1    0    0    0    0 -0.00000000000E+00 -0.00000000000E+00 -0.45593999997E+02  0.45594000000E+02  0.51100000000E-03 0.  1.
    9900012    2    1    2    0    0 -0.11986909906E+02  0.25755574681E+02  0.14480174070E+02  0.59302092810E+02  0.50000271343E+02 0.  0.
        -12    1    1    2    0    0  0.11986909906E+02 -0.25755574681E+02 -0.14480174070E+02  0.31885907190E+02  0.00000000000E+00 0.  1.
         11    1    3    3    0    0 -0.24048156608E+01 -0.60445435673E+01 -0.31751235949E+01  0.72388573272E+01  0.51100000000E-03 0.  1.
        -11    1    3    3    0    0 -0.16871575375E+02  0.19306416356E+02 -0.40725170930E+01  0.25960993122E+02  0.51100000000E-03 0. -1.
         12    1    3    3    0    0  0.72894811300E+01  0.12493701892E+02  0.21727814758E+02  0.26102242361E+02  0.00000000000E+00 0. -1.
</event>
<event>
 7    1  0.1284777E-011  0.5930193E+02  0.7816164E-02  0.1266605E+00
        -11   -1    0    0    0    0  0.00000000000E+00  0.00000000000E+00  0.45593999997E+02  0.45594000000E+02  0.51100000000E-03 0.  1.
         11   -1    0    0    0    0 -0.00000000000E+00 -0.00000000000E+00 -0.45593999997E+02  0.45594000000E+02  0.51100000000E-03 0. -1.
    9900012    2    1    2    0    0 -0.90283974659E+01 -0.96508407537E+01 -0.29018452957E+02  0.59301932508E+02  0.49999978992E+02 0.  0.
        -12    1    1    2    0    0  0.90283974659E+01  0.96508407537E+01  0.29018452957E+02  0.31886067492E+02  0.00000000000E+00 0.  1.
         11    1    3    3    0    0  0.26754817235E+01 -0.66301762965E+01 -0.75775774225E+01  0.10418114994E+02  0.51100000000E-03 0. -1.
        -11    1    3    3    0    0 -0.29138848654E+01 -0.10257908075E+02 -0.31769255985E+02  0.33511207517E+02  0.51100000000E-03 0.  1.
        -12    1    3    3    0    0 -0.87899943240E+01  0.72372436182E+01  0.10328380451E+02  0.15372609998E+02  0.00000000000E+00 0.  1.
</event>
<event>
 7    1  0.1284777E-011  0.5930193E+02  0.7816164E-02  0.1266605E+00
        -11   -1    0    0    0    0  0.00000000000E+00  0.00000000000E+00  0.45593999997E+02  0.45594000000E+02  0.51100000000E-03 0.  1.
         11   -1    0    0    0    0 -0.00000000000E+00 -0.00000000000E+00 -0.45593999997E+02  0.45594000000E+02  0.51100000000E-03 0. -1.
    9900012    2    1    2    0    0  0.24292540248E+02 -0.11973474339E+02 -0.16829431134E+02  0.59301931698E+02  0.49999977514E+02 0.  0.
        -12    1    1    2    0    0 -0.24292540248E+02  0.11973474339E+02  0.16829431134E+02  0.31886068302E+02  0.00000000000E+00 0.  1.
         11    1    3    3    0    0 -0.10923124156E+01  0.92596683867E+01 -0.13036966212E+02  0.16028009649E+02  0.51100000000E-03 0. -1.
        -11    1    3    3    0    0  0.15405577032E+00  0.53865736986E+01 -0.38053154681E+01  0.65969186341E+01  0.51100000000E-03 0.  1.
         12    1    3    3    0    0  0.25230796893E+02 -0.26619716425E+02  0.12850546309E-01  0.36677003415E+02  0.00000000000E+00 0. -1.
</event>
<event>
 7    1  0.1284777E-011  0.5930195E+02  0.7816164E-02  0.1266605E+00
        -11   -1    0    0    0    0  0.00000000000E+00  0.00000000000E+00  0.45593999997E+02  0.45594000000E+02  0.51100000000E-03 0.  1.
         11   -1    0    0    0    0 -0.00000000000E+00 -0.00000000000E+00 -0.45593999997E+02  0.45594000000E+02  0.51100000000E-03 0. -1.
    9900012    2    1    2    0    0 -0.26895401807E+02  0.12619035700E+02 -0.11580917705E+02  0.59301947324E+02  0.50000006012E+02 0.  0.
        -12    1    1    2    0    0  0.26895401807E+02 -0.12619035700E+02  0.11580917705E+02  0.31886052676E+02  0.00000000000E+00 0.  1.
         11    1    3    3    0    0  0.39649571545E+01 -0.70483596073E+00 -0.85087543700E+01  0.94136379875E+01  0.51100000000E-03 0. -1.
        -11    1    3    3    0    0 -0.94433808650E+01 -0.12609264582E+02  0.19802165523E+01  0.15877413307E+02  0.51100000000E-03 0.  1.
         12    1    3    3    0    0 -0.21416978097E+02  0.25933136243E+02 -0.50523798875E+01  0.34010896029E+02  0.00000000000E+00 0. -1.
</event>
<event>
 7    1  0.1284777E-011  0.5930194E+02  0.7816164E-02  0.1266605E+00
        -11   -1    0    0    0    0  0.00000000000E+00  0.00000000000E+00  0.45593999997E+02  0.45594000000E+02  0.51100000000E-03 0. -1.
         11   -1    0    0    0    0 -0.00000000000E+00 -0.00000000000E+00 -0.45593999997E+02  0.45594000000E+02  0.51100000000E-03 0.  1.
    9900012    2    1    2    0    0 -0.19310984013E+02 -0.24722754388E+02  0.57089606598E+01  0.59301938470E+02  0.49999989864E+02 0.  0.
        -12    1    1    2    0    0  0.19310984013E+02  0.24722754388E+02 -0.57089606598E+01  0.31886061530E+02  0.00000000000E+00 0.  1.
         11    1    3    3    0    0 -0.12949495702E+02 -0.87967858758E+01 -0.77963711178E+01  0.17488747340E+02  0.51100000000E-03 0. -1.
        -11    1    3    3    0    0 -0.88472314063E+01 -0.60280339945E+01 -0.10950059823E+02  0.15313866520E+02  0.51100000000E-03 0.  1.
         12    1    3    3    0    0  0.24857430945E+01 -0.98979345174E+01  0.24455391600E+02  0.26499324610E+02  0.00000000000E+00 0. -1.
</event>
<event>
 7    1  0.1284777E-011  0.5930195E+02  0.7816164E-02  0.1266605E+00
        -11   -1    0    0    0    0  0.00000000000E+00  0.00000000000E+00  0.45593999997E+02  0.45594000000E+02  0.51100000000E-03 0.  1.
         11   -1    0    0    0    0 -0.00000000000E+00 -0.00000000000E+00 -0.45593999997E+02  0.45594000000E+02  0.51100000000E-03 0. -1.
    9900012    2    1    2    0    0 -0.20713945100E+01  0.24148699371E+00 -0.31817780442E+02  0.59301950646E+02  0.50000012070E+02 0.  0.
        -12    1    1    2    0    0  0.20713945100E+01 -0.24148699371E+00  0.31817780442E+02  0.31886049354E+02  0.00000000000E+00 0.  1.
         11    1    3    3    0    0 -0.10846402137E+02 -0.10231691607E+02 -0.60688941416E+01  0.16098553625E+02  0.51100000000E-03 0. -1.
        -11    1    3    3    0    0  0.20946408851E+01 -0.60284776220E+01 -0.24543912810E+02  0.25360081214E+02  0.51100000000E-03 0.  1.
        -12    1    3    3    0    0  0.66803667415E+01  0.16501656222E+02 -0.12049734895E+01  0.17843315807E+02  0.00000000000E+00 0.  1.
</event>
<event>
 7    1  0.1470761E-011  0.5930194E+02  0.7816164E-02  0.1266605E+00
        -11   -1    0    0    0    0  0.00000000000E+00  0.00000000000E+00  0.45593999997E+02  0.45594000000E+02  0.51100000000E-03 0. -1.
         11   -1    0    0    0    0 -0.00000000000E+00 -0.00000000000E+00 -0.45593999997E+02  0.45594000000E+02  0.51100000000E-03 0.  1.
    9900012    2    1    2    0    0 -0.18377460836E+01  0.17587324743E+02  0.26533553268E+02  0.59301941114E+02  0.49999994686E+02 0.  0.
        -12    1    1    2    0    0  0.18377460836E+01 -0.17587324743E+02 -0.26533553268E+02  0.31886058886E+02  0.00000000000E+00 0.  1.
         11    1    3    3    0    0  0.75148748066E+00  0.20997318602E+02  0.18472942972E+02  0.27976807256E+02  0.51100000000E-03 0. -1.
        -11    1    3    3    0    0 -0.24708029963E+01  0.41652114143E+01 -0.10344336777E+02  0.11421871877E+02  0.51100000000E-03 0.  1.
         12    1    3    3    0    0 -0.11843056799E+00 -0.75752052742E+01  0.18404947072E+02  0.19903261981E+02  0.00000000000E+00 0. -1.
</event>
<event>
 7    1  0.1284777E-011  0.5930195E+02  0.7816164E-02  0.1266605E+00
        -11   -1    0    0    0    0  0.00000000000E+00  0.00000000000E+00  0.45593999997E+02  0.45594000000E+02  0.51100000000E-03 0.  1.
         11   -1    0    0    0    0 -0.00000000000E+00 -0.00000000000E+00 -0.45593999997E+02  0.45594000000E+02  0.51100000000E-03 0. -1.
    9900012    2    1    2    0    0 -0.29932467858E+02 -0.42611053033E+01 -0.10129691159E+02  0.59301948293E+02  0.50000007779E+02 0.  0.
        -12    1    1    2    0    0  0.29932467858E+02  0.42611053033E+01  0.10129691159E+02  0.31886051707E+02  0.00000000000E+00 0.  1.
         11    1    3    3    0    0 -0.38347043702E+01 -0.10343607641E+02  0.37058278806E+01  0.11637368138E+02  0.51100000000E-03 0. -1.
        -11    1    3    3    0    0  0.92858550491E+01  0.41413582656E+01 -0.27126348997E+01  0.10523133594E+02  0.51100000000E-03 0.  1.
         12    1    3    3    0    0 -0.35383618537E+02  0.19411440717E+01 -0.11122884139E+02  0.37141446561E+02  0.00000000000E+00 0. -1.
</event>
<event>
 7    1  0.1284777E-011  0.5930194E+02  0.7816164E-02  0.1266605E+00
        -11   -1    0    0    0    0  0.00000000000E+00  0.00000000000E+00  0.45593999997E+02  0.45594000000E+02  0.51100000000E-03 0. -1.
         11   -1    0    0    0    0 -0.00000000000E+00 -0.00000000000E+00 -0.45593999997E+02  0.45594000000E+02  0.51100000000E-03 0.  1.
    9900012    2    1    2    0    0 -0.63700326496E+01  0.24266140411E+02  0.19679893808E+02  0.59301935541E+02  0.49999984522E+02 0.  0.
        -12    1    1    2    0    0  0.63700326496E+01 -0.24266140411E+02 -0.19679893808E+02  0.31886064459E+02  0.00000000000E+00 0.  1.
         11    1    3    3    0    0  0.87292381073E+01  0.22406239085E+02  0.14565650254E+02  0.28114005681E+02  0.51100000000E-03 0. -1.
        -11    1    3    3    0    0  0.38564247706E+01  0.93607871890E+01  0.36033943787E+01  0.10746199334E+02  0.51100000000E-03 0.  1.
        -12    1    3    3    0    0 -0.18955695527E+02 -0.75008858631E+01  0.15108491754E+01  0.20441730526E+02  0.00000000000E+00 0.  1.
</event>
<event>
 7    1  0.1284777E-011  0.5930189E+02  0.7816164E-02  0.1266605E+00
        -11   -1    0    0    0    0  0.00000000000E+00  0.00000000000E+00  0.45593999997E+02  0.45594000000E+02  0.51100000000E-03 0.  1.
         11   -1    0    0    0    0 -0.00000000000E+00 -0.00000000000E+00 -0.45593999997E+02  0.45594000000E+02  0.51100000000E-03 0. -1.
    9900012    2    1    2    0    0 -0.30436845893E+02  0.93337367522E+01 -0.17899184835E+01  0.59301889578E+02  0.49999900696E+02 0.  0.
        -12    1    1    2    0    0  0.30436845893E+02 -0.93337367522E+01  0.17899184835E+01  0.31886110422E+02  0.00000000000E+00 0.  1.
         11    1    3    3    0    0 -0.14677085282E+02  0.30399969905E+00 -0.12161784725E+02  0.19063532101E+02  0.51100000000E-03 0. -1.
        -11    1    3    3    0    0  0.51612880417E+01  0.90687697949E+01 -0.73964061795E+01  0.12790164365E+02  0.51100000000E-03 0.  1.
         12    1    3    3    0    0 -0.20921048653E+02 -0.39032741746E-01  0.17768272421E+02  0.27448193112E+02  0.00000000000E+00 0. -1.
</event>
<event>
 7    1  0.1284777E-011  0.5930194E+02  0.7816164E-02  0.1266605E+00
        -11   -1    0    0    0    0  0.00000000000E+00  0.00000000000E+00  0.45593999997E+02  0.45594000000E+02  0.51100000000E-03 0. -1.
         11   -1    0    0    0    0 -0.00000000000E+00 -0.00000000000E+00 -0.45593999997E+02  0.45594000000E+02  0.51100000000E-03 0.  1.
    9900012    2    1    2    0    0  0.31837641307E+02  0.14678776442E+01  0.96463101248E+00  0.59301943773E+02  0.49999999535E+02 0.  0.
        -12    1    1    2    0    0 -0.31837641307E+02 -0.14678776442E+01 -0.96463101248E+00  0.31886056227E+02  0.00000000000E+00 0.  1.
         11    1    3    3    0    0 -0.50396532565E+01  0.37208669874E+01 -0.41192616654E+01  0.74974177564E+01  0.51100000000E-03 0. -1.
        -11    1    3    3    0    0  0.20702067439E+01  0.52342540942E+01 -0.11290916549E+02  0.12616178846E+02  0.51100000000E-03 0.  1.
         12    1    3    3    0    0  0.34807087819E+02 -0.74872434375E+01  0.16374809227E+02  0.39188347171E+02  0.00000000000E+00 0. -1.
</event>
<event>
 7    1  0.1284777E-011  0.5930193E+02  0.7816164E-02  0.1266605E+00
        -11   -1    0    0    0    0  0.00000000000E+00  0.00000000000E+00  0.45593999997E+02  0.45594000000E+02  0.51100000000E-03 0.  1.
         11   -1    0    0    0    0 -0.00000000000E+00 -0.00000000000E+00 -0.45593999997E+02  0.45594000000E+02  0.51100000000E-03 0. -1.
    9900012    2    1    2    0    0 -0.18322588075E+02  0.91616479016E+01 -0.24434984389E+02  0.59301929560E+02  0.49999973614E+02 0.  0.
        -12    1    1    2    0    0  0.18322588075E+02 -0.91616479016E+01  0.24434984389E+02  0.31886070440E+02  0.00000000000E+00 0.  1.
         11    1    3    3    0    0 -0.66816880619E+01  0.17082242719E+01 -0.11311372152E+02  0.13248023465E+02  0.51100000000E-03 0. -1.
        -11    1    3    3    0    0 -0.47115646052E+01  0.28357104809E+01 -0.28253627296E+02  0.28783807091E+02  0.51100000000E-03 0.  1.
        -12    1    3    3    0    0 -0.69293354079E+01  0.46177131488E+01  0.15130015059E+02  0.17270099004E+02  0.00000000000E+00 0.  1.
</event>
<event>
 7    1  0.1284777E-011  0.5930161E+02  0.7816164E-02  0.1266606E+00
        -11   -1    0    0    0    0  0.00000000000E+00  0.00000000000E+00  0.45593999997E+02  0.45594000000E+02  0.51100000000E-03 0. -1.
         11   -1    0    0    0    0 -0.00000000000E+00 -0.00000000000E+00 -0.45593999997E+02  0.45594000000E+02  0.51100000000E-03 0.  1.
    9900012    2    1    2    0    0 -0.19736439846E+02 -0.23549700263E+02  0.85221224999E+01  0.59301607727E+02  0.49999386665E+02 0.  0.
        -12    1    1    2    0    0  0.19736439846E+02  0.23549700263E+02 -0.85221224999E+01  0.31886392273E+02  0.00000000000E+00 0.  1.
         11    1    3    3    0    0 -0.89212187243E+01 -0.14997896063E+02  0.17017569131E+02  0.24374632084E+02  0.51100000000E-03 0. -1.
        -11    1    3    3    0    0  0.73958951284E+01 -0.13028452107E+02 -0.21814171193E+01  0.15139300181E+02  0.51100000000E-03 0.  1.
        -12    1    3    3    0    0 -0.18211116250E+02  0.44766479060E+01 -0.63140295118E+01  0.19787675463E+02  0.00000000000E+00 0.  1.
</event>
<event>
 7    1  0.1284777E-011  0.5930188E+02  0.7816164E-02  0.1266605E+00
        -11   -1    0    0    0    0  0.00000000000E+00  0.00000000000E+00  0.45593999997E+02  0.45594000000E+02  0.51100000000E-03 0. -1.
         11   -1    0    0    0    0 -0.00000000000E+00 -0.00000000000E+00 -0.45593999997E+02  0.45594000000E+02  0.51100000000E-03 0.  1.
    9900012    2    1    2    0    0 -0.23150254901E+02  0.81056515186E+01  0.20373720076E+02  0.59301884554E+02  0.49999891534E+02 0.  0.
        -12    1    1    2    0    0  0.23150254901E+02 -0.81056515186E+01 -0.20373720076E+02  0.31886115446E+02  0.00000000000E+00 0.  1.
         11    1    3    3    0    0 -0.10273307432E+02 -0.27098566913E+01  0.80667924975E+01  0.13340064106E+02  0.51100000000E-03 0. -1.
        -11    1    3    3    0    0 -0.24522664630E+02  0.18126978141E+02  0.75994013861E+01  0.31427683955E+02  0.51100000000E-03 0.  1.
         12    1    3    3    0    0  0.11645717161E+02 -0.73114699309E+01  0.47075261921E+01  0.14534136493E+02  0.00000000000E+00 0. -1.
</event>
<event>
 7    1  0.1284777E-011  0.5930196E+02  0.7816164E-02  0.1266605E+00
        -11   -1    0    0    0    0  0.00000000000E+00  0.00000000000E+00  0.45593999997E+02  0.45594000000E+02  0.51100000000E-03 0.  1.
         11   -1    0    0    0    0 -0.00000000000E+00 -0.00000000000E+00 -0.45593999997E+02  0.45594000000E+02  0.51100000000E-03 0. -1.
    9900012    2    1    2    0    0  0.75757494648E+01  0.11416604064E+02 -0.28792165131E+02  0.59301959147E+02  0.50000027574E+02 0.  0.
        -12    1    1    2    0    0 -0.75757494648E+01 -0.11416604064E+02  0.28792165131E+02  0.31886040853E+02  0.00000000000E+00 0.  1.
         11    1    3    3    0    0  0.12211941832E+00 -0.30961527070E+01  0.61848880587E+01  0.69176524412E+01  0.51100000000E-03 0. -1.
        -11    1    3    3    0    0  0.14935894064E+02 -0.60030733967E+01 -0.20987988660E+02  0.26450207749E+02  0.51100000000E-03 0.  1.
         12    1    3    3    0    0 -0.74822640173E+01  0.20515830168E+02 -0.13989064530E+02  0.25934098957E+02  0.00000000000E+00 0. -1.
</event>
<event>
 7    1  0.1284777E-011  0.5930195E+02  0.7816164E-02  0.1266605E+00
        -11   -1    0    0    0    0  0.00000000000E+00  0.00000000000E+00  0.45593999997E+02  0.45594000000E+02  0.51100000000E-03 0. -1.
         11   -1    0    0    0    0 -0.00000000000E+00 -0.00000000000E+00 -0.45593999997E+02  0.45594000000E+02  0.51100000000E-03 0.  1.
    9900012    2    1    2    0    0 -0.23387973168E+02 -0.10808869728E+02 -0.18785402056E+02  0.59301948440E+02  0.50000008047E+02 0.  0.
        -12    1    1    2    0    0  0.23387973168E+02  0.10808869728E+02  0.18785402056E+02  0.31886051560E+02  0.00000000000E+00 0.  1.
         11    1    3    3    0    0 -0.15263970586E+02 -0.19608513626E+02 -0.84121253845E+01  0.26234451746E+02  0.51100000000E-03 0. -1.
        -11    1    3    3    0    0  0.93321823981E+01  0.25508132795E+01 -0.10828767981E+02  0.14520967356E+02  0.51100000000E-03 0.  1.
         12    1    3    3    0    0 -0.17456184980E+02  0.62488306186E+01  0.45549130974E+00  0.18546529338E+02  0.00000000000E+00 0. -1.
</event>
<event>
 7    1  0.1284777E-011  0.5930193E+02  0.7816164E-02  0.1266605E+00
        -11   -1    0    0    0    0  0.00000000000E+00  0.00000000000E+00  0.45593999997E+02  0.45594000000E+02  0.51100000000E-03 0.  1.
         11   -1    0    0    0    0 -0.00000000000E+00 -0.00000000000E+00 -0.45593999997E+02  0.45594000000E+02  0.51100000000E-03 0. -1.
    9900012    2    1    2    0    0  0.77832104186E+01 -0.13625684398E+02 -0.27757586640E+02  0.59301933202E+02  0.49999980257E+02 0.  0.
        -12    1    1    2    0    0 -0.77832104186E+01  0.13625684398E+02  0.27757586640E+02  0.31886066798E+02  0.00000000000E+00 0.  1.
         11    1    3    3    0    0  0.11156118608E+02 -0.12447382923E+02  0.65926920020E+01  0.17968302984E+02  0.51100000000E-03 0.  1.
        -11    1    3    3    0    0 -0.10016778477E+02 -0.77732222281E+01 -0.13735292455E+02  0.18692701623E+02  0.51100000000E-03 0. -1.
        -12    1    3    3    0    0  0.66438702877E+01  0.65949207536E+01 -0.20614986187E+02  0.22640928595E+02  0.00000000000E+00 0.  1.
</event>
<event>
 7    1  0.1284777E-011  0.5930195E+02  0.7816164E-02  0.1266605E+00
        -11   -1    0    0    0    0  0.00000000000E+00  0.00000000000E+00  0.45593999997E+02  0.45594000000E+02  0.51100000000E-03 0. -1.
         11   -1    0    0    0    0 -0.00000000000E+00 -0.00000000000E+00 -0.45593999997E+02  0.45594000000E+02  0.51100000000E-03 0.  1.
    9900012    2    1    2    0    0  0.22794613801E+02 -0.17072365973E+01 -0.22230853468E+02  0.59301954133E+02  0.50000018429E+02 0.  0.
        -12    1    1    2    0    0 -0.22794613801E+02  0.17072365973E+01  0.22230853468E+02  0.31886045867E+02  0.00000000000E+00 0.  1.
         11    1    3    3    0    0  0.74481192557E+01 -0.11334968524E+02 -0.20443678279E+02  0.24533649825E+02  0.51100000000E-03 0. -1.
        -11    1    3    3    0    0 -0.68934345063E+00 -0.88362708127E+01 -0.48805260141E+01  0.10118024051E+02  0.51100000000E-03 0.  1.
         12    1    3    3    0    0  0.16035837996E+02  0.18464002740E+02  0.30933508247E+01  0.24650280257E+02  0.00000000000E+00 0. -1.
</event>
<event>
 7    1  0.1284777E-011  0.5930196E+02  0.7816164E-02  0.1266605E+00
        -11   -1    0    0    0    0  0.00000000000E+00  0.00000000000E+00  0.45593999997E+02  0.45594000000E+02  0.51100000000E-03 0.  1.
         11   -1    0    0    0    0 -0.00000000000E+00 -0.00000000000E+00 -0.45593999997E+02  0.45594000000E+02  0.51100000000E-03 0. -1.
    9900012    2    1    2    0    0 -0.43773495514E+01  0.14725783043E+01 -0.31549795083E+02  0.59301964722E+02  0.50000037742E+02 0.  0.
        -12    1    1    2    0    0  0.43773495514E+01 -0.14725783043E+01  0.31549795083E+02  0.31886035278E+02  0.00000000000E+00 0.  1.
         11    1    3    3    0    0 -0.61302187033E+01 -0.32604450821E+01 -0.69848545129E+00  0.69783927713E+01  0.51100000000E-03 0. -1.
        -11    1    3    3    0    0  0.27814259016E+01  0.21866637757E+02 -0.73794174545E+01  0.23245257131E+02  0.51100000000E-03 0.  1.
         12    1    3    3    0    0 -0.10285567498E+01 -0.17133614371E+02 -0.23471892177E+02  0.29078314820E+02  0.00000000000E+00 0. -1.
</event>
<event>
 7    1  0.1284777E-011  0.5930207E+02  0.7816164E-02  0.1266604E+00
        -11   -1    0    0    0    0  0.00000000000E+00  0.00000000000E+00  0.45593999997E+02  0.45594000000E+02  0.51100000000E-03 0.  1.
         11   -1    0    0    0    0 -0.00000000000E+00 -0.00000000000E+00 -0.45593999997E+02  0.45594000000E+02  0.51100000000E-03 0. -1.
    9900012    2    1    2    0    0  0.13517745556E+02  0.24668030170E+02 -0.15015708116E+02  0.59302068187E+02  0.50000226436E+02 0.  0.
        -12    1    1    2    0    0 -0.13517745556E+02 -0.24668030170E+02  0.15015708116E+02  0.31885931813E+02  0.00000000000E+00 0.  1.
         11    1    3    3    0    0  0.68727112801E+01  0.59085661127E+01  0.49801990316E+01  0.10341551939E+02  0.51100000000E-03 0. -1.
        -11    1    3    3    0    0 -0.16945110047E+02  0.86141322751E+01 -0.87836459012E+01  0.20940211674E+02  0.51100000000E-03 0.  1.
         12    1    3    3    0    0  0.23590144324E+02  0.10145331782E+02 -0.11212261246E+02  0.28020304574E+02  0.00000000000E+00 0. -1.
</event>
<event>
 7    1  0.1284777E-011  0.5930190E+02  0.7816164E-02  0.1266605E+00
        -11   -1    0    0    0    0  0.00000000000E+00  0.00000000000E+00  0.45593999997E+02  0.45594000000E+02  0.51100000000E-03 0.  1.
         11   -1    0    0    0    0 -0.00000000000E+00 -0.00000000000E+00 -0.45593999997E+02  0.45594000000E+02  0.51100000000E-03 0. -1.
    9900012    2    1    2    0    0  0.22308162260E+02 -0.22243631309E+02  0.49284998413E+01  0.59301900397E+02  0.49999920427E+02 0.  0.
        -12    1    1    2    0    0 -0.22308162260E+02  0.22243631309E+02 -0.49284998413E+01  0.31886099603E+02  0.00000000000E+00 0.  1.
         11    1    3    3    0    0 -0.10319156955E+02  0.24548915933E+01  0.16047081508E+01  0.10727841419E+02  0.51100000000E-03 0. -1.
        -11    1    3    3    0    0  0.58260285766E+01 -0.15785476194E+02  0.99698614749E+01  0.19558169795E+02  0.51100000000E-03 0.  1.
         12    1    3    3    0    0  0.26801290639E+02 -0.89130467082E+01 -0.66460697844E+01  0.29015889183E+02  0.00000000000E+00 0. -1.
</event>
<event>
 7    1  0.1284777E-011  0.5930195E+02  0.7816164E-02  0.1266605E+00
        -11   -1    0    0    0    0  0.00000000000E+00  0.00000000000E+00  0.45593999997E+02  0.45594000000E+02  0.51100000000E-03 0.  1.
         11   -1    0    0    0    0 -0.00000000000E+00 -0.00000000000E+00 -0.45593999997E+02  0.45594000000E+02  0.51100000000E-03 0. -1.
    9900012    2    1    2    0    0  0.16083052216E+02  0.16333167278E+02 -0.22164907061E+02  0.59301952473E+02  0.50000015401E+02 0.  0.
        -12    1    1    2    0    0 -0.16083052216E+02 -0.16333167278E+02  0.22164907061E+02  0.31886047527E+02  0.00000000000E+00 0.  1.
         11    1    3    3    0    0 -0.86450533249E+01 -0.35313820059E+01  0.11271658313E+01  0.94062802921E+01  0.51100000000E-03 0.  1.
        -11    1    3    3    0    0  0.16162943086E+02  0.61441651920E+01  0.43852425746E+01  0.17838773720E+02  0.51100000000E-03 0. -1.
         12    1    3    3    0    0  0.85651624548E+01  0.13720384091E+02 -0.27677315467E+02  0.32056898461E+02  0.00000000000E+00 0. -1.
</event>
<event>
 7    1  0.1284777E-011  0.5930195E+02  0.7816164E-02  0.1266605E+00
        -11   -1    0    0    0    0  0.00000000000E+00  0.00000000000E+00  0.45593999997E+02  0.45594000000E+02  0.51100000000E-03 0. -1.
         11   -1    0    0    0    0 -0.00000000000E+00 -0.00000000000E+00 -0.45593999997E+02  0.45594000000E+02  0.51100000000E-03 0.  1.
    9900012    2    1    2    0    0 -0.12517743036E+02 -0.22353646798E+02  0.18982645374E+02  0.59301949112E+02  0.50000009272E+02 0.  0.
        -12    1    1    2    0    0  0.12517743036E+02  0.22353646798E+02 -0.18982645374E+02  0.31886050888E+02  0.00000000000E+00 0.  1.
         11    1    3    3    0    0 -0.12126820932E+02 -0.35242520253E+00  0.23006572353E+02  0.26009351417E+02  0.51100000000E-03 0. -1.
        -11    1    3    3    0    0  0.56715209355E+01 -0.49159006670E+01  0.84383603949E+01  0.11293279218E+02  0.51100000000E-03 0.  1.
        -12    1    3    3    0    0 -0.60624430401E+01 -0.17085320928E+02 -0.12462287374E+02  0.21999318476E+02  0.00000000000E+00 0.  1.
</event>
<event>
 7    1  0.1284777E-011  0.5930193E+02  0.7816164E-02  0.1266605E+00
        -11   -1    0    0    0    0  0.00000000000E+00  0.00000000000E+00  0.45593999997E+02  0.45594000000E+02  0.51100000000E-03 0.  1.
         11   -1    0    0    0    0 -0.00000000000E+00 -0.00000000000E+00 -0.45593999997E+02  0.45594000000E+02  0.51100000000E-03 0. -1.
    9900012    2    1    2    0    0  0.27468306586E+02 -0.51711083016E+01 -0.15345133395E+02  0.59301931778E+02  0.49999977659E+02 0.  0.
        -12    1    1    2    0    0 -0.27468306586E+02  0.51711083016E+01  0.15345133395E+02  0.31886068222E+02  0.00000000000E+00 0.  1.
         11    1    3    3    0    0 -0.36867307118E+01  0.30947990349E+01 -0.54543640519E+01  0.72746032112E+01  0.51100000000E-03 0. -1.
        -11    1    3    3    0    0  0.25129531483E+02  0.86664135087E+01  0.68666794497E+01  0.27454532642E+02  0.51100000000E-03 0.  1.
         12    1    3    3    0    0  0.60255058144E+01 -0.16932320845E+02 -0.16757448793E+02  0.24572795925E+02  0.00000000000E+00 0. -1.
</event>
<event>
 7    1  0.1284777E-011  0.5930189E+02  0.7816164E-02  0.1266605E+00
        -11   -1    0    0    0    0  0.00000000000E+00  0.00000000000E+00  0.45593999997E+02  0.45594000000E+02  0.51100000000E-03 0.  1.
         11   -1    0    0    0    0 -0.00000000000E+00 -0.00000000000E+00 -0.45593999997E+02  0.45594000000E+02  0.51100000000E-03 0. -1.
    9900012    2    1    2    0    0 -0.17364394127E+02  0.83748909670E+01  0.25398088674E+02  0.59301891890E+02  0.49999904914E+02 0.  0.
        -12    1    1    2    0    0  0.17364394127E+02 -0.83748909670E+01 -0.25398088674E+02  0.31886108110E+02  0.00000000000E+00 0.  1.
         11    1    3    3    0    0  0.43510720541E+01 -0.14378292257E+01 -0.79812778502E+01  0.92032590578E+01  0.51100000000E-03 0. -1.
        -11    1    3    3    0    0  0.15696318366E+01 -0.74572769843E+01  0.32437142679E+01  0.82822947687E+01  0.51100000000E-03 0.  1.
         12    1    3    3    0    0 -0.23285098018E+02  0.17269997177E+02  0.30135652256E+02  0.41816338064E+02  0.00000000000E+00 0. -1.
</event>
<event>
 7    1  0.1284777E-011  0.5930196E+02  0.7816164E-02  0.1266605E+00
        -11   -1    0    0    0    0  0.00000000000E+00  0.00000000000E+00  0.45593999997E+02  0.45594000000E+02  0.51100000000E-03 0.  1.
         11   -1    0    0    0    0 -0.00000000000E+00 -0.00000000000E+00 -0.45593999997E+02  0.45594000000E+02  0.51100000000E-03 0. -1.
    9900012    2    1    2    0    0  0.20770447461E+02  0.21074048030E+02  0.11882455903E+02  0.59301956871E+02  0.50000023423E+02 0.  0.
        -12    1    1    2    0    0 -0.20770447461E+02 -0.21074048030E+02 -0.11882455903E+02  0.31886043129E+02  0.00000000000E+00 0.  1.
         11    1    3    3    0    0  0.11937366331E+02  0.68527886906E+01  0.24016730074E+01  0.13972453659E+02  0.51100000000E-03 0. -1.
        -11    1    3    3    0    0  0.10507219932E+02 -0.11697227967E+02  0.11193165653E+02  0.19300615804E+02  0.51100000000E-03 0.  1.
         12    1    3    3    0    0 -0.16741388009E+01  0.25918487307E+02 -0.17123827574E+01  0.26028887409E+02  0.00000000000E+00 0. -1.
</event>
<event>
 7    1  0.1284777E-011  0.5930194E+02  0.7816164E-02  0.1266605E+00
        -11   -1    0    0    0    0  0.00000000000E+00  0.00000000000E+00  0.45593999997E+02  0.45594000000E+02  0.51100000000E-03 0.  1.
         11   -1    0    0    0    0 -0.00000000000E+00 -0.00000000000E+00 -0.45593999997E+02  0.45594000000E+02  0.51100000000E-03 0. -1.
    9900012    2    1    2    0    0  0.11949069561E+02 -0.28977181330E+02 -0.58534992934E+01  0.59301941053E+02  0.49999994574E+02 0.  0.
        -12    1    1    2    0    0 -0.11949069561E+02  0.28977181330E+02  0.58534992934E+01  0.31886058947E+02  0.00000000000E+00 0.  1.
         11    1    3    3    0    0  0.19018760142E+02  0.27093890575E+00 -0.90433258231E+01  0.21061063302E+02  0.51100000000E-03 0. -1.
        -11    1    3    3    0    0  0.54492859197E+01 -0.45971494695E+01  0.73986566329E+01  0.10274659143E+02  0.51100000000E-03 0.  1.
         12    1    3    3    0    0 -0.12518976500E+02 -0.24650970766E+02 -0.42088301031E+01  0.27966218607E+02  0.00000000000E+00 0. -1.
</event>
<event>
 7    1  0.1284777E-011  0.5930195E+02  0.7816164E-02  0.1266605E+00
        -11   -1    0    0    0    0  0.00000000000E+00  0.00000000000E+00  0.45593999997E+02  0.45594000000E+02  0.51100000000E-03 0. -1.
         11   -1    0    0    0    0 -0.00000000000E+00 -0.00000000000E+00 -0.45593999997E+02  0.45594000000E+02  0.51100000000E-03 0.  1.
    9900012    2    1    2    0    0 -0.68210832330E-01 -0.11371637952E+02  0.29789287741E+02  0.59301945579E+02  0.50000002828E+02 0.  0.
        -12    1    1    2    0    0  0.68210832330E-01  0.11371637952E+02 -0.29789287741E+02  0.31886054421E+02  0.00000000000E+00 0.  1.
         11    1    3    3    0    0 -0.14037240430E+02  0.56397764510E+01  0.21515943566E+02  0.26301844518E+02  0.51100000000E-03 0. -1.
        -11    1    3    3    0    0  0.11817061758E+02 -0.12666665664E+02  0.16193832399E+02  0.23713447148E+02  0.51100000000E-03 0.  1.
        -12    1    3    3    0    0  0.21519678396E+01 -0.43447487391E+01 -0.79204882229E+01  0.92866539118E+01  0.00000000000E+00 0.  1.
</event>
<event>
 7    1  0.1284777E-011  0.5930195E+02  0.7816164E-02  0.1266605E+00
        -11   -1    0    0    0    0  0.00000000000E+00  0.00000000000E+00  0.45593999997E+02  0.45594000000E+02  0.51100000000E-03 0.  1.
         11   -1    0    0    0    0 -0.00000000000E+00 -0.00000000000E+00 -0.45593999997E+02  0.45594000000E+02  0.51100000000E-03 0. -1.
    9900012    2    1    2    0    0  0.24631988315E+02  0.18295294559E+02 -0.86756729164E+01  0.59301953649E+02  0.50000017546E+02 0.  0.
        -12    1    1    2    0    0 -0.24631988315E+02 -0.18295294559E+02  0.86756729164E+01  0.31886046351E+02  0.00000000000E+00 0.  1.
         11    1    3    3    0    0  0.38752166723E+01  0.17642259382E+02 -0.11985403256E+02  0.21677557792E+02  0.51100000000E-03 0. -1.
        -11    1    3    3    0    0 -0.12534441556E+01  0.11079988002E+02  0.67392848133E+01  0.13029014408E+02  0.51100000000E-03 0.  1.
         12    1    3    3    0    0  0.22010215799E+02 -0.10426952825E+02 -0.34295544732E+01  0.24595381449E+02  0.00000000000E+00 0. -1.
</event>
<event>
 7    1  0.1284777E-011  0.5930190E+02  0.7816164E-02  0.1266605E+00
        -11   -1    0    0    0    0  0.00000000000E+00  0.00000000000E+00  0.45593999997E+02  0.45594000000E+02  0.51100000000E-03 0.  1.
         11   -1    0    0    0    0 -0.00000000000E+00 -0.00000000000E+00 -0.45593999997E+02  0.45594000000E+02  0.51100000000E-03 0. -1.
    9900012    2    1    2    0    0  0.30986869148E+01 -0.20443477735E+02 -0.24273144249E+02  0.59301903120E+02  0.49999925394E+02 0.  0.
        -12    1    1    2    0    0 -0.30986869148E+01  0.20443477735E+02  0.24273144249E+02  0.31886096880E+02  0.00000000000E+00 0.  1.
         11    1    3    3    0    0  0.15382667771E+02 -0.11196117664E+02 -0.11201974422E+02  0.22078581243E+02  0.51100000000E-03 0. -1.
        -11    1    3    3    0    0 -0.53763056180E+01 -0.14537445233E+02  0.57152968064E+01  0.16519884801E+02  0.51100000000E-03 0.  1.
         12    1    3    3    0    0 -0.69076752379E+01  0.52900851614E+01 -0.18786466633E+02  0.20703437076E+02  0.00000000000E+00 0. -1.
</event>
<event>
 7    1  0.1284777E-011  0.5930193E+02  0.7816164E-02  0.1266605E+00
        -11   -1    0    0    0    0  0.00000000000E+00  0.00000000000E+00  0.45593999997E+02  0.45594000000E+02  0.51100000000E-03 0.  1.
         11   -1    0    0    0    0 -0.00000000000E+00 -0.00000000000E+00 -0.45593999997E+02  0.45594000000E+02  0.51100000000E-03 0. -1.
    9900012    2    1    2    0    0  0.14432967146E+02 -0.91650777618E+01 -0.26914902214E+02  0.59301934827E+02  0.49999983220E+02 0.  0.
        -12    1    1    2    0    0 -0.14432967146E+02  0.91650777618E+01  0.26914902214E+02  0.31886065173E+02  0.00000000000E+00 0.  1.
         11    1    3    3    0    0  0.48119830206E+01 -0.13074505468E+02 -0.22874729427E+02  0.26783411292E+02  0.51100000000E-03 0. -1.
        -11    1    3    3    0    0 -0.75215453521E+01  0.32163850642E+01 -0.11249057537E+02  0.13908992526E+02  0.51100000000E-03 0.  1.
         12    1    3    3    0    0  0.17142529478E+02  0.69304264213E+00  0.72088847505E+01  0.18609531008E+02  0.00000000000E+00 0. -1.
</event>
<event>
 7    1  0.1284777E-011  0.5930197E+02  0.7816164E-02  0.1266605E+00
        -11   -1    0    0    0    0  0.00000000000E+00  0.00000000000E+00  0.45593999997E+02  0.45594000000E+02  0.51100000000E-03 0. -1.
         11   -1    0    0    0    0 -0.00000000000E+00 -0.00000000000E+00 -0.45593999997E+02  0.45594000000E+02  0.51100000000E-03 0.  1.
    9900012    2    1    2    0    0 -0.11515716031E+02 -0.29728920050E+02 -0.54657744395E+00  0.59301966224E+02  0.50000040481E+02 0.  0.
        -12    1    1    2    0    0  0.11515716031E+02  0.29728920050E+02  0.54657744395E+00  0.31886033776E+02  0.00000000000E+00 0.  1.
         11    1    3    3    0    0  0.87670493767E+01 -0.12526860280E+02 -0.86172184018E+00  0.15314240041E+02  0.51100000000E-03 0.  1.
        -11    1    3    3    0    0 -0.26737350733E+01 -0.24234726366E+02 -0.35427038807E+01  0.24637807783E+02  0.51100000000E-03 0. -1.
        -12    1    3    3    0    0 -0.17609030335E+02  0.70326665960E+01  0.38578482769E+01  0.19349918400E+02  0.00000000000E+00 0.  1.
</event>
<event>
 7    1  0.1284777E-011  0.5930195E+02  0.7816164E-02  0.1266605E+00
        -11   -1    0    0    0    0  0.00000000000E+00  0.00000000000E+00  0.45593999997E+02  0.45594000000E+02  0.51100000000E-03 0.  1.
         11   -1    0    0    0    0 -0.00000000000E+00 -0.00000000000E+00 -0.45593999997E+02  0.45594000000E+02  0.51100000000E-03 0. -1.
    9900012    2    1    2    0    0 -0.86151271458E+01 -0.88367145728E+01 -0.29400888938E+02  0.59301949593E+02  0.50000010151E+02 0.  0.
        -12    1    1    2    0    0  0.86151271458E+01  0.88367145728E+01  0.29400888938E+02  0.31886050407E+02  0.00000000000E+00 0.  1.
         11    1    3    3    0    0 -0.48029770571E+01  0.54728918657E+00 -0.11336416133E+02  0.12324059602E+02  0.51100000000E-03 0. -1.
        -11    1    3    3    0    0 -0.18116567830E+02 -0.83451586864E+01 -0.24215316528E+02  0.31372492063E+02  0.51100000000E-03 0.  1.
        -12    1    3    3    0    0  0.14304417741E+02 -0.10388450730E+01  0.61508437229E+01  0.15605397929E+02  0.00000000000E+00 0.  1.
</event>
<event>
 7    1  0.1384126E-011  0.5930196E+02  0.7816164E-02  0.1266605E+00
        -11   -1    0    0    0    0  0.00000000000E+00  0.00000000000E+00  0.45593999997E+02  0.45594000000E+02  0.51100000000E-03 0.  1.
         11   -1    0    0    0    0 -0.00000000000E+00 -0.00000000000E+00 -0.45593999997E+02  0.45594000000E+02  0.51100000000E-03 0. -1.
    9900012    2    1    2    0    0 -0.26082926376E+02  0.13497112928E+02 -0.12418880916E+02  0.59301957458E+02  0.50000024494E+02 0.  0.
        -12    1    1    2    0    0  0.26082926376E+02 -0.13497112928E+02  0.12418880916E+02  0.31886042542E+02  0.00000000000E+00 0.  1.
         11    1    3    3    0    0 -0.34020838142E+01  0.11552024086E+02  0.89570383098E+01  0.15008396660E+02  0.51100000000E-03 0. -1.
        -11    1    3    3    0    0 -0.78826877933E+01 -0.12641616893E+02 -0.60002189124E+00  0.14909972201E+02  0.51100000000E-03 0.  1.
         12    1    3    3    0    0 -0.14798154769E+02  0.14586705736E+02 -0.20775897335E+02  0.29383588597E+02  0.00000000000E+00 0. -1.
</event>
<event>
 7    1  0.1284777E-011  0.5930194E+02  0.7816164E-02  0.1266605E+00
        -11   -1    0    0    0    0  0.00000000000E+00  0.00000000000E+00  0.45593999997E+02  0.45594000000E+02  0.51100000000E-03 0. -1.
         11   -1    0    0    0    0 -0.00000000000E+00 -0.00000000000E+00 -0.45593999997E+02  0.45594000000E+02  0.51100000000E-03 0.  1.
    9900012    2    1    2    0    0  0.20612633795E+02  0.16317013305E+02  0.18044258431E+02  0.59301939448E+02  0.49999991648E+02 0.  0.
        -12    1    1    2    0    0 -0.20612633795E+02 -0.16317013305E+02 -0.18044258431E+02  0.31886060552E+02  0.00000000000E+00 0.  1.
         11    1    3    3    0    0  0.22837260617E+02  0.50808231211E+01  0.37018712333E+01  0.23686685858E+02  0.51100000000E-03 0. -1.
        -11    1    3    3    0    0  0.13470107375E+02  0.47512873108E+00  0.46385807261E+01  0.14254331673E+02  0.51100000000E-03 0.  1.
        -12    1    3    3    0    0 -0.15694734197E+02  0.10761061453E+02  0.97038064717E+01  0.21360921917E+02  0.00000000000E+00 0.  1.
</event>
<event>
 7    1  0.1284777E-011  0.5930194E+02  0.7816164E-02  0.1266605E+00
        -11   -1    0    0    0    0  0.00000000000E+00  0.00000000000E+00  0.45593999997E+02  0.45594000000E+02  0.51100000000E-03 0.  1.
         11   -1    0    0    0    0 -0.00000000000E+00 -0.00000000000E+00 -0.45593999997E+02  0.45594000000E+02  0.51100000000E-03 0. -1.
    9900012    2    1    2    0    0  0.42266349095E+01  0.29405090834E+02 -0.11584334639E+02  0.59301943194E+02  0.49999998480E+02 0.  0.
        -12    1    1    2    0    0 -0.42266349095E+01 -0.29405090834E+02  0.11584334639E+02  0.31886056806E+02  0.00000000000E+00 0.  1.
         11    1    3    3    0    0 -0.17202958720E+01  0.59328576133E+00 -0.16361959367E+02  0.16462840595E+02  0.51100000000E-03 0. -1.
        -11    1    3    3    0    0 -0.10574284090E+02  0.16067643650E+01  0.20825867063E+01  0.10896528960E+02  0.51100000000E-03 0.  1.
         12    1    3    3    0    0  0.16521214871E+02  0.27205040707E+02  0.26950380217E+01  0.31942573638E+02  0.00000000000E+00 0. -1.
</event>
<event>
 7    1  0.1284777E-011  0.5930193E+02  0.7816164E-02  0.1266605E+00
        -11   -1    0    0    0    0  0.00000000000E+00  0.00000000000E+00  0.45593999997E+02  0.45594000000E+02  0.51100000000E-03 0. -1.
         11   -1    0    0    0    0 -0.00000000000E+00 -0.00000000000E+00 -0.45593999997E+02  0.45594000000E+02  0.51100000000E-03 0.  1.
    9900012    2    1    2    0    0 -0.31616124047E+02  0.46846148905E+00  0.41137219011E+01  0.59301929942E+02  0.49999974310E+02 0.  0.
        -12    1    1    2    0    0  0.31616124047E+02 -0.46846148905E+00 -0.41137219011E+01  0.31886070058E+02  0.00000000000E+00 0.  1.
         11    1    3    3    0    0  0.73458547167E+01 -0.22304795568E+01  0.48713355676E-02  0.76770205525E+01  0.51100000000E-03 0.  1.
        -11    1    3    3    0    0 -0.14908228279E+02 -0.80128009462E+01 -0.12008723956E+02  0.20752582990E+02  0.51100000000E-03 0. -1.
         12    1    3    3    0    0 -0.24053750484E+02  0.10711741992E+02  0.16117574522E+02  0.30872326399E+02  0.00000000000E+00 0. -1.
</event>
<event>
 7    1  0.1284777E-011  0.5930200E+02  0.7816164E-02  0.1266605E+00
        -11   -1    0    0    0    0  0.00000000000E+00  0.00000000000E+00  0.45593999997E+02  0.45594000000E+02  0.51100000000E-03 0.  1.
         11   -1    0    0    0    0 -0.00000000000E+00 -0.00000000000E+00 -0.45593999997E+02  0.45594000000E+02  0.51100000000E-03 0. -1.
    9900012    2    1    2    0    0  0.24961917580E+02 -0.17571425164E+02 -0.92121908731E+01  0.59302003509E+02  0.50000108480E+02 0.  0.
        -12    1    1    2    0    0 -0.24961917580E+02  0.17571425164E+02  0.92121908731E+01  0.31885996491E+02  0.00000000000E+00 0.  1.
         11    1    3    3    0    0  0.17897097035E+02 -0.37329790320E+01 -0.67086447524E+01  0.19474268392E+02  0.51100000000E-03 0. -1.
        -11    1    3    3    0    0  0.61516754899E+01  0.60462506232E+01  0.12298509821E+02  0.15021770934E+02  0.51100000000E-03 0.  1.
         12    1    3    3    0    0  0.91314505464E+00 -0.19884696755E+02 -0.14802055942E+02  0.24805964183E+02  0.00000000000E+00 0. -1.
</event>
<event>
 7    1  0.1284777E-011  0.5930195E+02  0.7816164E-02  0.1266605E+00
        -11   -1    0    0    0    0  0.00000000000E+00  0.00000000000E+00  0.45593999997E+02  0.45594000000E+02  0.51100000000E-03 0.  1.
         11   -1    0    0    0    0 -0.00000000000E+00 -0.00000000000E+00 -0.45593999997E+02  0.45594000000E+02  0.51100000000E-03 0. -1.
    9900012    2    1    2    0    0 -0.24633611832E+01 -0.53620231129E+01 -0.31335292597E+02  0.59301952858E+02  0.50000016105E+02 0.  0.
        -12    1    1    2    0    0  0.24633611832E+01  0.53620231129E+01  0.31335292597E+02  0.31886047142E+02  0.00000000000E+00 0.  1.
         11    1    3    3    0    0  0.58268859991E+01  0.26098431538E+01  0.36797337815E+01  0.73691466736E+01  0.51100000000E-03 0. -1.
        -11    1    3    3    0    0 -0.18388660732E+02  0.60371039736E+00 -0.49113049221E+01  0.19042799848E+02  0.51100000000E-03 0.  1.
         12    1    3    3    0    0  0.10098413549E+02 -0.85755766641E+01 -0.30103721456E+02  0.32890006337E+02  0.00000000000E+00 0. -1.
</event>
<event>
 7    1  0.1284777E-011  0.5930195E+02  0.7816164E-02  0.1266605E+00
        -11   -1    0    0    0    0  0.00000000000E+00  0.00000000000E+00  0.45593999997E+02  0.45594000000E+02  0.51100000000E-03 0. -1.
         11   -1    0    0    0    0 -0.00000000000E+00 -0.00000000000E+00 -0.45593999997E+02  0.45594000000E+02  0.51100000000E-03 0.  1.
    9900012    2    1    2    0    0  0.43959956077E+00 -0.31529944601E+02  0.47317306401E+01  0.59301954005E+02  0.50000018196E+02 0.  0.
        -12    1    1    2    0    0 -0.43959956077E+00  0.31529944601E+02 -0.47317306401E+01  0.31886045995E+02  0.00000000000E+00 0.  1.
         11    1    3    3    0    0 -0.88271197019E+01 -0.14213287948E+02  0.11861431355E+02  0.20509245490E+02  0.51100000000E-03 0. -1.
        -11    1    3    3    0    0  0.54356220448E+01 -0.18335085409E+02  0.97415193557E+01  0.21462025617E+02  0.51100000000E-03 0.  1.
        -12    1    3    3    0    0  0.38310972179E+01  0.10184287557E+01 -0.16871220071E+02  0.17330682898E+02  0.00000000000E+00 0.  1.
</event>
<event>
 7    1  0.1284777E-011  0.5930197E+02  0.7816164E-02  0.1266605E+00
        -11   -1    0    0    0    0  0.00000000000E+00  0.00000000000E+00  0.45593999997E+02  0.45594000000E+02  0.51100000000E-03 0.  1.
         11   -1    0    0    0    0 -0.00000000000E+00 -0.00000000000E+00 -0.45593999997E+02  0.45594000000E+02  0.51100000000E-03 0. -1.
    9900012    2    1    2    0    0 -0.20043857769E+02 -0.38231127907E+01 -0.24501971562E+02  0.59301968009E+02  0.50000043737E+02 0.  0.
        -12    1    1    2    0    0  0.20043857769E+02  0.38231127907E+01  0.24501971562E+02  0.31886031991E+02  0.00000000000E+00 0.  1.
         11    1    3    3    0    0 -0.70676830404E-01 -0.77552144047E+01 -0.26892340802E+01  0.82085519963E+01  0.51100000000E-03 0. -1.
        -11    1    3    3    0    0 -0.18824696574E+02 -0.53997041794E+01  0.69907901864E+01  0.20794161536E+02  0.51100000000E-03 0.  1.
        -12    1    3    3    0    0 -0.11484843653E+01  0.93318057934E+01 -0.28803527668E+02  0.30299254477E+02  0.00000000000E+00 0.  1.
</event>
<event>
 7    1  0.1284777E-011  0.5930194E+02  0.7816164E-02  0.1266605E+00
        -11   -1    0    0    0    0  0.00000000000E+00  0.00000000000E+00  0.45593999997E+02  0.45594000000E+02  0.51100000000E-03 0.  1.
         11   -1    0    0    0    0 -0.00000000000E+00 -0.00000000000E+00 -0.45593999997E+02  0.45594000000E+02  0.51100000000E-03 0. -1.
    9900012    2    1    2    0    0 -0.24466421291E+02 -0.12516957058E+02 -0.16169133779E+02  0.59301939221E+02  0.49999991234E+02 0.  0.
        -12    1    1    2    0    0  0.24466421291E+02  0.12516957058E+02  0.16169133779E+02  0.31886060779E+02  0.00000000000E+00 0.  1.
         11    1    3    3    0    0 -0.18215636243E+02  0.23709160649E+01 -0.28836247984E+02  0.34190054764E+02  0.51100000000E-03 0. -1.
        -11    1    3    3    0    0  0.51792171248E-01 -0.12592377651E+01 -0.30954413916E+01  0.33421729231E+01  0.51100000000E-03 0.  1.
         12    1    3    3    0    0 -0.63025772197E+01 -0.13628635358E+02  0.15762555597E+02  0.21769711534E+02  0.00000000000E+00 0. -1.
</event>
<event>
 7    1  0.1284777E-011  0.5930196E+02  0.7816164E-02  0.1266605E+00
        -11   -1    0    0    0    0  0.00000000000E+00  0.00000000000E+00  0.45593999997E+02  0.45594000000E+02  0.51100000000E-03 0. -1.
         11   -1    0    0    0    0 -0.00000000000E+00 -0.00000000000E+00 -0.45593999997E+02  0.45594000000E+02  0.51100000000E-03 0.  1.
    9900012    2    1    2    0    0 -0.40993119492E+01  0.31229326409E+02  0.49643051992E+01  0.59301960539E+02  0.50000030112E+02 0.  0.
        -12    1    1    2    0    0  0.40993119492E+01 -0.31229326409E+02 -0.49643051992E+01  0.31886039461E+02  0.00000000000E+00 0.  1.
         11    1    3    3    0    0  0.59065676440E+00  0.13023054114E+02 -0.95633379745E+01  0.16168062573E+02  0.51100000000E-03 0. -1.
        -11    1    3    3    0    0  0.76367953085E+01  0.20400910487E+02 -0.25781456284E+01  0.21935465038E+02  0.51100000000E-03 0.  1.
         12    1    3    3    0    0 -0.12326764022E+02 -0.21946381927E+01  0.17105788802E+02  0.21198432928E+02  0.00000000000E+00 0. -1.
</event>
<event>
 7    1  0.1284777E-011  0.5930192E+02  0.7816164E-02  0.1266605E+00
        -11   -1    0    0    0    0  0.00000000000E+00  0.00000000000E+00  0.45593999997E+02  0.45594000000E+02  0.51100000000E-03 0. -1.
         11   -1    0    0    0    0 -0.00000000000E+00 -0.00000000000E+00 -0.45593999997E+02  0.45594000000E+02  0.51100000000E-03 0.  1.
    9900012    2    1    2    0    0  0.86713430146E+01  0.28785043981E+02  0.10627838370E+02  0.59301923178E+02  0.49999961975E+02 0.  0.
        -12    1    1    2    0    0 -0.86713430146E+01 -0.28785043981E+02 -0.10627838370E+02  0.31886076822E+02  0.00000000000E+00 0.  1.
         11    1    3    3    0    0  0.11276072850E+01  0.29283255031E+02  0.12528902004E+02  0.31870894388E+02  0.51100000000E-03 0. -1.
        -11    1    3    3    0    0  0.11815808328E+02  0.95345839523E+01 -0.51832414621E+01  0.16043304208E+02  0.51100000000E-03 0.  1.
         12    1    3    3    0    0 -0.42720725987E+01 -0.10032795003E+02  0.32821778282E+01  0.11387724582E+02  0.00000000000E+00 0. -1.
</event>
<event>
 7    1  0.1284777E-011  0.5930193E+02  0.7816164E-02  0.1266605E+00
        -11   -1    0    0    0    0  0.00000000000E+00  0.00000000000E+00  0.45593999997E+02  0.45594000000E+02  0.51100000000E-03 0. -1.
         11   -1    0    0    0    0 -0.00000000000E+00 -0.00000000000E+00 -0.45593999997E+02  0.45594000000E+02  0.51100000000E-03 0.  1.
    9900012    2    1    2    0    0 -0.26619541086E+02  0.17541964170E+02 -0.63321087332E+00  0.59301930462E+02  0.49999975259E+02 0.  0.
        -12    1    1    2    0    0  0.26619541086E+02 -0.17541964170E+02  0.63321087332E+00  0.31886069538E+02  0.00000000000E+00 0.  1.
         11    1    3    3    0    0 -0.99472570046E+00  0.21835441044E+01 -0.12269595902E+02  0.12502012955E+02  0.51100000000E-03 0. -1.
        -11    1    3    3    0    0 -0.83880416860E+01 -0.97580548726E+01 -0.26759161526E+01  0.13143036397E+02  0.51100000000E-03 0.  1.
         12    1    3    3    0    0 -0.17236773700E+02  0.25116474938E+02  0.14312301181E+02  0.33656881109E+02  0.00000000000E+00 0. -1.
</event>
<event>
 7    1  0.1284777E-011  0.5930192E+02  0.7816164E-02  0.1266605E+00
        -11   -1    0    0    0    0  0.00000000000E+00  0.00000000000E+00  0.45593999997E+02  0.45594000000E+02  0.51100000000E-03 0.  1.
         11   -1    0    0    0    0 -0.00000000000E+00 -0.00000000000E+00 -0.45593999997E+02  0.45594000000E+02  0.51100000000E-03 0. -1.
    9900012    2    1    2    0    0  0.18419375598E+02 -0.26006189214E+02 -0.10616588291E+01  0.59301915350E+02  0.49999947699E+02 0.  0.
        -12    1    1    2    0    0 -0.18419375598E+02  0.26006189214E+02  0.10616588291E+01  0.31886084650E+02  0.00000000000E+00 0.  1.
         11    1    3    3    0    0  0.54118846309E+01 -0.25603487158E+02 -0.91811743508E+01  0.27733031076E+02  0.51100000000E-03 0. -1.
        -11    1    3    3    0    0  0.43608442681E+01 -0.13791338677E+02  0.25606494673E+01  0.14689278784E+02  0.51100000000E-03 0.  1.
        -12    1    3    3    0    0  0.86466466989E+01  0.13388636621E+02  0.55588660543E+01  0.16879605491E+02  0.00000000000E+00 0.  1.
</event>
<event>
 7    1  0.1284777E-011  0.5930194E+02  0.7816164E-02  0.1266605E+00
        -11   -1    0    0    0    0  0.00000000000E+00  0.00000000000E+00  0.45593999997E+02  0.45594000000E+02  0.51100000000E-03 0. -1.
         11   -1    0    0    0    0 -0.00000000000E+00 -0.00000000000E+00 -0.45593999997E+02  0.45594000000E+02  0.51100000000E-03 0.  1.
    9900012    2    1    2    0    0  0.85303090594E+00 -0.30912896443E+02  0.77708275284E+01  0.59301943663E+02  0.49999999335E+02 0.  0.
        -12    1    1    2    0    0 -0.85303090594E+00  0.30912896443E+02 -0.77708275284E+01  0.31886056337E+02  0.00000000000E+00 0.  1.
         11    1    3    3    0    0  0.80000974751E+01 -0.70957758551E+01  0.78105625333E+01  0.13242223452E+02  0.51100000000E-03 0. -1.
        -11    1    3    3    0    0  0.13708973190E+02 -0.20118067503E+02 -0.35073541413E+01  0.24596221647E+02  0.51100000000E-03 0.  1.
         12    1    3    3    0    0 -0.20856039759E+02 -0.36990530849E+01  0.34676191364E+01  0.21463498564E+02  0.00000000000E+00 0. -1.
</event>
<event>
 7    1  0.1284777E-011  0.5930194E+02  0.7816164E-02  0.1266605E+00
        -11   -1    0    0    0    0  0.00000000000E+00  0.00000000000E+00  0.45593999997E+02  0.45594000000E+02  0.51100000000E-03 0.  1.
         11   -1    0    0    0    0 -0.00000000000E+00 -0.00000000000E+00 -0.45593999997E+02  0.45594000000E+02  0.51100000000E-03 0. -1.
    9900012    2    1    2    0    0  0.23796368675E+02 -0.15588185746E+02 -0.14403546663E+02  0.59301939512E+02  0.49999991764E+02 0.  0.
        -12    1    1    2    0    0 -0.23796368675E+02  0.15588185746E+02  0.14403546663E+02  0.31886060488E+02  0.00000000000E+00 0.  1.
         11    1    3    3    0    0 -0.68126760279E+01 -0.21830576307E+01  0.64146010304E+00  0.71826016599E+01  0.51100000000E-03 0. -1.
        -11    1    3    3    0    0  0.18201130226E+02 -0.19357500029E+02  0.57475498997E+01  0.27185074562E+02  0.51100000000E-03 0.  1.
         12    1    3    3    0    0  0.12407914477E+02  0.59523719135E+01 -0.20792556666E+02  0.24934263289E+02  0.00000000000E+00 0. -1.
</event>
<event>
 7    1  0.1284777E-011  0.5930190E+02  0.7816164E-02  0.1266605E+00
        -11   -1    0    0    0    0  0.00000000000E+00  0.00000000000E+00  0.45593999997E+02  0.45594000000E+02  0.51100000000E-03 0.  1.
         11   -1    0    0    0    0 -0.00000000000E+00 -0.00000000000E+00 -0.45593999997E+02  0.45594000000E+02  0.51100000000E-03 0. -1.
    9900012    2    1    2    0    0 -0.41833993821E+01 -0.30968675866E+02  0.63374785721E+01  0.59301900365E+02  0.49999920370E+02 0.  0.
        -12    1    1    2    0    0  0.41833993821E+01  0.30968675866E+02 -0.63374785721E+01  0.31886099635E+02  0.00000000000E+00 0.  1.
         11    1    3    3    0    0 -0.41519453187E+01 -0.78271474118E+01  0.68603908874E+01  0.11205706132E+02  0.51100000000E-03 0. -1.
        -11    1    3    3    0    0 -0.13333355503E+01 -0.21317103592E+02  0.18914555296E+02  0.28529933256E+02  0.51100000000E-03 0.  1.
         12    1    3    3    0    0  0.13018814869E+01 -0.18244248617E+01 -0.19437467612E+02  0.19566260977E+02  0.00000000000E+00 0. -1.
</event>
<event>
 7    1  0.1284777E-011  0.5930193E+02  0.7816164E-02  0.1266605E+00
        -11   -1    0    0    0    0  0.00000000000E+00  0.00000000000E+00  0.45593999997E+02  0.45594000000E+02  0.51100000000E-03 0. -1.
         11   -1    0    0    0    0 -0.00000000000E+00 -0.00000000000E+00 -0.45593999997E+02  0.45594000000E+02  0.51100000000E-03 0.  1.
    9900012    2    1    2    0    0  0.31167255960E+02 -0.65084314523E+01  0.17216107208E+01  0.59301929883E+02  0.49999974203E+02 0.  0.
        -12    1    1    2    0    0 -0.31167255960E+02  0.65084314523E+01 -0.17216107208E+01  0.31886070117E+02  0.00000000000E+00 0.  1.
         11    1    3    3    0    0 -0.61336310984E+01 -0.14941319808E+01  0.72454536280E+01  0.96099146388E+01  0.51100000000E-03 0. -1.
        -11    1    3    3    0    0 -0.84640056788E+00  0.24924382539E+01  0.80830351428E+01  0.85008293567E+01  0.51100000000E-03 0.  1.
         12    1    3    3    0    0  0.38147287626E+02 -0.75067377253E+01 -0.13606878050E+02  0.41191185887E+02  0.00000000000E+00 0. -1.
</event>
<event>
 7    1  0.1284777E-011  0.5930193E+02  0.7816164E-02  0.1266605E+00
        -11   -1    0    0    0    0  0.00000000000E+00  0.00000000000E+00  0.45593999997E+02  0.45594000000E+02  0.51100000000E-03 0.  1.
         11   -1    0    0    0    0 -0.00000000000E+00 -0.00000000000E+00 -0.45593999997E+02  0.45594000000E+02  0.51100000000E-03 0. -1.
    9900012    2    1    2    0    0 -0.75060455703E+01 -0.18452286265E+02 -0.24897665220E+02  0.59301932166E+02  0.49999978367E+02 0.  0.
        -12    1    1    2    0    0  0.75060455703E+01  0.18452286265E+02  0.24897665220E+02  0.31886067834E+02  0.00000000000E+00 0.  1.
         11    1    3    3    0    0 -0.16694215290E+02  0.39637956834E+01 -0.20811977437E+02  0.26973077419E+02  0.51100000000E-03 0. -1.
        -11    1    3    3    0    0 -0.60730110200E+01 -0.26594976623E+01 -0.31671450349E+01  0.73474620515E+01  0.51100000000E-03 0.  1.
         12    1    3    3    0    0  0.15261180740E+02 -0.19756584286E+02 -0.91854274787E+00  0.24981392695E+02  0.00000000000E+00 0. -1.
</event>
<event>
 7    1  0.1284777E-011  0.5930233E+02  0.7816164E-02  0.1266603E+00
        -11   -1    0    0    0    0  0.00000000000E+00  0.00000000000E+00  0.45593999997E+02  0.45594000000E+02  0.51100000000E-03 0.  1.
         11   -1    0    0    0    0 -0.00000000000E+00 -0.00000000000E+00 -0.45593999997E+02  0.45594000000E+02  0.51100000000E-03 0. -1.
    9900012    2    1    2    0    0  0.24683694543E+02  0.23940276555E+01 -0.20041945670E+02  0.59302333456E+02  0.50000710219E+02 0.  0.
        -12    1    1    2    0    0 -0.24683694543E+02 -0.23940276555E+01  0.20041945670E+02  0.31885666544E+02  0.00000000000E+00 0.  1.
         11    1    3    3    0    0 -0.89885754468E+01  0.61838105434E+01 -0.30994855503E+01  0.11341993314E+02  0.51100000000E-03 0.  1.
        -11    1    3    3    0    0 -0.12728311604E+01  0.76656667698E+01 -0.84423846333E+00  0.78163472947E+01  0.51100000000E-03 0. -1.
        -12    1    3    3    0    0  0.34945101150E+02 -0.11455449658E+02 -0.16098221656E+02  0.40143992848E+02  0.00000000000E+00 0.  1.
</event>
<event>
 7    1  0.1284777E-011  0.5930197E+02  0.7816164E-02  0.1266605E+00
        -11   -1    0    0    0    0  0.00000000000E+00  0.00000000000E+00  0.45593999997E+02  0.45594000000E+02  0.51100000000E-03 0.  1.
         11   -1    0    0    0    0 -0.00000000000E+00 -0.00000000000E+00 -0.45593999997E+02  0.45594000000E+02  0.51100000000E-03 0. -1.
    9900012    2    1    2    0    0 -0.26300710003E+02  0.14898826501E+02 -0.10149691823E+02  0.59301974505E+02  0.50000055584E+02 0.  0.
        -12    1    1    2    0    0  0.26300710003E+02 -0.14898826501E+02  0.10149691823E+02  0.31886025495E+02  0.00000000000E+00 0.  1.
         11    1    3    3    0    0 -0.38666206298E+00  0.12890613399E+00 -0.91469527356E+01  0.91560291038E+01  0.51100000000E-03 0. -1.
        -11    1    3    3    0    0 -0.21319537821E+01  0.24189698335E+02 -0.30994784454E+01  0.24480471796E+02  0.51100000000E-03 0.  1.
        -12    1    3    3    0    0 -0.23782094158E+02 -0.94197779678E+01  0.20967393577E+01  0.25665473606E+02  0.00000000000E+00 0.  1.
</event>
<event>
 7    1  0.1284777E-011  0.5930195E+02  0.7816164E-02  0.1266605E+00
        -11   -1    0    0    0    0  0.00000000000E+00  0.00000000000E+00  0.45593999997E+02  0.45594000000E+02  0.51100000000E-03 0.  1.
         11   -1    0    0    0    0 -0.00000000000E+00 -0.00000000000E+00 -0.45593999997E+02  0.45594000000E+02  0.51100000000E-03 0. -1.
    9900012    2    1    2    0    0  0.26278069433E+02  0.18023732039E+02  0.11526481558E+01  0.59301945877E+02  0.50000003373E+02 0.  0.
        -12    1    1    2    0    0 -0.26278069433E+02 -0.18023732039E+02 -0.11526481558E+01  0.31886054123E+02  0.00000000000E+00 0.  1.
         11    1    3    3    0    0  0.20020683209E+02  0.11116537800E+02 -0.22842538824E+02  0.32344810233E+02  0.51100000000E-03 0. -1.
        -11    1    3    3    0    0  0.56507062968E+01  0.11902569360E+01  0.73505349065E+01  0.93475963166E+01  0.51100000000E-03 0.  1.
        -12    1    3    3    0    0  0.60667992752E+00  0.57169373031E+01  0.16644652074E+02  0.17609539327E+02  0.00000000000E+00 0.  1.
</event>
<event>
 7    1  0.1284777E-011  0.5930195E+02  0.7816164E-02  0.1266605E+00
        -11   -1    0    0    0    0  0.00000000000E+00  0.00000000000E+00  0.45593999997E+02  0.45594000000E+02  0.51100000000E-03 0.  1.
         11   -1    0    0    0    0 -0.00000000000E+00 -0.00000000000E+00 -0.45593999997E+02  0.45594000000E+02  0.51100000000E-03 0. -1.
    9900012    2    1    2    0    0  0.27815039078E+02 -0.12594079318E+02 -0.91887270511E+01  0.59301953873E+02  0.50000017956E+02 0.  0.
        -12    1    1    2    0    0 -0.27815039078E+02  0.12594079318E+02  0.91887270511E+01  0.31886046127E+02  0.00000000000E+00 0.  1.
         11    1    3    3    0    0  0.12034607639E+02 -0.46754118525E+01 -0.18965480177E+02  0.22942987940E+02  0.51100000000E-03 0. -1.
        -11    1    3    3    0    0  0.23767692447E+02 -0.80818471907E+01  0.19577000827E+01  0.25180390151E+02  0.51100000000E-03 0.  1.
        -12    1    3    3    0    0 -0.79872610076E+01  0.16317972506E+00  0.78190530435E+01  0.11178575782E+02  0.00000000000E+00 0.  1.
</event>
<event>
 7    1  0.1284777E-011  0.5930195E+02  0.7816164E-02  0.1266605E+00
        -11   -1    0    0    0    0  0.00000000000E+00  0.00000000000E+00  0.45593999997E+02  0.45594000000E+02  0.51100000000E-03 0. -1.
         11   -1    0    0    0    0 -0.00000000000E+00 -0.00000000000E+00 -0.45593999997E+02  0.45594000000E+02  0.51100000000E-03 0.  1.
    9900012    2    1    2    0    0  0.14569838928E+02 -0.27728966760E+02  0.59619322231E+01  0.59301945998E+02  0.50000003593E+02 0.  0.
        -12    1    1    2    0    0 -0.14569838928E+02  0.27728966760E+02 -0.59619322231E+01  0.31886054002E+02  0.00000000000E+00 0.  1.
         11    1    3    3    0    0 -0.31452583103E+01  0.31568615620E+01  0.41184346219E+01  0.60679427121E+01  0.51100000000E-03 0. -1.
        -11    1    3    3    0    0 -0.66295927977E+01  0.51701420704E+01  0.47060929908E+01  0.96347901477E+01  0.51100000000E-03 0.  1.
         12    1    3    3    0    0  0.24344690036E+02 -0.36055970393E+02 -0.28625953896E+01  0.43599213138E+02  0.00000000000E+00 0. -1.
</event>
<event>
 7    1  0.1284777E-011  0.5930194E+02  0.7816164E-02  0.1266605E+00
        -11   -1    0    0    0    0  0.00000000000E+00  0.00000000000E+00  0.45593999997E+02  0.45594000000E+02  0.51100000000E-03 0.  1.
         11   -1    0    0    0    0 -0.00000000000E+00 -0.00000000000E+00 -0.45593999997E+02  0.45594000000E+02  0.51100000000E-03 0. -1.
    9900012    2    1    2    0    0 -0.28748722445E+02 -0.12563397423E+02 -0.56914658786E+01  0.59301940650E+02  0.49999993840E+02 0.  0.
        -12    1    1    2    0    0  0.28748722445E+02  0.12563397423E+02  0.56914658786E+01  0.31886059350E+02  0.00000000000E+00 0.  1.
         11    1    3    3    0    0 -0.11393271294E+02 -0.32416159175E+01 -0.12525641617E+02  0.17239675249E+02  0.51100000000E-03 0. -1.
        -11    1    3    3    0    0 -0.14779071633E+02 -0.77413680366E+01  0.21428917273E+02  0.27157839258E+02  0.51100000000E-03 0.  1.
         12    1    3    3    0    0 -0.25763795190E+01 -0.15804134684E+01 -0.14594741535E+02  0.14904426142E+02  0.00000000000E+00 0. -1.
</event>
<event>
 7    1  0.1464878E-011  0.5930196E+02  0.7816164E-02  0.1266605E+00
        -11   -1    0    0    0    0  0.00000000000E+00  0.00000000000E+00  0.45593999997E+02  0.45594000000E+02  0.51100000000E-03 0.  1.
         11   -1    0    0    0    0 -0.00000000000E+00 -0.00000000000E+00 -0.45593999997E+02  0.45594000000E+02  0.51100000000E-03 0. -1.
    9900012    2    1    2    0    0  0.30307935783E+02  0.75336164005E+01 -0.64337778321E+01  0.59301955330E+02  0.50000020613E+02 0.  0.
        -12    1    1    2    0    0 -0.30307935783E+02 -0.75336164005E+01  0.64337778321E+01  0.31886044670E+02  0.00000000000E+00 0.  1.
         11    1    3    3    0    0 -0.54150982414E+01 -0.54185773633E+01 -0.46777086667E+01  0.89758135140E+01  0.51100000000E-03 0. -1.
        -11    1    3    3    0    0  0.17676298128E+02  0.99872868064E+01  0.15219080660E+02  0.25373565568E+02  0.51100000000E-03 0.  1.
         12    1    3    3    0    0  0.18046735897E+02  0.29649069575E+01 -0.16975149826E+02  0.24952576248E+02  0.00000000000E+00 0. -1.
</event>
<event>
 7    1  0.1284777E-011  0.5930193E+02  0.7816164E-02  0.1266605E+00
        -11   -1    0    0    0    0  0.00000000000E+00  0.00000000000E+00  0.45593999997E+02  0.45594000000E+02  0.51100000000E-03 0.  1.
         11   -1    0    0    0    0 -0.00000000000E+00 -0.00000000000E+00 -0.45593999997E+02  0.45594000000E+02  0.51100000000E-03 0. -1.
    9900012    2    1    2    0    0 -0.50770951238E+01  0.19342377992E+02 -0.24835794556E+02  0.59301934509E+02  0.49999982641E+02 0.  0.
        -12    1    1    2    0    0  0.50770951238E+01 -0.19342377992E+02  0.24835794556E+02  0.31886065491E+02  0.00000000000E+00 0.  1.
         11    1    3    3    0    0 -0.21292169778E+01  0.11788264540E+02 -0.24323909436E+02  0.27113637091E+02  0.51100000000E-03 0.  1.
        -11    1    3    3    0    0 -0.14737820854E+02  0.11874815034E+02  0.29690431893E+01  0.19158022167E+02  0.51100000000E-03 0. -1.
        -12    1    3    3    0    0  0.11789942708E+02 -0.43207015820E+01 -0.34809283088E+01  0.13030275251E+02  0.00000000000E+00 0.  1.
</event>
<event>
 7    1  0.1284777E-011  0.5930194E+02  0.7816164E-02  0.1266605E+00
        -11   -1    0    0    0    0  0.00000000000E+00  0.00000000000E+00  0.45593999997E+02  0.45594000000E+02  0.51100000000E-03 0.  1.
         11   -1    0    0    0    0 -0.00000000000E+00 -0.00000000000E+00 -0.45593999997E+02  0.45594000000E+02  0.51100000000E-03 0. -1.
    9900012    2    1    2    0    0 -0.23973256287E+02  0.15040110449E+01 -0.20970023634E+02  0.59301937881E+02  0.49999988790E+02 0.  0.
        -12    1    1    2    0    0  0.23973256287E+02 -0.15040110449E+01  0.20970023634E+02  0.31886062119E+02  0.00000000000E+00 0.  1.
         11    1    3    3    0    0 -0.10026588771E+02  0.12140555762E+02 -0.17501970670E+01  0.15842624991E+02  0.51100000000E-03 0. -1.
        -11    1    3    3    0    0 -0.82880406920E+01  0.66044298381E+01  0.61614895577E+01  0.12258632298E+02  0.51100000000E-03 0.  1.
         12    1    3    3    0    0 -0.56586268243E+01 -0.17240974555E+02 -0.25381316125E+02  0.31200680591E+02  0.00000000000E+00 0. -1.
</event>
<event>
 7    1  0.1284777E-011  0.5930199E+02  0.7816164E-02  0.1266605E+00
        -11   -1    0    0    0    0  0.00000000000E+00  0.00000000000E+00  0.45593999997E+02  0.45594000000E+02  0.51100000000E-03 0. -1.
         11   -1    0    0    0    0 -0.00000000000E+00 -0.00000000000E+00 -0.45593999997E+02  0.45594000000E+02  0.51100000000E-03 0.  1.
    9900012    2    1    2    0    0 -0.31487003169E+02 -0.39921884146E+01 -0.30575705138E+01  0.59301989363E+02  0.50000082681E+02 0.  0.
        -12    1    1    2    0    0  0.31487003169E+02  0.39921884146E+01  0.30575705138E+01  0.31886010637E+02  0.00000000000E+00 0.  1.
         11    1    3    3    0    0  0.45479511074E+00  0.53675406212E+01  0.76865487720E+01  0.93861793718E+01  0.51100000000E-03 0. -1.
        -11    1    3    3    0    0 -0.13747280239E+02  0.13157062468E+02  0.24296544619E-01  0.19028835943E+02  0.51100000000E-03 0.  1.
         12    1    3    3    0    0 -0.18194518040E+02 -0.22516791504E+02 -0.10768415830E+02  0.30886974048E+02  0.00000000000E+00 0. -1.
</event>
<event>
 7    1  0.1456067E-011  0.5930192E+02  0.7816164E-02  0.1266605E+00
        -11   -1    0    0    0    0  0.00000000000E+00  0.00000000000E+00  0.45593999997E+02  0.45594000000E+02  0.51100000000E-03 0.  1.
         11   -1    0    0    0    0 -0.00000000000E+00 -0.00000000000E+00 -0.45593999997E+02  0.45594000000E+02  0.51100000000E-03 0. -1.
    9900012    2    1    2    0    0 -0.24739556668E+02 -0.14877500250E+02 -0.13540176512E+02  0.59301920626E+02  0.49999957322E+02 0.  0.
        -12    1    1    2    0    0  0.24739556668E+02  0.14877500250E+02  0.13540176512E+02  0.31886079374E+02  0.00000000000E+00 0.  1.
         11    1    3    3    0    0 -0.11811458657E+02  0.62889816548E+01  0.24962755906E+01  0.13612245882E+02  0.51100000000E-03 0. -1.
        -11    1    3    3    0    0  0.10384184306E+02 -0.15399857677E+02 -0.48466745101E+01  0.19195758756E+02  0.51100000000E-03 0.  1.
         12    1    3    3    0    0 -0.23312282317E+02 -0.57666242283E+01 -0.11189777593E+02  0.26493915988E+02  0.00000000000E+00 0. -1.
</event>
<event>
 7    1  0.1284777E-011  0.5930195E+02  0.7816164E-02  0.1266605E+00
        -11   -1    0    0    0    0  0.00000000000E+00  0.00000000000E+00  0.45593999997E+02  0.45594000000E+02  0.51100000000E-03 0.  1.
         11   -1    0    0    0    0 -0.00000000000E+00 -0.00000000000E+00 -0.45593999997E+02  0.45594000000E+02  0.51100000000E-03 0. -1.
    9900012    2    1    2    0    0 -0.18172325440E+02  0.24503139408E+02  0.92781029683E+01  0.59301945879E+02  0.50000003376E+02 0.  0.
        -12    1    1    2    0    0  0.18172325440E+02 -0.24503139408E+02 -0.92781029683E+01  0.31886054121E+02  0.00000000000E+00 0.  1.
         11    1    3    3    0    0 -0.10984003916E+02  0.92229463892E+01 -0.27484641246E+01  0.14603600153E+02  0.51100000000E-03 0. -1.
        -11    1    3    3    0    0 -0.14005798738E+01  0.24742463131E+02 -0.41065832947E+01  0.25120014578E+02  0.51100000000E-03 0.  1.
        -12    1    3    3    0    0 -0.57877416502E+01 -0.94622701129E+01  0.16133150388E+02  0.19578331148E+02  0.00000000000E+00 0.  1.
</event>
<event>
 7    1  0.1284777E-011  0.5930198E+02  0.7816164E-02  0.1266605E+00
        -11   -1    0    0    0    0  0.00000000000E+00  0.00000000000E+00  0.45593999997E+02  0.45594000000E+02  0.51100000000E-03 0. -1.
         11   -1    0    0    0    0 -0.00000000000E+00 -0.00000000000E+00 -0.45593999997E+02  0.45594000000E+02  0.51100000000E-03 0.  1.
    9900012    2    1    2    0    0  0.14458817652E+02 -0.13667486638E+02 -0.24917078042E+02  0.59301978344E+02  0.50000062585E+02 0.  0.
        -12    1    1    2    0    0 -0.14458817652E+02  0.13667486638E+02  0.24917078042E+02  0.31886021656E+02  0.00000000000E+00 0.  1.
         11    1    3    3    0    0  0.62397405262E+01 -0.24392366041E+02 -0.58280449495E+01  0.25843528998E+02  0.51100000000E-03 0. -1.
        -11    1    3    3    0    0  0.84071781862E+01  0.88866983749E+01  0.19071763384E+01  0.12381089407E+02  0.51100000000E-03 0.  1.
        -12    1    3    3    0    0 -0.18810106036E+00  0.18381810282E+01 -0.20996209431E+02  0.21077359938E+02  0.00000000000E+00 0.  1.
</event>
<event>
 7    1  0.1284777E-011  0.5930193E+02  0.7816164E-02  0.1266605E+00
        -11   -1    0    0    0    0  0.00000000000E+00  0.00000000000E+00  0.45593999997E+02  0.45594000000E+02  0.51100000000E-03 0. -1.
         11   -1    0    0    0    0 -0.00000000000E+00 -0.00000000000E+00 -0.45593999997E+02  0.45594000000E+02  0.51100000000E-03 0.  1.
    9900012    2    1    2    0    0 -0.21206071717E+02  0.20464310265E+02  0.12175208580E+02  0.59301934450E+02  0.49999982532E+02 0.  0.
        -12    1    1    2    0    0  0.21206071717E+02 -0.20464310265E+02 -0.12175208580E+02  0.31886065550E+02  0.00000000000E+00 0.  1.
         11    1    3    3    0    0 -0.18873716649E+02  0.15905793741E+02 -0.41536966105E+01  0.25029275868E+02  0.51100000000E-03 0. -1.
        -11    1    3    3    0    0  0.92654687226E+01  0.15958628241E+01 -0.43652504286E+01  0.10365862259E+02  0.51100000000E-03 0.  1.
        -12    1    3    3    0    0 -0.11597823791E+02  0.29626537002E+01  0.20694155619E+02  0.23906796323E+02  0.00000000000E+00 0.  1.
</event>
<event>
 7    1  0.1362665E-011  0.5930191E+02  0.7816164E-02  0.1266605E+00
        -11   -1    0    0    0    0  0.00000000000E+00  0.00000000000E+00  0.45593999997E+02  0.45594000000E+02  0.51100000000E-03 0.  1.
         11   -1    0    0    0    0 -0.00000000000E+00 -0.00000000000E+00 -0.45593999997E+02  0.45594000000E+02  0.51100000000E-03 0. -1.
    9900012    2    1    2    0    0 -0.10483672808E+02  0.21600487240E+02  0.20981765391E+02  0.59301907052E+02  0.49999932566E+02 0.  0.
        -12    1    1    2    0    0  0.10483672808E+02 -0.21600487240E+02 -0.20981765391E+02  0.31886092948E+02  0.00000000000E+00 0.  1.
         11    1    3    3    0    0 -0.45489453273E+01  0.11659509337E+02  0.15750158893E+02  0.20117270366E+02  0.51100000000E-03 0. -1.
        -11    1    3    3    0    0 -0.12868692909E+02 -0.10534310046E+02  0.56469784769E+01  0.17563123626E+02  0.51100000000E-03 0.  1.
         12    1    3    3    0    0  0.69339654275E+01  0.20475287949E+02 -0.41537197913E+00  0.21621513060E+02  0.00000000000E+00 0. -1.
</event>
<event>
 7    1  0.1284777E-011  0.5930192E+02  0.7816164E-02  0.1266605E+00
        -11   -1    0    0    0    0  0.00000000000E+00  0.00000000000E+00  0.45593999997E+02  0.45594000000E+02  0.51100000000E-03 0.  1.
         11   -1    0    0    0    0 -0.00000000000E+00 -0.00000000000E+00 -0.45593999997E+02  0.45594000000E+02  0.51100000000E-03 0. -1.
    9900012    2    1    2    0    0 -0.93817819517E+01  0.10925209014E+02  0.28448973862E+02  0.59301919363E+02  0.49999955018E+02 0.  0.
        -12    1    1    2    0    0  0.93817819517E+01 -0.10925209014E+02 -0.28448973862E+02  0.31886080637E+02  0.00000000000E+00 0.  1.
         11    1    3    3    0    0 -0.12894669725E+01  0.16341295588E+02  0.41527969447E+00  0.16397351129E+02  0.51100000000E-03 0. -1.
        -11    1    3    3    0    0  0.65601420223E+01  0.95160163509E+01  0.10133385061E+02  0.15371256409E+02  0.51100000000E-03 0.  1.
         12    1    3    3    0    0 -0.14652457001E+02 -0.14932102925E+02  0.17900309106E+02  0.27533311825E+02  0.00000000000E+00 0. -1.
</event>
<event>
 7    1  0.1357484E-011  0.5930192E+02  0.7816164E-02  0.1266605E+00
        -11   -1    0    0    0    0  0.00000000000E+00  0.00000000000E+00  0.45593999997E+02  0.45594000000E+02  0.51100000000E-03 0.  1.
         11   -1    0    0    0    0 -0.00000000000E+00 -0.00000000000E+00 -0.45593999997E+02  0.45594000000E+02  0.51100000000E-03 0. -1.
    9900012    2    1    2    0    0 -0.10244293717E+02 -0.21743003805E+02  0.20952765181E+02  0.59301919386E+02  0.49999955059E+02 0.  0.
        -12    1    1    2    0    0  0.10244293717E+02  0.21743003805E+02 -0.20952765181E+02  0.31886080614E+02  0.00000000000E+00 0.  1.
         11    1    3    3    0    0 -0.27208504781E+01 -0.90027185387E+01  0.55040775134E+01  0.10897102273E+02  0.51100000000E-03 0. -1.
        -11    1    3    3    0    0  0.88003362479E+01 -0.90123229427E+01 -0.11250819177E+02  0.16889310682E+02  0.51100000000E-03 0.  1.
         12    1    3    3    0    0 -0.16323779487E+02 -0.37279623234E+01  0.26699506845E+02  0.31515506431E+02  0.00000000000E+00 0. -1.
</event>
<event>
 7    1  0.1284777E-011  0.5930193E+02  0.7816164E-02  0.1266605E+00
        -11   -1    0    0    0    0  0.00000000000E+00  0.00000000000E+00  0.45593999997E+02  0.45594000000E+02  0.51100000000E-03 0.  1.
         11   -1    0    0    0    0 -0.00000000000E+00 -0.00000000000E+00 -0.45593999997E+02  0.45594000000E+02  0.51100000000E-03 0. -1.
    9900012    2    1    2    0    0 -0.99794207011E+01  0.23738721303E+02 -0.18804403857E+02  0.59301932023E+02  0.49999978106E+02 0.  0.
        -12    1    1    2    0    0  0.99794207011E+01 -0.23738721303E+02  0.18804403857E+02  0.31886067977E+02  0.00000000000E+00 0.  1.
         11    1    3    3    0    0 -0.10125873217E+02 -0.93596847958E+01  0.55779787076E+01  0.14874503508E+02  0.51100000000E-03 0. -1.
        -11    1    3    3    0    0 -0.38940603552E+00 -0.92002431008E+00  0.14136979543E+01  0.17310759541E+01  0.51100000000E-03 0.  1.
         12    1    3    3    0    0  0.53585855179E+00  0.34018430408E+02 -0.25796080519E+02  0.42696352561E+02  0.00000000000E+00 0. -1.
</event>
<event>
 7    1  0.1284777E-011  0.5930196E+02  0.7816164E-02  0.1266605E+00
        -11   -1    0    0    0    0  0.00000000000E+00  0.00000000000E+00  0.45593999997E+02  0.45594000000E+02  0.51100000000E-03 0.  1.
         11   -1    0    0    0    0 -0.00000000000E+00 -0.00000000000E+00 -0.45593999997E+02  0.45594000000E+02  0.51100000000E-03 0. -1.
    9900012    2    1    2    0    0 -0.12159832734E+02  0.20000573630E+02 -0.21652596614E+02  0.59301962024E+02  0.50000032821E+02 0.  0.
        -12    1    1    2    0    0  0.12159832734E+02 -0.20000573630E+02  0.21652596614E+02  0.31886037976E+02  0.00000000000E+00 0.  1.
         11    1    3    3    0    0  0.10139636359E+02  0.10527630336E+02 -0.74286782273E+01  0.16395989950E+02  0.51100000000E-03 0. -1.
        -11    1    3    3    0    0 -0.49094982857E+01 -0.17777584844E+01 -0.20586754968E+02  0.21238598801E+02  0.51100000000E-03 0.  1.
        -12    1    3    3    0    0 -0.17389970808E+02  0.11250701779E+02  0.63628365813E+01  0.21667373273E+02  0.00000000000E+00 0.  1.
</event>
<event>
 7    1  0.1284777E-011  0.5930193E+02  0.7816164E-02  0.1266605E+00
        -11   -1    0    0    0    0  0.00000000000E+00  0.00000000000E+00  0.45593999997E+02  0.45594000000E+02  0.51100000000E-03 0. -1.
         11   -1    0    0    0    0 -0.00000000000E+00 -0.00000000000E+00 -0.45593999997E+02  0.45594000000E+02  0.51100000000E-03 0.  1.
    9900012    2    1    2    0    0  0.86997058054E+01 -0.20763785985E+02  0.22580997633E+02  0.59301934961E+02  0.49999983465E+02 0.  0.
        -12    1    1    2    0    0 -0.86997058054E+01  0.20763785985E+02 -0.22580997633E+02  0.31886065039E+02  0.00000000000E+00 0.  1.
         11    1    3    3    0    0 -0.14552880885E+02 -0.67349505750E+00  0.10453605754E+02  0.17930917745E+02  0.51100000000E-03 0. -1.
        -11    1    3    3    0    0  0.46556586043E+01  0.57348631498E+01  0.44859369076E+01  0.86421896870E+01  0.51100000000E-03 0.  1.
        -12    1    3    3    0    0  0.18596928086E+02 -0.25825154077E+02  0.76414549718E+01  0.32728827529E+02  0.00000000000E+00 0.  1.
</event>
<event>
 7    1  0.1284777E-011  0.5930196E+02  0.7816164E-02  0.1266605E+00
        -11   -1    0    0    0    0  0.00000000000E+00  0.00000000000E+00  0.45593999997E+02  0.45594000000E+02  0.51100000000E-03 0. -1.
         11   -1    0    0    0    0 -0.00000000000E+00 -0.00000000000E+00 -0.45593999997E+02  0.45594000000E+02  0.51100000000E-03 0.  1.
    9900012    2    1    2    0    0 -0.55136863475E+01  0.16431262959E+02  0.26764381835E+02  0.59301964270E+02  0.50000036917E+02 0.  0.
        -12    1    1    2    0    0  0.55136863475E+01 -0.16431262959E+02 -0.26764381835E+02  0.31886035730E+02  0.00000000000E+00 0.  1.
         11    1    3    3    0    0  0.45643747643E+01 -0.26911154836E+01  0.45406593017E+01  0.69780517833E+01  0.51100000000E-03 0. -1.
        -11    1    3    3    0    0  0.16556804258E+02  0.65637612501E+01  0.66439022962E+01  0.19009265293E+02  0.51100000000E-03 0.  1.
        -12    1    3    3    0    0 -0.26634865370E+02  0.12558617193E+02  0.15579820237E+02  0.33314647194E+02  0.00000000000E+00 0.  1.
</event>
<event>
 7    1  0.1284777E-011  0.5930189E+02  0.7816164E-02  0.1266605E+00
        -11   -1    0    0    0    0  0.00000000000E+00  0.00000000000E+00  0.45593999997E+02  0.45594000000E+02  0.51100000000E-03 0.  1.
         11   -1    0    0    0    0 -0.00000000000E+00 -0.00000000000E+00 -0.45593999997E+02  0.45594000000E+02  0.51100000000E-03 0. -1.
    9900012    2    1    2    0    0  0.24492942769E+02 -0.14728654356E+02 -0.14138122132E+02  0.59301890139E+02  0.49999901721E+02 0.  0.
        -12    1    1    2    0    0 -0.24492942769E+02  0.14728654356E+02  0.14138122132E+02  0.31886109861E+02  0.00000000000E+00 0.  1.
         11    1    3    3    0    0 -0.73519490833E+00 -0.19539366762E+02 -0.11203314039E+02  0.22535341372E+02  0.51100000000E-03 0. -1.
        -11    1    3    3    0    0  0.22226303467E+01 -0.75623839310E+01  0.51579618387E+01  0.94198889043E+01  0.51100000000E-03 0.  1.
        -12    1    3    3    0    0  0.23005507331E+02  0.12373096337E+02 -0.80927699312E+01  0.27346659863E+02  0.00000000000E+00 0.  1.
</event>
<event>
 7    1  0.1284777E-011  0.5930193E+02  0.7816164E-02  0.1266605E+00
        -11   -1    0    0    0    0  0.00000000000E+00  0.00000000000E+00  0.45593999997E+02  0.45594000000E+02  0.51100000000E-03 0.  1.
         11   -1    0    0    0    0 -0.00000000000E+00 -0.00000000000E+00 -0.45593999997E+02  0.45594000000E+02  0.51100000000E-03 0. -1.
    9900012    2    1    2    0    0  0.91808965521E+01 -0.30152672627E+02 -0.48216825114E+01  0.59301934857E+02  0.49999983275E+02 0.  0.
        -12    1    1    2    0    0 -0.91808965521E+01  0.30152672627E+02  0.48216825114E+01  0.31886065143E+02  0.00000000000E+00 0.  1.
         11    1    3    3    0    0  0.94071652971E+01 -0.73606246207E+01  0.27399722484E+01  0.12254835858E+02  0.51100000000E-03 0. -1.
        -11    1    3    3    0    0  0.19368776281E+02 -0.14926037100E+02 -0.85623144293E+01  0.25908479438E+02  0.51100000000E-03 0.  1.
        -12    1    3    3    0    0 -0.19595045026E+02 -0.78660109062E+01  0.10006596695E+01  0.21138619561E+02  0.00000000000E+00 0.  1.
</event>
<event>
 7    1  0.1284777E-011  0.5930194E+02  0.7816164E-02  0.1266605E+00
        -11   -1    0    0    0    0  0.00000000000E+00  0.00000000000E+00  0.45593999997E+02  0.45594000000E+02  0.51100000000E-03 0. -1.
         11   -1    0    0    0    0 -0.00000000000E+00 -0.00000000000E+00 -0.45593999997E+02  0.45594000000E+02  0.51100000000E-03 0.  1.
    9900012    2    1    2    0    0 -0.24575891016E+01  0.15947178599E+02  0.27502150870E+02  0.59301944240E+02  0.50000000388E+02 0.  0.
        -12    1    1    2    0    0  0.24575891016E+01 -0.15947178599E+02 -0.27502150870E+02  0.31886055760E+02  0.00000000000E+00 0.  1.
         11    1    3    3    0    0 -0.42279251815E+01  0.37180750465E+01  0.28684664587E+02  0.29231993023E+02  0.51100000000E-03 0. -1.
        -11    1    3    3    0    0 -0.93305477267E+01  0.91154053249E+00  0.74902169180E+01  0.11999724029E+02  0.51100000000E-03 0.  1.
         12    1    3    3    0    0  0.11100883807E+02  0.11317563020E+02 -0.86727306347E+01  0.18070227189E+02  0.00000000000E+00 0. -1.
</event>
<event>
 7    1  0.1284777E-011  0.5930195E+02  0.7816164E-02  0.1266605E+00
        -11   -1    0    0    0    0  0.00000000000E+00  0.00000000000E+00  0.45593999997E+02  0.45594000000E+02  0.51100000000E-03 0. -1.
         11   -1    0    0    0    0 -0.00000000000E+00 -0.00000000000E+00 -0.45593999997E+02  0.45594000000E+02  0.51100000000E-03 0.  1.
    9900012    2    1    2    0    0  0.15214374782E+02  0.49047554144E+01  0.27589602502E+02  0.59301953022E+02  0.50000016403E+02 0.  0.
        -12    1    1    2    0    0 -0.15214374782E+02 -0.49047554144E+01 -0.27589602502E+02  0.31886046978E+02  0.00000000000E+00 0.  1.
         11    1    3    3    0    0  0.27558308899E+02  0.11873632861E+02  0.22800290953E+02  0.37686825476E+02  0.51100000000E-03 0. -1.
        -11    1    3    3    0    0 -0.15441745978E+01 -0.18241504604E+01  0.87056887583E+01  0.90277913749E+01  0.51100000000E-03 0.  1.
        -12    1    3    3    0    0 -0.10799759519E+02 -0.51447269861E+01 -0.39163772098E+01  0.12587336171E+02  0.00000000000E+00 0.  1.
</event>
<event>
 7    1  0.1284777E-011  0.5930196E+02  0.7816164E-02  0.1266605E+00
        -11   -1    0    0    0    0  0.00000000000E+00  0.00000000000E+00  0.45593999997E+02  0.45594000000E+02  0.51100000000E-03 0.  1.
         11   -1    0    0    0    0 -0.00000000000E+00 -0.00000000000E+00 -0.45593999997E+02  0.45594000000E+02  0.51100000000E-03 0. -1.
    9900012    2    1    2    0    0 -0.68909404246E+01 -0.28452508768E+02  0.12636827874E+02  0.59301957068E+02  0.50000023783E+02 0.  0.
        -12    1    1    2    0    0  0.68909404246E+01  0.28452508768E+02 -0.12636827874E+02  0.31886042932E+02  0.00000000000E+00 0.  1.
         11    1    3    3    0    0 -0.22349140792E+02 -0.19307960386E+02  0.30348172261E+01  0.29689923278E+02  0.51100000000E-03 0. -1.
        -11    1    3    3    0    0  0.53291567977E+01 -0.14898360618E+02  0.83634904361E+01  0.17897179494E+02  0.51100000000E-03 0.  1.
         12    1    3    3    0    0  0.10129043570E+02  0.57538122361E+01  0.12385202118E+01  0.11714854297E+02  0.00000000000E+00 0. -1.
</event>
<event>
 7    1  0.1284777E-011  0.5930194E+02  0.7816164E-02  0.1266605E+00
        -11   -1    0    0    0    0  0.00000000000E+00  0.00000000000E+00  0.45593999997E+02  0.45594000000E+02  0.51100000000E-03 0.  1.
         11   -1    0    0    0    0 -0.00000000000E+00 -0.00000000000E+00 -0.45593999997E+02  0.45594000000E+02  0.51100000000E-03 0. -1.
    9900012    2    1    2    0    0  0.17188926083E+02 -0.10626394557E+02 -0.24664582949E+02  0.59301935753E+02  0.49999984908E+02 0.  0.
        -12    1    1    2    0    0 -0.17188926083E+02  0.10626394557E+02  0.24664582949E+02  0.31886064247E+02  0.00000000000E+00 0.  1.
         11    1    3    3    0    0  0.98796540721E+01 -0.21472007931E+02 -0.10186512728E+02  0.25737516022E+02  0.51100000000E-03 0. -1.
        -11    1    3    3    0    0  0.17766242041E+02  0.64227633248E+01 -0.82480102686E+01  0.20613610034E+02  0.51100000000E-03 0.  1.
        -12    1    3    3    0    0 -0.10456970031E+02  0.44228500493E+01 -0.62300599523E+01  0.12950809696E+02  0.00000000000E+00 0.  1.
</event>
<event>
 7    1  0.1284777E-011  0.5930192E+02  0.7816164E-02  0.1266605E+00
        -11   -1    0    0    0    0  0.00000000000E+00  0.00000000000E+00  0.45593999997E+02  0.45594000000E+02  0.51100000000E-03 0.  1.
         11   -1    0    0    0    0 -0.00000000000E+00 -0.00000000000E+00 -0.45593999997E+02  0.45594000000E+02  0.51100000000E-03 0. -1.
    9900012    2    1    2    0    0  0.75479508811E+01 -0.30193465215E+02 -0.69358064449E+01  0.59301916590E+02  0.49999949960E+02 0.  0.
        -12    1    1    2    0    0 -0.75479508811E+01  0.30193465215E+02  0.69358064449E+01  0.31886083410E+02  0.00000000000E+00 0.  1.
         11    1    3    3    0    0  0.37641942399E+01 -0.23626846197E+02  0.96578329591E+01  0.25800596063E+02  0.51100000000E-03 0. -1.
        -11    1    3    3    0    0 -0.67019230442E+01 -0.40096707142E+01  0.50608397244E+01  0.93061985098E+01  0.51100000000E-03 0.  1.
         12    1    3    3    0    0  0.10485679685E+02 -0.25569483045E+01 -0.21654479128E+02  0.24195122017E+02  0.00000000000E+00 0. -1.
</event>
<event>
 7    1  0.1284777E-011  0.5930192E+02  0.7816164E-02  0.1266605E+00
        -11   -1    0    0    0    0  0.00000000000E+00  0.00000000000E+00  0.45593999997E+02  0.45594000000E+02  0.51100000000E-03 0.  1.
         11   -1    0    0    0    0 -0.00000000000E+00 -0.00000000000E+00 -0.45593999997E+02  0.45594000000E+02  0.51100000000E-03 0. -1.
    9900012    2    1    2    0    0 -0.27882142875E+02 -0.15459797908E+02  0.55011438836E+00  0.59301923596E+02  0.49999962737E+02 0.  0.
        -12    1    1    2    0    0  0.27882142875E+02  0.15459797908E+02 -0.55011438836E+00  0.31886076404E+02  0.00000000000E+00 0.  1.
         11    1    3    3    0    0 -0.86191521819E+01 -0.18203241827E+02 -0.11183555184E+02  0.23037354539E+02  0.51100000000E-03 0. -1.
        -11    1    3    3    0    0  0.30664143463E+01  0.72730836187E+01 -0.37282630898E+01  0.87292948281E+01  0.51100000000E-03 0.  1.
         12    1    3    3    0    0 -0.22329405039E+02 -0.45296396997E+01  0.15461932662E+02  0.27535274229E+02  0.00000000000E+00 0. -1.
</event>
<event>
 7    1  0.1284777E-011  0.5930192E+02  0.7816164E-02  0.1266605E+00
        -11   -1    0    0    0    0  0.00000000000E+00  0.00000000000E+00  0.45593999997E+02  0.45594000000E+02  0.51100000000E-03 0. -1.
         11   -1    0    0    0    0 -0.00000000000E+00 -0.00000000000E+00 -0.45593999997E+02  0.45594000000E+02  0.51100000000E-03 0.  1.
    9900012    2    1    2    0    0 -0.22415773851E+02 -0.38461879870E+01  0.22348642308E+02  0.59301923221E+02  0.49999962053E+02 0.  0.
        -12    1    1    2    0    0  0.22415773851E+02  0.38461879870E+01 -0.22348642308E+02  0.31886076779E+02  0.00000000000E+00 0.  1.
         11    1    3    3    0    0  0.25213035720E+01  0.25154794887E+01  0.19456376578E+00  0.35668563302E+01  0.51100000000E-03 0. -1.
        -11    1    3    3    0    0 -0.16230727787E+00 -0.16043281914E+02  0.24223957666E+02  0.29055349998E+02  0.51100000000E-03 0.  1.
        -12    1    3    3    0    0 -0.24774770145E+02  0.96816144386E+01 -0.20698791240E+01  0.26679716893E+02  0.00000000000E+00 0.  1.
</event>
<event>
 7    1  0.1284777E-011  0.5930196E+02  0.7816164E-02  0.1266605E+00
        -11   -1    0    0    0    0  0.00000000000E+00  0.00000000000E+00  0.45593999997E+02  0.45594000000E+02  0.51100000000E-03 0.  1.
         11   -1    0    0    0    0 -0.00000000000E+00 -0.00000000000E+00 -0.45593999997E+02  0.45594000000E+02  0.51100000000E-03 0. -1.
    9900012    2    1    2    0    0  0.23908698639E+02 -0.20913335628E+02  0.27796180954E+01  0.59301956745E+02  0.50000023194E+02 0.  0.
        -12    1    1    2    0    0 -0.23908698639E+02  0.20913335628E+02 -0.27796180954E+01  0.31886043255E+02  0.00000000000E+00 0.  1.
         11    1    3    3    0    0  0.15616776066E+01 -0.87381166532E+01 -0.59710196539E+00  0.88966314192E+01  0.51100000000E-03 0. -1.
        -11    1    3    3    0    0  0.11964710654E+00 -0.15707342432E+02  0.17748983764E+02  0.23701505155E+02  0.51100000000E-03 0.  1.
        -12    1    3    3    0    0  0.22227373926E+02  0.35321234579E+01 -0.14372263703E+02  0.26703820171E+02  0.00000000000E+00 0.  1.
</event>
<event>
 7    1  0.1284777E-011  0.5930194E+02  0.7816164E-02  0.1266605E+00
        -11   -1    0    0    0    0  0.00000000000E+00  0.00000000000E+00  0.45593999997E+02  0.45594000000E+02  0.51100000000E-03 0.  1.
         11   -1    0    0    0    0 -0.00000000000E+00 -0.00000000000E+00 -0.45593999997E+02  0.45594000000E+02  0.51100000000E-03 0. -1.
    9900012    2    1    2    0    0 -0.18011478193E+02 -0.25110144502E+02 -0.78605430847E+01  0.59301939704E+02  0.49999992114E+02 0.  0.
        -12    1    1    2    0    0  0.18011478193E+02  0.25110144502E+02  0.78605430847E+01  0.31886060296E+02  0.00000000000E+00 0.  1.
         11    1    3    3    0    0 -0.23014790380E+02 -0.18249871283E+02  0.60952200542E+01  0.29998168042E+02  0.51100000000E-03 0. -1.
        -11    1    3    3    0    0  0.16249268898E+01 -0.14196044770E+02 -0.13763110585E+01  0.14354870494E+02  0.51100000000E-03 0.  1.
        -12    1    3    3    0    0  0.33783852971E+01  0.73357715515E+01 -0.12579452080E+02  0.14948901168E+02  0.00000000000E+00 0.  1.
</event>
<event>
 7    1  0.1284777E-011  0.5930208E+02  0.7816164E-02  0.1266604E+00
        -11   -1    0    0    0    0  0.00000000000E+00  0.00000000000E+00  0.45593999997E+02  0.45594000000E+02  0.51100000000E-03 0.  1.
         11   -1    0    0    0    0 -0.00000000000E+00 -0.00000000000E+00 -0.45593999997E+02  0.45594000000E+02  0.51100000000E-03 0. -1.
    9900012    2    1    2    0    0 -0.20028949504E+02  0.24753364582E+02 -0.16804490785E+01  0.59302081706E+02  0.50000251091E+02 0.  0.
        -12    1    1    2    0    0  0.20028949504E+02 -0.24753364582E+02  0.16804490785E+01  0.31885918294E+02  0.00000000000E+00 0.  1.
         11    1    3    3    0    0  0.20671541711E+00 -0.15054621976E+01 -0.72153513075E+00  0.16821893170E+01  0.51100000000E-03 0. -1.
        -11    1    3    3    0    0 -0.25518623216E+02 -0.47045104010E+01 -0.31162517877E+01  0.26135102342E+02  0.51100000000E-03 0.  1.
         12    1    3    3    0    0  0.52829582954E+01  0.30963337181E+02  0.21573378400E+01  0.31484790047E+02  0.00000000000E+00 0. -1.
</event>
<event>
 7    1  0.1284777E-011  0.5930194E+02  0.7816164E-02  0.1266605E+00
        -11   -1    0    0    0    0  0.00000000000E+00  0.00000000000E+00  0.45593999997E+02  0.45594000000E+02  0.51100000000E-03 0.  1.
         11   -1    0    0    0    0 -0.00000000000E+00 -0.00000000000E+00 -0.45593999997E+02  0.45594000000E+02  0.51100000000E-03 0. -1.
    9900012    2    1    2    0    0  0.31531896260E+02  0.16236699600E+01  0.44524403527E+01  0.59301937042E+02  0.49999987259E+02 0.  0.
        -12    1    1    2    0    0 -0.31531896260E+02 -0.16236699600E+01 -0.44524403527E+01  0.31886062958E+02  0.00000000000E+00 0.  1.
         11    1    3    3    0    0  0.86582481228E+01  0.12061354030E+02  0.45439391027E+01  0.15527037851E+02  0.51100000000E-03 0. -1.
        -11    1    3    3    0    0  0.32285797224E+02 -0.49858533931E+01  0.18716218647E+01  0.32722078251E+02  0.51100000000E-03 0.  1.
         12    1    3    3    0    0 -0.94121490866E+01 -0.54518306773E+01 -0.19631206147E+01  0.11052820939E+02  0.00000000000E+00 0. -1.
</event>
<event>
 7    1  0.1284777E-011  0.5930198E+02  0.7816164E-02  0.1266605E+00
        -11   -1    0    0    0    0  0.00000000000E+00  0.00000000000E+00  0.45593999997E+02  0.45594000000E+02  0.51100000000E-03 0. -1.
         11   -1    0    0    0    0 -0.00000000000E+00 -0.00000000000E+00 -0.45593999997E+02  0.45594000000E+02  0.51100000000E-03 0.  1.
    9900012    2    1    2    0    0  0.27519501677E+02 -0.48519199626E+01  0.15357553441E+02  0.59301975670E+02  0.50000057708E+02 0.  0.
        -12    1    1    2    0    0 -0.27519501677E+02  0.48519199626E+01 -0.15357553441E+02  0.31886024330E+02  0.00000000000E+00 0.  1.
         11    1    3    3    0    0  0.33423271323E+00  0.30914769550E+01 -0.10089329690E+01  0.32690804926E+01  0.51100000000E-03 0. -1.
        -11    1    3    3    0    0 -0.87184857011E+01  0.77409120740E+01 -0.34059663560E+01  0.12146370641E+02  0.51100000000E-03 0.  1.
         12    1    3    3    0    0  0.35903754665E+02 -0.15684308992E+02  0.19772452766E+02  0.43886524537E+02  0.00000000000E+00 0. -1.
</event>
<event>
 7    1  0.1284777E-011  0.5930195E+02  0.7816164E-02  0.1266605E+00
        -11   -1    0    0    0    0  0.00000000000E+00  0.00000000000E+00  0.45593999997E+02  0.45594000000E+02  0.51100000000E-03 0. -1.
         11   -1    0    0    0    0 -0.00000000000E+00 -0.00000000000E+00 -0.45593999997E+02  0.45594000000E+02  0.51100000000E-03 0.  1.
    9900012    2    1    2    0    0  0.10606199356E+02 -0.21451051043E+02 -0.21073229843E+02  0.59301951771E+02  0.50000014123E+02 0.  0.
        -12    1    1    2    0    0 -0.10606199356E+02  0.21451051043E+02  0.21073229843E+02  0.31886048229E+02  0.00000000000E+00 0.  1.
         11    1    3    3    0    0  0.12952240795E+02  0.10984888026E+02 -0.23949947729E+01  0.17151218813E+02  0.51100000000E-03 0. -1.
        -11    1    3    3    0    0  0.23905737586E+01  0.10576236470E+01  0.12421499550E+01  0.28941920195E+01  0.51100000000E-03 0.  1.
        -12    1    3    3    0    0 -0.47366151975E+01 -0.33493562716E+02 -0.19920385025E+02  0.39256540939E+02  0.00000000000E+00 0.  1.
</event>
<event>
 7    1  0.1284777E-011  0.5930193E+02  0.7816164E-02  0.1266605E+00
        -11   -1    0    0    0    0  0.00000000000E+00  0.00000000000E+00  0.45593999997E+02  0.45594000000E+02  0.51100000000E-03 0. -1.
         11   -1    0    0    0    0 -0.00000000000E+00 -0.00000000000E+00 -0.45593999997E+02  0.45594000000E+02  0.51100000000E-03 0.  1.
    9900012    2    1    2    0    0  0.27617122683E+02  0.71922752357E+01  0.14222771965E+02  0.59301928891E+02  0.49999972395E+02 0.  0.
        -12    1    1    2    0    0 -0.27617122683E+02 -0.71922752357E+01 -0.14222771965E+02  0.31886071109E+02  0.00000000000E+00 0.  1.
         11    1    3    3    0    0  0.71983433159E+01 -0.89920600860E-01 -0.15539330036E+01  0.73647091082E+01  0.51100000000E-03 0. -1.
        -11    1    3    3    0    0  0.22853708395E+02 -0.25480078305E+01 -0.93675359935E+01  0.24830124087E+02  0.51100000000E-03 0.  1.
         12    1    3    3    0    0 -0.24349290280E+01  0.98302036670E+01  0.25144240963E+02  0.27107095696E+02  0.00000000000E+00 0. -1.
</event>
<event>
 7    1  0.1284777E-011  0.5930194E+02  0.7816164E-02  0.1266605E+00
        -11   -1    0    0    0    0  0.00000000000E+00  0.00000000000E+00  0.45593999997E+02  0.45594000000E+02  0.51100000000E-03 0.  1.
         11   -1    0    0    0    0 -0.00000000000E+00 -0.00000000000E+00 -0.45593999997E+02  0.45594000000E+02  0.51100000000E-03 0. -1.
    9900012    2    1    2    0    0  0.18515628250E+02  0.23531575379E+02 -0.10961623823E+02  0.59301941508E+02  0.49999995404E+02 0.  0.
        -12    1    1    2    0    0 -0.18515628250E+02 -0.23531575379E+02  0.10961623823E+02  0.31886058492E+02  0.00000000000E+00 0.  1.
         11    1    3    3    0    0  0.97734115101E-01  0.36163278846E+01  0.29435917390E+01  0.46639159419E+01  0.51100000000E-03 0. -1.
        -11    1    3    3    0    0  0.13201742605E+02  0.29686789895E+02  0.48562407103E+01  0.32850792626E+02  0.51100000000E-03 0.  1.
         12    1    3    3    0    0  0.52161515306E+01 -0.97715424005E+01 -0.18761456273E+02  0.21787232939E+02  0.00000000000E+00 0. -1.
</event>
<event>
 7    1  0.1284777E-011  0.5930195E+02  0.7816164E-02  0.1266605E+00
        -11   -1    0    0    0    0  0.00000000000E+00  0.00000000000E+00  0.45593999997E+02  0.45594000000E+02  0.51100000000E-03 0.  1.
         11   -1    0    0    0    0 -0.00000000000E+00 -0.00000000000E+00 -0.45593999997E+02  0.45594000000E+02  0.51100000000E-03 0. -1.
    9900012    2    1    2    0    0 -0.28814292958E+02 -0.79158676052E+01 -0.11126359249E+02  0.59301948054E+02  0.50000007342E+02 0.  0.
        -12    1    1    2    0    0  0.28814292958E+02  0.79158676052E+01  0.11126359249E+02  0.31886051946E+02  0.00000000000E+00 0.  1.
         11    1    3    3    0    0 -0.14894776021E+02  0.14392946353E+02 -0.14573197590E+02  0.25325665750E+02  0.51100000000E-03 0. -1.
        -11    1    3    3    0    0 -0.55853486441E+01  0.33792429171E+01  0.23821621633E+01  0.69491077846E+01  0.51100000000E-03 0.  1.
        -12    1    3    3    0    0 -0.83341682923E+01 -0.25688056875E+02  0.10646761775E+01  0.27027174519E+02  0.00000000000E+00 0.  1.
</event>
<event>
 7    1  0.1284777E-011  0.5930198E+02  0.7816164E-02  0.1266605E+00
        -11   -1    0    0    0    0  0.00000000000E+00  0.00000000000E+00  0.45593999997E+02  0.45594000000E+02  0.51100000000E-03 0. -1.
         11   -1    0    0    0    0 -0.00000000000E+00 -0.00000000000E+00 -0.45593999997E+02  0.45594000000E+02  0.51100000000E-03 0.  1.
    9900012    2    1    2    0    0  0.19224728018E+02 -0.80449480639E+01  0.24133112545E+02  0.59301976764E+02  0.50000059702E+02 0.  0.
        -12    1    1    2    0    0 -0.19224728018E+02  0.80449480639E+01 -0.24133112545E+02  0.31886023236E+02  0.00000000000E+00 0.  1.
         11    1    3    3    0    0  0.36897892437E+01 -0.50222700134E+01  0.18567503805E+02  0.19585452217E+02  0.51100000000E-03 0. -1.
        -11    1    3    3    0    0  0.70725598126E+01 -0.66178585480E+01  0.20217923105E+02  0.22418331093E+02  0.51100000000E-03 0.  1.
        -12    1    3    3    0    0  0.84623789620E+01  0.35951804975E+01 -0.14652314365E+02  0.17298193453E+02  0.00000000000E+00 0.  1.
</event>
<event>
 7    1  0.1284777E-011  0.5930188E+02  0.7816164E-02  0.1266605E+00
        -11   -1    0    0    0    0  0.00000000000E+00  0.00000000000E+00  0.45593999997E+02  0.45594000000E+02  0.51100000000E-03 0.  1.
         11   -1    0    0    0    0 -0.00000000000E+00 -0.00000000000E+00 -0.45593999997E+02  0.45594000000E+02  0.51100000000E-03 0. -1.
    9900012    2    1    2    0    0  0.18655825619E+02 -0.14434119906E+02 -0.21455561287E+02  0.59301878299E+02  0.49999880126E+02 0.  0.
        -12    1    1    2    0    0 -0.18655825619E+02  0.14434119906E+02  0.21455561287E+02  0.31886121701E+02  0.00000000000E+00 0.  1.
         11    1    3    3    0    0 -0.61048908904E+00  0.61640414239E+00 -0.39451015175E+01  0.40393659452E+01  0.51100000000E-03 0. -1.
        -11    1    3    3    0    0  0.16930910477E+02 -0.17277493287E+02 -0.32171026253E+02  0.40250992960E+02  0.51100000000E-03 0.  1.
        -12    1    3    3    0    0  0.23354042311E+01  0.22269692383E+01  0.14660566483E+02  0.15011519394E+02  0.00000000000E+00 0.  1.
</event>
<event>
 7    1  0.1284777E-011  0.5930219E+02  0.7816164E-02  0.1266604E+00
        -11   -1    0    0    0    0  0.00000000000E+00  0.00000000000E+00  0.45593999997E+02  0.45594000000E+02  0.51100000000E-03 0. -1.
         11   -1    0    0    0    0 -0.00000000000E+00 -0.00000000000E+00 -0.45593999997E+02  0.45594000000E+02  0.51100000000E-03 0.  1.
    9900012    2    1    2    0    0 -0.10212916761E+02 -0.73977673900E+01  0.29286081102E+02  0.59302185326E+02  0.50000440067E+02 0.  0.
        -12    1    1    2    0    0  0.10212916761E+02  0.73977673900E+01 -0.29286081102E+02  0.31885814674E+02  0.00000000000E+00 0.  1.
         11    1    3    3    0    0  0.69913762450E+01 -0.47833443670E+00 -0.38157684506E+01  0.79792377306E+01  0.51100000000E-03 0. -1.
        -11    1    3    3    0    0 -0.83556784482E+00 -0.14737953765E+02  0.14386724121E+01  0.14831562067E+02  0.51100000000E-03 0.  1.
         12    1    3    3    0    0 -0.16368725161E+02  0.78185208112E+01  0.31663177141E+02  0.36491385528E+02  0.00000000000E+00 0. -1.
</event>
<event>
 7    1  0.1284777E-011  0.5930194E+02  0.7816164E-02  0.1266605E+00
        -11   -1    0    0    0    0  0.00000000000E+00  0.00000000000E+00  0.45593999997E+02  0.45594000000E+02  0.51100000000E-03 0.  1.
         11   -1    0    0    0    0 -0.00000000000E+00 -0.00000000000E+00 -0.45593999997E+02  0.45594000000E+02  0.51100000000E-03 0. -1.
    9900012    2    1    2    0    0 -0.31982854894E+01 -0.30571210076E+02 -0.84789619641E+01  0.59301941736E+02  0.49999995821E+02 0.  0.
        -12    1    1    2    0    0  0.31982854894E+01  0.30571210076E+02  0.84789619641E+01  0.31886058264E+02  0.00000000000E+00 0.  1.
         11    1    3    3    0    0 -0.74970417824E+01 -0.14341997883E+02 -0.18982018059E+02  0.24944248808E+02  0.51100000000E-03 0. -1.
        -11    1    3    3    0    0 -0.32149431877E+01  0.59994576864E+01 -0.28282600417E+01  0.73707806477E+01  0.51100000000E-03 0.  1.
        -12    1    3    3    0    0  0.75136994807E+01 -0.22228669880E+02  0.13331316136E+02  0.26986912280E+02  0.00000000000E+00 0.  1.
</event>
<event>
 7    1  0.1284777E-011  0.5930194E+02  0.7816164E-02  0.1266605E+00
        -11   -1    0    0    0    0  0.00000000000E+00  0.00000000000E+00  0.45593999997E+02  0.45594000000E+02  0.51100000000E-03 0. -1.
         11   -1    0    0    0    0 -0.00000000000E+00 -0.00000000000E+00 -0.45593999997E+02  0.45594000000E+02  0.51100000000E-03 0.  1.
    9900012    2    1    2    0    0 -0.19652243557E+02  0.22943686428E+02  0.10202818519E+02  0.59301938320E+02  0.49999989590E+02 0.  0.
        -12    1    1    2    0    0  0.19652243557E+02 -0.22943686428E+02 -0.10202818519E+02  0.31886061680E+02  0.00000000000E+00 0.  1.
         11    1    3    3    0    0  0.38934497305E+01  0.16300679296E+02 -0.18795039558E+01  0.16864270861E+02  0.51100000000E-03 0. -1.
        -11    1    3    3    0    0  0.36188000375E+01  0.75976386590E+00 -0.75514431019E+01  0.84081655565E+01  0.51100000000E-03 0.  1.
         12    1    3    3    0    0 -0.27164493325E+02  0.58832432661E+01  0.19633765577E+02  0.34029501902E+02  0.00000000000E+00 0. -1.
</event>
<event>
 7    1  0.1284777E-011  0.5930195E+02  0.7816164E-02  0.1266605E+00
        -11   -1    0    0    0    0  0.00000000000E+00  0.00000000000E+00  0.45593999997E+02  0.45594000000E+02  0.51100000000E-03 0. -1.
         11   -1    0    0    0    0 -0.00000000000E+00 -0.00000000000E+00 -0.45593999997E+02  0.45594000000E+02  0.51100000000E-03 0.  1.
    9900012    2    1    2    0    0  0.52793169087E+01  0.25594531489E+02  0.18269346701E+02  0.59301948848E+02  0.50000008792E+02 0.  0.
        -12    1    1    2    0    0 -0.52793169087E+01 -0.25594531489E+02 -0.18269346701E+02  0.31886051152E+02  0.00000000000E+00 0.  1.
         11    1    3    3    0    0  0.58295983971E+01  0.14368086989E+02  0.19105818727E+02  0.24606065323E+02  0.51100000000E-03 0. -1.
        -11    1    3    3    0    0  0.93289442452E+01  0.11213385784E+02 -0.12641639002E+02  0.19302338159E+02  0.51100000000E-03 0.  1.
         12    1    3    3    0    0 -0.98792257336E+01  0.13058714998E-01  0.11805166976E+02  0.15393545366E+02  0.00000000000E+00 0. -1.
</event>
<event>
 7    1  0.1284777E-011  0.5930193E+02  0.7816164E-02  0.1266605E+00
        -11   -1    0    0    0    0  0.00000000000E+00  0.00000000000E+00  0.45593999997E+02  0.45594000000E+02  0.51100000000E-03 0. -1.
         11   -1    0    0    0    0 -0.00000000000E+00 -0.00000000000E+00 -0.45593999997E+02  0.45594000000E+02  0.51100000000E-03 0.  1.
    9900012    2    1    2    0    0  0.51711647351E+00  0.38303165111E+00  0.31879574150E+02  0.59301931401E+02  0.49999976972E+02 0.  0.
        -12    1    1    2    0    0 -0.51711647351E+00 -0.38303165111E+00 -0.31879574150E+02  0.31886068599E+02  0.00000000000E+00 0.  1.
         11    1    3    3    0    0  0.12715753294E+02  0.14029291615E+02  0.15627451215E+02  0.24550532312E+02  0.51100000000E-03 0. -1.
        -11    1    3    3    0    0  0.51800517216E+00  0.47314211408E+01 -0.26795796003E+01  0.54621261854E+01  0.51100000000E-03 0.  1.
         12    1    3    3    0    0 -0.12716641993E+02 -0.18377681105E+02  0.18931702535E+02  0.29289272904E+02  0.00000000000E+00 0. -1.
</event>
<event>
 7    1  0.1284777E-011  0.5930208E+02  0.7816164E-02  0.1266604E+00
        -11   -1    0    0    0    0  0.00000000000E+00  0.00000000000E+00  0.45593999997E+02  0.45594000000E+02  0.51100000000E-03 0. -1.
         11   -1    0    0    0    0 -0.00000000000E+00 -0.00000000000E+00 -0.45593999997E+02  0.45594000000E+02  0.51100000000E-03 0.  1.
    9900012    2    1    2    0    0 -0.90669240453E+00  0.12988861113E+02  0.29106346028E+02  0.59302078604E+02  0.50000245435E+02 0.  0.
        -12    1    1    2    0    0  0.90669240453E+00 -0.12988861113E+02 -0.29106346028E+02  0.31885921396E+02  0.00000000000E+00 0.  1.
         11    1    3    3    0    0 -0.13192411920E+02  0.16425774003E+02  0.77174074078E+01  0.22436670012E+02  0.51100000000E-03 0. -1.
        -11    1    3    3    0    0 -0.27157709201E+01 -0.10439228291E+02  0.13475963933E+01  0.10870552668E+02  0.51100000000E-03 0.  1.
        -12    1    3    3    0    0  0.15001490436E+02  0.70023154006E+01  0.20041342227E+02  0.25994855925E+02  0.00000000000E+00 0.  1.
</event>
<event>
 7    1  0.1284777E-011  0.5930194E+02  0.7816164E-02  0.1266605E+00
        -11   -1    0    0    0    0  0.00000000000E+00  0.00000000000E+00  0.45593999997E+02  0.45594000000E+02  0.51100000000E-03 0. -1.
         11   -1    0    0    0    0 -0.00000000000E+00 -0.00000000000E+00 -0.45593999997E+02  0.45594000000E+02  0.51100000000E-03 0.  1.
    9900012    2    1    2    0    0  0.18610993507E+02  0.24052721284E+02  0.95821894184E+01  0.59301939809E+02  0.49999992305E+02 0.  0.
        -12    1    1    2    0    0 -0.18610993507E+02 -0.24052721284E+02 -0.95821894184E+01  0.31886060191E+02  0.00000000000E+00 0.  1.
         11    1    3    3    0    0  0.20841667052E+02  0.71509797991E+01  0.12932087034E+02  0.25548981837E+02  0.51100000000E-03 0. -1.
        -11    1    3    3    0    0  0.79655865844E+01  0.99521473345E+01  0.95301562105E+01  0.15916019724E+02  0.51100000000E-03 0.  1.
        -12    1    3    3    0    0 -0.10196260129E+02  0.69495941503E+01 -0.12880053826E+02  0.17836938247E+02  0.00000000000E+00 0.  1.
</event>
<event>
 7    1  0.1446207E-011  0.5930190E+02  0.7816164E-02  0.1266605E+00
        -11   -1    0    0    0    0  0.00000000000E+00  0.00000000000E+00  0.45593999997E+02  0.45594000000E+02  0.51100000000E-03 0. -1.
         11   -1    0    0    0    0 -0.00000000000E+00 -0.00000000000E+00 -0.45593999997E+02  0.45594000000E+02  0.51100000000E-03 0.  1.
    9900012    2    1    2    0    0  0.14525091218E+02  0.15471858475E+02  0.23798456428E+02  0.59301902592E+02  0.49999924432E+02 0.  0.
        -12    1    1    2    0    0 -0.14525091218E+02 -0.15471858475E+02 -0.23798456428E+02  0.31886097408E+02  0.00000000000E+00 0.  1.
         11    1    3    3    0    0  0.14893808140E+02  0.15876661855E+02  0.19602155889E+02  0.29293999869E+02  0.51100000000E-03 0. -1.
        -11    1    3    3    0    0  0.12636173311E+02 -0.26823345045E+00 -0.55017148283E+01  0.13784545384E+02  0.51100000000E-03 0.  1.
         12    1    3    3    0    0 -0.13004890233E+02 -0.13656992886E+00  0.96980153671E+01  0.16223357340E+02  0.00000000000E+00 0. -1.
</event>
<event>
 7    1  0.1357912E-011  0.5930218E+02  0.7816164E-02  0.1266604E+00
        -11   -1    0    0    0    0  0.00000000000E+00  0.00000000000E+00  0.45593999997E+02  0.45594000000E+02  0.51100000000E-03 0.  1.
         11   -1    0    0    0    0 -0.00000000000E+00 -0.00000000000E+00 -0.45593999997E+02  0.45594000000E+02  0.51100000000E-03 0. -1.
    9900012    2    1    2    0    0  0.74481789942E+01  0.28871656218E+02 -0.11298561364E+02  0.59302181961E+02  0.50000433932E+02 0.  0.
        -12    1    1    2    0    0 -0.74481789942E+01 -0.28871656218E+02  0.11298561364E+02  0.31885818039E+02  0.00000000000E+00 0.  1.
         11    1    3    3    0    0 -0.98767050284E+00  0.14650522392E+02  0.10050510591E+02  0.17793989512E+02  0.51100000000E-03 0. -1.
        -11    1    3    3    0    0  0.15721459541E+02  0.58737488917E+01  0.73673563315E+00  0.16799047467E+02  0.51100000000E-03 0.  1.
         12    1    3    3    0    0 -0.72856100437E+01  0.83473849348E+01 -0.22085807588E+02  0.24709144982E+02  0.00000000000E+00 0. -1.
</event>
<event>
 7    1  0.1284777E-011  0.5930197E+02  0.7816164E-02  0.1266605E+00
        -11   -1    0    0    0    0  0.00000000000E+00  0.00000000000E+00  0.45593999997E+02  0.45594000000E+02  0.51100000000E-03 0.  1.
         11   -1    0    0    0    0 -0.00000000000E+00 -0.00000000000E+00 -0.45593999997E+02  0.45594000000E+02  0.51100000000E-03 0. -1.
    9900012    2    1    2    0    0 -0.20251583346E+02  0.19788648655E+02  0.14662941111E+02  0.59301967233E+02  0.50000042320E+02 0.  0.
        -12    1    1    2    0    0  0.20251583346E+02 -0.19788648655E+02 -0.14662941111E+02  0.31886032767E+02  0.00000000000E+00 0.  1.
         11    1    3    3    0    0  0.17835445566E+01 -0.21481172365E+01  0.15221952308E+02  0.15475893227E+02  0.51100000000E-03 0. -1.
        -11    1    3    3    0    0 -0.64568164775E+01 -0.35716349280E+00 -0.12537983703E+02  0.14107412250E+02  0.51100000000E-03 0.  1.
         12    1    3    3    0    0 -0.15578311425E+02  0.22293929384E+02  0.11978972506E+02  0.29718661756E+02  0.00000000000E+00 0. -1.
</event>
<event>
 7    1  0.1284777E-011  0.5930194E+02  0.7816164E-02  0.1266605E+00
        -11   -1    0    0    0    0  0.00000000000E+00  0.00000000000E+00  0.45593999997E+02  0.45594000000E+02  0.51100000000E-03 0.  1.
         11   -1    0    0    0    0 -0.00000000000E+00 -0.00000000000E+00 -0.45593999997E+02  0.45594000000E+02  0.51100000000E-03 0. -1.
    9900012    2    1    2    0    0 -0.11492070370E+02 -0.24285636283E+02 -0.17171514273E+02  0.59301941707E+02  0.49999995767E+02 0.  0.
        -12    1    1    2    0    0  0.11492070370E+02  0.24285636283E+02  0.17171514273E+02  0.31886058293E+02  0.00000000000E+00 0.  1.
         11    1    3    3    0    0 -0.43547414151E+01 -0.75729755221E+01 -0.24821533070E+01  0.90815646423E+01  0.51100000000E-03 0. -1.
        -11    1    3    3    0    0 -0.21325847200E+02  0.17347077173E+01  0.21359054327E+01  0.21502629187E+02  0.51100000000E-03 0.  1.
         12    1    3    3    0    0  0.14188518246E+02 -0.18447368478E+02 -0.16825266398E+02  0.28717747878E+02  0.00000000000E+00 0. -1.
</event>
<event>
 7    1  0.1284777E-011  0.5930188E+02  0.7816164E-02  0.1266605E+00
        -11   -1    0    0    0    0  0.00000000000E+00  0.00000000000E+00  0.45593999997E+02  0.45594000000E+02  0.51100000000E-03 0. -1.
         11   -1    0    0    0    0 -0.00000000000E+00 -0.00000000000E+00 -0.45593999997E+02  0.45594000000E+02  0.51100000000E-03 0.  1.
    9900012    2    1    2    0    0 -0.10335507194E+02  0.27005133905E+02  0.13439656410E+02  0.59301884988E+02  0.49999892325E+02 0.  0.
        -12    1    1    2    0    0  0.10335507194E+02 -0.27005133905E+02 -0.13439656410E+02  0.31886115012E+02  0.00000000000E+00 0.  1.
         11    1    3    3    0    0  0.21079600351E+01  0.24500706023E+02  0.17659655797E+02  0.30275262745E+02  0.51100000000E-03 0. -1.
        -11    1    3    3    0    0  0.76432163136E+01 -0.23037306140E+01 -0.20269587193E+00  0.79854252382E+01  0.51100000000E-03 0.  1.
        -12    1    3    3    0    0 -0.20086683543E+02  0.48081584955E+01 -0.40173035155E+01  0.21041197005E+02  0.00000000000E+00 0.  1.
</event>
<event>
 7    1  0.1284777E-011  0.5930204E+02  0.7816164E-02  0.1266604E+00
        -11   -1    0    0    0    0  0.00000000000E+00  0.00000000000E+00  0.45593999997E+02  0.45594000000E+02  0.51100000000E-03 0. -1.
         11   -1    0    0    0    0 -0.00000000000E+00 -0.00000000000E+00 -0.45593999997E+02  0.45594000000E+02  0.51100000000E-03 0.  1.
    9900012    2    1    2    0    0 -0.95363271489E+01  0.25578000199E+01  0.30318819207E+02  0.59302036403E+02  0.50000168470E+02 0.  0.
        -12    1    1    2    0    0  0.95363271489E+01 -0.25578000199E+01 -0.30318819207E+02  0.31885963597E+02  0.00000000000E+00 0.  1.
         11    1    3    3    0    0 -0.13130794948E+02 -0.30441990267E+01  0.30136587174E+01  0.13811845018E+02  0.51100000000E-03 0. -1.
        -11    1    3    3    0    0 -0.11765573583E+02 -0.60917586304E+01  0.21635727209E+02  0.25370118980E+02  0.51100000000E-03 0.  1.
        -12    1    3    3    0    0  0.15360041382E+02  0.11693757677E+02  0.56694332802E+01  0.20120072405E+02  0.00000000000E+00 0.  1.
</event>
<event>
 7    1  0.1284777E-011  0.5930191E+02  0.7816164E-02  0.1266605E+00
        -11   -1    0    0    0    0  0.00000000000E+00  0.00000000000E+00  0.45593999997E+02  0.45594000000E+02  0.51100000000E-03 0. -1.
         11   -1    0    0    0    0 -0.00000000000E+00 -0.00000000000E+00 -0.45593999997E+02  0.45594000000E+02  0.51100000000E-03 0.  1.
    9900012    2    1    2    0    0 -0.11626330060E+02 -0.13374172941E+02  0.26508160327E+02  0.59301911866E+02  0.49999941346E+02 0.  0.
        -12    1    1    2    0    0  0.11626330060E+02  0.13374172941E+02 -0.26508160327E+02  0.31886088134E+02  0.00000000000E+00 0.  1.
         11    1    3    3    0    0 -0.15243587464E+01 -0.18053889762E+02  0.70675684888E+01  0.19447805268E+02  0.51100000000E-03 0. -1.
        -11    1    3    3    0    0 -0.17419509170E+02 -0.26591818960E+01  0.22929989750E+02  0.28918765158E+02  0.51100000000E-03 0.  1.
        -12    1    3    3    0    0  0.73175378558E+01  0.73388987167E+01 -0.34893979115E+01  0.10935341441E+02  0.00000000000E+00 0.  1.
</event>
<event>
 7    1  0.1284777E-011  0.5930197E+02  0.7816164E-02  0.1266605E+00
        -11   -1    0    0    0    0  0.00000000000E+00  0.00000000000E+00  0.45593999997E+02  0.45594000000E+02  0.51100000000E-03 0.  1.
         11   -1    0    0    0    0 -0.00000000000E+00 -0.00000000000E+00 -0.45593999997E+02  0.45594000000E+02  0.51100000000E-03 0. -1.
    9900012    2    1    2    0    0  0.99645916323E+01 -0.22541056115E+02 -0.20231814901E+02  0.59301974356E+02  0.50000055311E+02 0.  0.
        -12    1    1    2    0    0 -0.99645916323E+01  0.22541056115E+02  0.20231814901E+02  0.31886025644E+02  0.00000000000E+00 0.  1.
         11    1    3    3    0    0 -0.33722311051E+00 -0.29099054295E+02  0.34744304066E+01  0.29307684098E+02  0.51100000000E-03 0.  1.
        -11    1    3    3    0    0  0.31444037507E+00 -0.21026020180E+01 -0.12454644851E+02  0.12634792702E+02  0.51100000000E-03 0. -1.
        -12    1    3    3    0    0  0.99873743677E+01  0.86606001979E+01 -0.11251600457E+02  0.17359497556E+02  0.00000000000E+00 0.  1.
</event>
<event>
 7    1  0.1284777E-011  0.5930195E+02  0.7816164E-02  0.1266605E+00
        -11   -1    0    0    0    0  0.00000000000E+00  0.00000000000E+00  0.45593999997E+02  0.45594000000E+02  0.51100000000E-03 0.  1.
         11   -1    0    0    0    0 -0.00000000000E+00 -0.00000000000E+00 -0.45593999997E+02  0.45594000000E+02  0.51100000000E-03 0. -1.
    9900012    2    1    2    0    0  0.27874195368E+00 -0.31698154135E+02  0.34452341105E+01  0.59301948023E+02  0.50000007286E+02 0.  0.
        -12    1    1    2    0    0 -0.27874195368E+00  0.31698154135E+02 -0.34452341105E+01  0.31886051977E+02  0.00000000000E+00 0.  1.
         11    1    3    3    0    0  0.12332600089E+01 -0.38965326286E+01 -0.15091484733E+02  0.15635114598E+02  0.51100000000E-03 0. -1.
        -11    1    3    3    0    0  0.13454078474E+02 -0.14672342098E+02  0.75501049070E+01  0.21290700660E+02  0.51100000000E-03 0.  1.
        -12    1    3    3    0    0 -0.14408596529E+02 -0.13129279408E+02  0.10986613936E+02  0.22376132765E+02  0.00000000000E+00 0.  1.
</event>
<event>
 7    1  0.1284777E-011  0.5930187E+02  0.7816164E-02  0.1266605E+00
        -11   -1    0    0    0    0  0.00000000000E+00  0.00000000000E+00  0.45593999997E+02  0.45594000000E+02  0.51100000000E-03 0.  1.
         11   -1    0    0    0    0 -0.00000000000E+00 -0.00000000000E+00 -0.45593999997E+02  0.45594000000E+02  0.51100000000E-03 0. -1.
    9900012    2    1    2    0    0 -0.71060433660E+01  0.30026161742E+02 -0.80410662536E+01  0.59301874682E+02  0.49999873530E+02 0.  0.
        -12    1    1    2    0    0  0.71060433660E+01 -0.30026161742E+02  0.80410662536E+01  0.31886125318E+02  0.00000000000E+00 0.  1.
         11    1    3    3    0    0  0.50067965356E+01 -0.73578518607E+01 -0.89865354978E+00  0.89450306883E+01  0.51100000000E-03 0. -1.
        -11    1    3    3    0    0  0.93001623967E+01  0.11436127197E+02  0.33500109785E+01  0.15116236294E+02  0.51100000000E-03 0.  1.
         12    1    3    3    0    0 -0.21413002298E+02  0.25947886405E+02 -0.10492423682E+02  0.35240607700E+02  0.00000000000E+00 0. -1.
</event>
<event>
 7    1  0.1284777E-011  0.5930194E+02  0.7816164E-02  0.1266605E+00
        -11   -1    0    0    0    0  0.00000000000E+00  0.00000000000E+00  0.45593999997E+02  0.45594000000E+02  0.51100000000E-03 0.  1.
         11   -1    0    0    0    0 -0.00000000000E+00 -0.00000000000E+00 -0.45593999997E+02  0.45594000000E+02  0.51100000000E-03 0. -1.
    9900012    2    1    2    0    0 -0.23465118494E+02  0.48749070156E+01 -0.21031987720E+02  0.59301937029E+02  0.49999987236E+02 0.  0.
        -12    1    1    2    0    0  0.23465118494E+02 -0.48749070156E+01  0.21031987720E+02  0.31886062971E+02  0.00000000000E+00 0.  1.
         11    1    3    3    0    0 -0.19762589277E+02  0.16513255957E+02 -0.10103053484E+02  0.27664403973E+02  0.51100000000E-03 0. -1.
        -11    1    3    3    0    0 -0.24007216904E+01  0.85824280734E+00  0.82916313294E+01  0.86747447060E+01  0.51100000000E-03 0.  1.
         12    1    3    3    0    0 -0.13018075265E+01 -0.12496591748E+02 -0.19220565565E+02  0.22962788350E+02  0.00000000000E+00 0. -1.
</event>
<event>
 7    1  0.1284777E-011  0.5930198E+02  0.7816164E-02  0.1266605E+00
        -11   -1    0    0    0    0  0.00000000000E+00  0.00000000000E+00  0.45593999997E+02  0.45594000000E+02  0.51100000000E-03 0.  1.
         11   -1    0    0    0    0 -0.00000000000E+00 -0.00000000000E+00 -0.45593999997E+02  0.45594000000E+02  0.51100000000E-03 0. -1.
    9900012    2    1    2    0    0 -0.96409916593E+00  0.31829164949E+02  0.16410465965E+01  0.59301980141E+02  0.50000065861E+02 0.  0.
        -12    1    1    2    0    0  0.96409916593E+00 -0.31829164949E+02 -0.16410465965E+01  0.31886019859E+02  0.00000000000E+00 0.  1.
         11    1    3    3    0    0 -0.94972430428E+01  0.16770315940E+02 -0.29258147743E+00  0.19275028568E+02  0.51100000000E-03 0. -1.
        -11    1    3    3    0    0 -0.77625131736E+01 -0.75394084821E+01  0.51440839303E+01  0.11981689813E+02  0.51100000000E-03 0.  1.
         12    1    3    3    0    0  0.16295657051E+02  0.22598257491E+02 -0.32104558564E+01  0.28045261759E+02  0.00000000000E+00 0. -1.
</event>
<event>
 7    1  0.1284777E-011  0.5930194E+02  0.7816164E-02  0.1266605E+00
        -11   -1    0    0    0    0  0.00000000000E+00  0.00000000000E+00  0.45593999997E+02  0.45594000000E+02  0.51100000000E-03 0.  1.
         11   -1    0    0    0    0 -0.00000000000E+00 -0.00000000000E+00 -0.45593999997E+02  0.45594000000E+02  0.51100000000E-03 0. -1.
    9900012    2    1    2    0    0  0.13630168186E+02  0.55438973824E+01 -0.28287889886E+02  0.59301937258E+02  0.49999987654E+02 0.  0.
        -12    1    1    2    0    0 -0.13630168186E+02 -0.55438973824E+01  0.28287889886E+02  0.31886062742E+02  0.00000000000E+00 0.  1.
         11    1    3    3    0    0  0.19320981383E+02  0.15257595156E+02 -0.14266454102E+02  0.28453931968E+02  0.51100000000E-03 0. -1.
        -11    1    3    3    0    0  0.63336827377E+01  0.48375236923E+01 -0.12756101048E+01  0.80712052319E+01  0.51100000000E-03 0.  1.
        -12    1    3    3    0    0 -0.12024495935E+02 -0.14551221466E+02 -0.12745825679E+02  0.22776800058E+02  0.00000000000E+00 0.  1.
</event>
<event>
 7    1  0.1284777E-011  0.5930194E+02  0.7816164E-02  0.1266605E+00
        -11   -1    0    0    0    0  0.00000000000E+00  0.00000000000E+00  0.45593999997E+02  0.45594000000E+02  0.51100000000E-03 0.  1.
         11   -1    0    0    0    0 -0.00000000000E+00 -0.00000000000E+00 -0.45593999997E+02  0.45594000000E+02  0.51100000000E-03 0. -1.
    9900012    2    1    2    0    0 -0.33683009619E+01  0.23149007898E+02 -0.21667922196E+02  0.59301939247E+02  0.49999991282E+02 0.  0.
        -12    1    1    2    0    0  0.33683009619E+01 -0.23149007898E+02  0.21667922196E+02  0.31886060753E+02  0.00000000000E+00 0.  1.
         11    1    3    3    0    0 -0.31632259225E+01  0.21358040338E+00 -0.26724242423E+02  0.26911647072E+02  0.51100000000E-03 0. -1.
        -11    1    3    3    0    0  0.69583359564E+01  0.12300730619E+01 -0.36231528369E+01  0.79409543357E+01  0.51100000000E-03 0.  1.
        -12    1    3    3    0    0 -0.71634109958E+01  0.21705354432E+02  0.86794730630E+01  0.24449337839E+02  0.00000000000E+00 0.  1.
</event>
<event>
 7    1  0.1284777E-011  0.5930187E+02  0.7816164E-02  0.1266605E+00
        -11   -1    0    0    0    0  0.00000000000E+00  0.00000000000E+00  0.45593999997E+02  0.45594000000E+02  0.51100000000E-03 0.  1.
         11   -1    0    0    0    0 -0.00000000000E+00 -0.00000000000E+00 -0.45593999997E+02  0.45594000000E+02  0.51100000000E-03 0. -1.
    9900012    2    1    2    0    0  0.23130750550E+02 -0.20491177370E+02 -0.78616373445E+01  0.59301869586E+02  0.49999864236E+02 0.  0.
        -12    1    1    2    0    0 -0.23130750550E+02  0.20491177370E+02  0.78616373445E+01  0.31886130414E+02  0.00000000000E+00 0.  1.
         11    1    3    3    0    0  0.66657740692E+01 -0.79182558719E+01 -0.20365458990E+02  0.22844763954E+02  0.51100000000E-03 0. -1.
        -11    1    3    3    0    0 -0.69319970823E+01 -0.76742003438E+01  0.37980110220E+01  0.11016842672E+02  0.51100000000E-03 0.  1.
         12    1    3    3    0    0  0.23396973564E+02 -0.48987211544E+01  0.87058106233E+01  0.25440262960E+02  0.00000000000E+00 0. -1.
</event>
<event>
 7    1  0.1284777E-011  0.5930189E+02  0.7816164E-02  0.1266605E+00
        -11   -1    0    0    0    0  0.00000000000E+00  0.00000000000E+00  0.45593999997E+02  0.45594000000E+02  0.51100000000E-03 0.  1.
         11   -1    0    0    0    0 -0.00000000000E+00 -0.00000000000E+00 -0.45593999997E+02  0.45594000000E+02  0.51100000000E-03 0. -1.
    9900012    2    1    2    0    0  0.17064586463E+02  0.10835126730E+02 -0.24660170340E+02  0.59301888860E+02  0.49999899387E+02 0.  0.
        -12    1    1    2    0    0 -0.17064586463E+02 -0.10835126730E+02  0.24660170340E+02  0.31886111140E+02  0.00000000000E+00 0.  1.
         11    1    3    3    0    0  0.46525311973E+01 -0.96456881132E+01 -0.47742383549E+01  0.11725131038E+02  0.51100000000E-03 0. -1.
        -11    1    3    3    0    0 -0.52690137610E+01 -0.79802406132E+01 -0.27909719007E+01  0.99617403434E+01  0.51100000000E-03 0.  1.
         12    1    3    3    0    0  0.17681069027E+02  0.28461055457E+02 -0.17094960084E+02  0.37615017479E+02  0.00000000000E+00 0. -1.
</event>
<event>
 7    1  0.1284777E-011  0.5930193E+02  0.7816164E-02  0.1266605E+00
        -11   -1    0    0    0    0  0.00000000000E+00  0.00000000000E+00  0.45593999997E+02  0.45594000000E+02  0.51100000000E-03 0.  1.
         11   -1    0    0    0    0 -0.00000000000E+00 -0.00000000000E+00 -0.45593999997E+02  0.45594000000E+02  0.51100000000E-03 0. -1.
    9900012    2    1    2    0    0  0.25535728816E+02 -0.17692540023E+02 -0.71848560136E+01  0.59301928204E+02  0.49999971142E+02 0.  0.
        -12    1    1    2    0    0 -0.25535728816E+02  0.17692540023E+02  0.71848560136E+01  0.31886071796E+02  0.00000000000E+00 0.  1.
         11    1    3    3    0    0 -0.52587997739E+01  0.20004591410E+01  0.54553795969E+01  0.78369623352E+01  0.51100000000E-03 0. -1.
        -11    1    3    3    0    0  0.22766224625E+02 -0.22322922234E+02  0.46495473992E+01  0.32221609706E+02  0.51100000000E-03 0.  1.
         12    1    3    3    0    0  0.80283039649E+01  0.26299230703E+01 -0.17289783010E+02  0.19243356163E+02  0.00000000000E+00 0. -1.
</event>
<event>
 7    1  0.1284777E-011  0.5930193E+02  0.7816164E-02  0.1266605E+00
        -11   -1    0    0    0    0  0.00000000000E+00  0.00000000000E+00  0.45593999997E+02  0.45594000000E+02  0.51100000000E-03 0.  1.
         11   -1    0    0    0    0 -0.00000000000E+00 -0.00000000000E+00 -0.45593999997E+02  0.45594000000E+02  0.51100000000E-03 0. -1.
    9900012    2    1    2    0    0  0.17305402143E+02 -0.22782217194E+02 -0.14078892549E+02  0.59301928134E+02  0.49999971014E+02 0.  0.
        -12    1    1    2    0    0 -0.17305402143E+02  0.22782217194E+02  0.14078892549E+02  0.31886071866E+02  0.00000000000E+00 0.  1.
         11    1    3    3    0    0  0.71497246108E+01  0.42826015888E+01 -0.21980896454E+02  0.23507850764E+02  0.51100000000E-03 0. -1.
        -11    1    3    3    0    0  0.27472922291E+01 -0.21276927719E+02 -0.27015719361E+01  0.21622991443E+02  0.51100000000E-03 0.  1.
        -12    1    3    3    0    0  0.74083853027E+01 -0.57878910637E+01  0.10603575840E+02  0.14171085927E+02  0.00000000000E+00 0.  1.
</event>
<event>
 7    1  0.1284777E-011  0.5930194E+02  0.7816164E-02  0.1266605E+00
        -11   -1    0    0    0    0  0.00000000000E+00  0.00000000000E+00  0.45593999997E+02  0.45594000000E+02  0.51100000000E-03 0.  1.
         11   -1    0    0    0    0 -0.00000000000E+00 -0.00000000000E+00 -0.45593999997E+02  0.45594000000E+02  0.51100000000E-03 0. -1.
    9900012    2    1    2    0    0 -0.80003496889E+01 -0.20531976685E+02 -0.23046755289E+02  0.59301943626E+02  0.49999999267E+02 0.  0.
        -12    1    1    2    0    0  0.80003496889E+01  0.20531976685E+02  0.23046755289E+02  0.31886056374E+02  0.00000000000E+00 0.  1.
         11    1    3    3    0    0 -0.23091204609E+01 -0.18903472324E+02 -0.17553184985E+01  0.19124707749E+02  0.51100000000E-03 0. -1.
        -11    1    3    3    0    0  0.65643598217E+01 -0.12646501303E+02 -0.13577595011E+01  0.14313222076E+02  0.51100000000E-03 0.  1.
        -12    1    3    3    0    0 -0.12255589050E+02  0.11017996942E+02 -0.19933677289E+02  0.25864013800E+02  0.00000000000E+00 0.  1.
</event>
<event>
 7    1  0.1284777E-011  0.5930197E+02  0.7816164E-02  0.1266605E+00
        -11   -1    0    0    0    0  0.00000000000E+00  0.00000000000E+00  0.45593999997E+02  0.45594000000E+02  0.51100000000E-03 0.  1.
         11   -1    0    0    0    0 -0.00000000000E+00 -0.00000000000E+00 -0.45593999997E+02  0.45594000000E+02  0.51100000000E-03 0. -1.
    9900012    2    1    2    0    0  0.19812949087E+02  0.11114517128E+02 -0.22374841511E+02  0.59301968965E+02  0.50000045480E+02 0.  0.
        -12    1    1    2    0    0 -0.19812949087E+02 -0.11114517128E+02  0.22374841511E+02  0.31886031035E+02  0.00000000000E+00 0.  1.
         11    1    3    3    0    0  0.12606448657E+02  0.24153461588E+02 -0.14659780386E+02  0.30938995065E+02  0.51100000000E-03 0. -1.
        -11    1    3    3    0    0 -0.32389486140E+01  0.17189733698E+00  0.58825193718E+01  0.67174676210E+01  0.51100000000E-03 0.  1.
        -12    1    3    3    0    0  0.10445449044E+02 -0.13210841796E+02 -0.13597580497E+02  0.21645506279E+02  0.00000000000E+00 0.  1.
</event>
<event>
 7    1  0.1811824E-011  0.5930193E+02  0.7816164E-02  0.1266605E+00
        -11   -1    0    0    0    0  0.00000000000E+00  0.00000000000E+00  0.45593999997E+02  0.45594000000E+02  0.51100000000E-03 0. -1.
         11   -1    0    0    0    0 -0.00000000000E+00 -0.00000000000E+00 -0.45593999997E+02  0.45594000000E+02  0.51100000000E-03 0.  1.
    9900012    2    1    2    0    0  0.18509226148E+02 -0.96027812437E+01 -0.24122942278E+02  0.59301934009E+02  0.49999981729E+02 0.  0.
        -12    1    1    2    0    0 -0.18509226148E+02  0.96027812437E+01  0.24122942278E+02  0.31886065991E+02  0.00000000000E+00 0.  1.
         11    1    3    3    0    0  0.27453023197E+00  0.46457632173E+01 -0.14643068294E+02  0.15364827759E+02  0.51100000000E-03 0.  1.
        -11    1    3    3    0    0 -0.98966878038E+01 -0.10082564660E+02 -0.58449521545E+00  0.14140161758E+02  0.51100000000E-03 0. -1.
         12    1    3    3    0    0  0.28131383720E+02 -0.41659798006E+01 -0.88953787683E+01  0.29796944493E+02  0.00000000000E+00 0. -1.
</event>
<event>
 7    1  0.1284777E-011  0.5930191E+02  0.7816164E-02  0.1266605E+00
        -11   -1    0    0    0    0  0.00000000000E+00  0.00000000000E+00  0.45593999997E+02  0.45594000000E+02  0.51100000000E-03 0.  1.
         11   -1    0    0    0    0 -0.00000000000E+00 -0.00000000000E+00 -0.45593999997E+02  0.45594000000E+02  0.51100000000E-03 0. -1.
    9900012    2    1    2    0    0 -0.10291173136E+01 -0.17249751586E+02 -0.26797574806E+02  0.59301905418E+02  0.49999929586E+02 0.  0.
        -12    1    1    2    0    0  0.10291173136E+01  0.17249751586E+02  0.26797574806E+02  0.31886094582E+02  0.00000000000E+00 0.  1.
         11    1    3    3    0    0  0.23032461453E+01 -0.64606971271E+01 -0.22761799715E+02  0.23772780163E+02  0.51100000000E-03 0.  1.
        -11    1    3    3    0    0 -0.17916782813E+02 -0.19596897268E+01 -0.63977712790E-01  0.18023750542E+02  0.51100000000E-03 0. -1.
        -12    1    3    3    0    0  0.14584419354E+02 -0.88293647317E+01 -0.39717973779E+01  0.17505374714E+02  0.00000000000E+00 0.  1.
</event>
<event>
 7    1  0.1284777E-011  0.5930156E+02  0.7816164E-02  0.1266606E+00
        -11   -1    0    0    0    0  0.00000000000E+00  0.00000000000E+00  0.45593999997E+02  0.45594000000E+02  0.51100000000E-03 0.  1.
         11   -1    0    0    0    0 -0.00000000000E+00 -0.00000000000E+00 -0.45593999997E+02  0.45594000000E+02  0.51100000000E-03 0. -1.
    9900012    2    1    2    0    0 -0.38341943376E+01  0.28437979762E+02 -0.13904146690E+02  0.59301560338E+02  0.49999300236E+02 0.  0.
        -12    1    1    2    0    0  0.38341943376E+01 -0.28437979762E+02  0.13904146690E+02  0.31886439662E+02  0.00000000000E+00 0.  1.
         11    1    3    3    0    0 -0.17495275272E+02  0.21199821424E+02 -0.18500552539E+02  0.33132876871E+02  0.51100000000E-03 0. -1.
        -11    1    3    3    0    0  0.79507687002E+01  0.42126406908E+01 -0.79815560840E+01  0.12027730555E+02  0.51100000000E-03 0.  1.
        -12    1    3    3    0    0  0.57103122344E+01  0.30255176480E+01  0.12577961933E+02  0.14140952912E+02  0.00000000000E+00 0.  1.
</event>
<event>
 7    1  0.1284777E-011  0.5930193E+02  0.7816164E-02  0.1266605E+00
        -11   -1    0    0    0    0  0.00000000000E+00  0.00000000000E+00  0.45593999997E+02  0.45594000000E+02  0.51100000000E-03 0. -1.
         11   -1    0    0    0    0 -0.00000000000E+00 -0.00000000000E+00 -0.45593999997E+02  0.45594000000E+02  0.51100000000E-03 0.  1.
    9900012    2    1    2    0    0 -0.36599543586E+01  0.29184814738E+02  0.12311477064E+02  0.59301934945E+02  0.49999983436E+02 0.  0.
        -12    1    1    2    0    0  0.36599543586E+01 -0.29184814738E+02 -0.12311477064E+02  0.31886065055E+02  0.00000000000E+00 0.  1.
         11    1    3    3    0    0 -0.98164353166E+01  0.11022773885E+01  0.79146719209E+01  0.12657782177E+02  0.51100000000E-03 0. -1.
        -11    1    3    3    0    0 -0.11941435598E+02  0.22621400337E+01 -0.58515761370E+01  0.13489110617E+02  0.51100000000E-03 0.  1.
         12    1    3    3    0    0  0.18097916556E+02  0.25820397316E+02  0.10248381280E+02  0.33155042152E+02  0.00000000000E+00 0. -1.
</event>
<event>
 7    1  0.1284777E-011  0.5930193E+02  0.7816164E-02  0.1266605E+00
        -11   -1    0    0    0    0  0.00000000000E+00  0.00000000000E+00  0.45593999997E+02  0.45594000000E+02  0.51100000000E-03 0.  1.
         11   -1    0    0    0    0 -0.00000000000E+00 -0.00000000000E+00 -0.45593999997E+02  0.45594000000E+02  0.51100000000E-03 0. -1.
    9900012    2    1    2    0    0  0.23334212517E+01 -0.22621183519E+02 -0.22350802700E+02  0.59301934393E+02  0.49999982428E+02 0.  0.
        -12    1    1    2    0    0 -0.23334212517E+01  0.22621183519E+02  0.22350802700E+02  0.31886065607E+02  0.00000000000E+00 0.  1.
         11    1    3    3    0    0 -0.93860338549E+01 -0.91941924934E+01 -0.18651578523E+01  0.13270630023E+02  0.51100000000E-03 0. -1.
        -11    1    3    3    0    0  0.33804707131E+01  0.13036438373E+02 -0.71150723274E+01  0.15231564666E+02  0.51100000000E-03 0.  1.
         12    1    3    3    0    0  0.83389843935E+01 -0.26463429399E+02 -0.13370572521E+02  0.30799739704E+02  0.00000000000E+00 0. -1.
</event>
<event>
 7    1  0.1284777E-011  0.5930195E+02  0.7816164E-02  0.1266605E+00
        -11   -1    0    0    0    0  0.00000000000E+00  0.00000000000E+00  0.45593999997E+02  0.45594000000E+02  0.51100000000E-03 0.  1.
         11   -1    0    0    0    0 -0.00000000000E+00 -0.00000000000E+00 -0.45593999997E+02  0.45594000000E+02  0.51100000000E-03 0. -1.
    9900012    2    1    2    0    0  0.43923127134E+01  0.50022156840E+01 -0.31183414242E+02  0.59301954517E+02  0.50000019131E+02 0.  0.
        -12    1    1    2    0    0 -0.43923127134E+01 -0.50022156840E+01  0.31183414242E+02  0.31886045483E+02  0.00000000000E+00 0.  1.
         11    1    3    3    0    0 -0.11636158797E+02  0.83406847621E+01 -0.34179050924E+02  0.37056372410E+02  0.51100000000E-03 0. -1.
        -11    1    3    3    0    0  0.56811262086E+01  0.32326750552E+00 -0.58408590332E+01  0.81544669590E+01  0.51100000000E-03 0.  1.
        -12    1    3    3    0    0  0.10347345302E+02 -0.36617365836E+01  0.88364957149E+01  0.14091115149E+02  0.00000000000E+00 0.  1.
</event>
<event>
 7    1  0.1284777E-011  0.5930195E+02  0.7816164E-02  0.1266605E+00
        -11   -1    0    0    0    0  0.00000000000E+00  0.00000000000E+00  0.45593999997E+02  0.45594000000E+02  0.51100000000E-03 0.  1.
         11   -1    0    0    0    0 -0.00000000000E+00 -0.00000000000E+00 -0.45593999997E+02  0.45594000000E+02  0.51100000000E-03 0. -1.
    9900012    2    1    2    0    0  0.69668064605E+01 -0.54841472975E+01 -0.30628546822E+02  0.59301950632E+02  0.50000012045E+02 0.  0.
        -12    1    1    2    0    0 -0.69668064605E+01  0.54841472975E+01  0.30628546822E+02  0.31886049368E+02  0.00000000000E+00 0.  1.
         11    1    3    3    0    0  0.14051968297E+02 -0.14550751251E+02  0.41952833615E+01  0.20658716750E+02  0.51100000000E-03 0. -1.
        -11    1    3    3    0    0 -0.62072621227E+01  0.88958824316E+00 -0.60359410642E+01  0.87036805487E+01  0.51100000000E-03 0.  1.
        -12    1    3    3    0    0 -0.87789971433E+00  0.81770157107E+01 -0.28787889120E+02  0.29939553334E+02  0.00000000000E+00 0.  1.
</event>
<event>
 7    1  0.1284777E-011  0.5930194E+02  0.7816164E-02  0.1266605E+00
        -11   -1    0    0    0    0  0.00000000000E+00  0.00000000000E+00  0.45593999997E+02  0.45594000000E+02  0.51100000000E-03 0. -1.
         11   -1    0    0    0    0 -0.00000000000E+00 -0.00000000000E+00 -0.45593999997E+02  0.45594000000E+02  0.51100000000E-03 0.  1.
    9900012    2    1    2    0    0  0.30522676137E+02  0.72314779468E+01  0.57265143141E+01  0.59301937244E+02  0.49999987629E+02 0.  0.
        -12    1    1    2    0    0 -0.30522676137E+02 -0.72314779468E+01 -0.57265143141E+01  0.31886062756E+02  0.00000000000E+00 0.  1.
         11    1    3    3    0    0  0.17119552144E+02  0.22696340038E+01  0.52660665963E+01  0.18054411145E+02  0.51100000000E-03 0. -1.
        -11    1    3    3    0    0  0.50931415667E+01  0.20532561238E+02 -0.67153556136E+01  0.22195093225E+02  0.51100000000E-03 0.  1.
         12    1    3    3    0    0  0.83099824262E+01 -0.15570717294E+02  0.71758033314E+01  0.19052432875E+02  0.00000000000E+00 0. -1.
</event>
<event>
 7    1  0.1284777E-011  0.5930187E+02  0.7816164E-02  0.1266605E+00
        -11   -1    0    0    0    0  0.00000000000E+00  0.00000000000E+00  0.45593999997E+02  0.45594000000E+02  0.51100000000E-03 0.  1.
         11   -1    0    0    0    0 -0.00000000000E+00 -0.00000000000E+00 -0.45593999997E+02  0.45594000000E+02  0.51100000000E-03 0. -1.
    9900012    2    1    2    0    0  0.27664395564E+02  0.76782247552E+01  0.13872678194E+02  0.59301872647E+02  0.49999869818E+02 0.  0.
        -12    1    1    2    0    0 -0.27664395564E+02 -0.76782247552E+01 -0.13872678194E+02  0.31886127353E+02  0.00000000000E+00 0.  1.
         11    1    3    3    0    0  0.11771814932E+02  0.91562220608E+01 -0.12614922525E+02  0.19533261371E+02  0.51100000000E-03 0. -1.
        -11    1    3    3    0    0  0.20256297692E+02  0.57477898552E+01  0.16938662233E+02  0.27023563105E+02  0.51100000000E-03 0.  1.
         12    1    3    3    0    0 -0.43637170596E+01 -0.72257871609E+01  0.95489384863E+01  0.12745048171E+02  0.00000000000E+00 0. -1.
</event>
<event>
 7    1  0.1284777E-011  0.5930196E+02  0.7816164E-02  0.1266605E+00
        -11   -1    0    0    0    0  0.00000000000E+00  0.00000000000E+00  0.45593999997E+02  0.45594000000E+02  0.51100000000E-03 0.  1.
         11   -1    0    0    0    0 -0.00000000000E+00 -0.00000000000E+00 -0.45593999997E+02  0.45594000000E+02  0.51100000000E-03 0. -1.
    9900012    2    1    2    0    0 -0.60092259672E+01 -0.24895747750E+02 -0.18995019183E+02  0.59301955929E+02  0.50000021705E+02 0.  0.
        -12    1    1    2    0    0  0.60092259672E+01  0.24895747750E+02  0.18995019183E+02  0.31886044071E+02  0.00000000000E+00 0.  1.
         11    1    3    3    0    0  0.13787504323E+02  0.40780993517E+00 -0.17817966990E+02  0.22533120785E+02  0.51100000000E-03 0. -1.
        -11    1    3    3    0    0 -0.15223143070E+01 -0.80515020449E+01  0.65347792088E+01  0.10480814167E+02  0.51100000000E-03 0.  1.
        -12    1    3    3    0    0 -0.18274415983E+02 -0.17252055640E+02 -0.77118314018E+01  0.26288020977E+02  0.00000000000E+00 0.  1.
</event>
<event>
 7    1  0.1284777E-011  0.5930194E+02  0.7816164E-02  0.1266605E+00
        -11   -1    0    0    0    0  0.00000000000E+00  0.00000000000E+00  0.45593999997E+02  0.45594000000E+02  0.51100000000E-03 0. -1.
         11   -1    0    0    0    0 -0.00000000000E+00 -0.00000000000E+00 -0.45593999997E+02  0.45594000000E+02  0.51100000000E-03 0.  1.
    9900012    2    1    2    0    0 -0.22808652855E+02 -0.22272521527E+02  0.64880736009E+00  0.59301940174E+02  0.49999992971E+02 0.  0.
        -12    1    1    2    0    0  0.22808652855E+02  0.22272521527E+02 -0.64880736009E+00  0.31886059826E+02  0.00000000000E+00 0.  1.
         11    1    3    3    0    0  0.12876249962E+01 -0.64915369647E+00  0.16724875451E+00  0.14516718153E+01  0.51100000000E-03 0. -1.
        -11    1    3    3    0    0  0.71522038310E+01 -0.24050486610E+02  0.65349224328E+01  0.25928461915E+02  0.51100000000E-03 0.  1.
         12    1    3    3    0    0 -0.31248481682E+02  0.24271187788E+01 -0.60533638272E+01  0.31921806444E+02  0.00000000000E+00 0. -1.
</event>
<event>
 7    1  0.1284777E-011  0.5930195E+02  0.7816164E-02  0.1266605E+00
        -11   -1    0    0    0    0  0.00000000000E+00  0.00000000000E+00  0.45593999997E+02  0.45594000000E+02  0.51100000000E-03 0.  1.
         11   -1    0    0    0    0 -0.00000000000E+00 -0.00000000000E+00 -0.45593999997E+02  0.45594000000E+02  0.51100000000E-03 0. -1.
    9900012    2    1    2    0    0  0.13953314030E+02  0.28416335534E+02 -0.38127636011E+01  0.59301948757E+02  0.50000008625E+02 0.  0.
        -12    1    1    2    0    0 -0.13953314030E+02 -0.28416335534E+02  0.38127636011E+01  0.31886051243E+02  0.00000000000E+00 0.  1.
         11    1    3    3    0    0  0.48214967332E+01  0.52648022386E+00 -0.79782903277E+01  0.93368693355E+01  0.51100000000E-03 0. -1.
        -11    1    3    3    0    0  0.23762213641E+02  0.15042477162E+02  0.96566641506E+01  0.29734997547E+02  0.51100000000E-03 0.  1.
        -12    1    3    3    0    0 -0.14630396344E+02  0.12847378147E+02 -0.54911374240E+01  0.20230081875E+02  0.00000000000E+00 0.  1.
</event>
<event>
 7    1  0.1284777E-011  0.5930188E+02  0.7816164E-02  0.1266605E+00
        -11   -1    0    0    0    0  0.00000000000E+00  0.00000000000E+00  0.45593999997E+02  0.45594000000E+02  0.51100000000E-03 0. -1.
         11   -1    0    0    0    0 -0.00000000000E+00 -0.00000000000E+00 -0.45593999997E+02  0.45594000000E+02  0.51100000000E-03 0.  1.
    9900012    2    1    2    0    0 -0.16146521443E+02 -0.27212978844E+02 -0.39329729266E+01  0.59301880005E+02  0.49999883239E+02 0.  0.
        -12    1    1    2    0    0  0.16146521443E+02  0.27212978844E+02  0.39329729266E+01  0.31886119995E+02  0.00000000000E+00 0.  1.
         11    1    3    3    0    0  0.10372136216E+01 -0.34468285596E+01  0.52018617148E+00  0.36368988342E+01  0.51100000000E-03 0. -1.
        -11    1    3    3    0    0  0.10083945034E+02 -0.22896578743E+02  0.71470812731E+01  0.26019608694E+02  0.51100000000E-03 0.  1.
         12    1    3    3    0    0 -0.27267680099E+02 -0.86957154092E+00 -0.11600240371E+02  0.29645372477E+02  0.00000000000E+00 0. -1.
</event>
<event>
 7    1  0.1284777E-011  0.5930207E+02  0.7816164E-02  0.1266604E+00
        -11   -1    0    0    0    0  0.00000000000E+00  0.00000000000E+00  0.45593999997E+02  0.45594000000E+02  0.51100000000E-03 0. -1.
         11   -1    0    0    0    0 -0.00000000000E+00 -0.00000000000E+00 -0.45593999997E+02  0.45594000000E+02  0.51100000000E-03 0.  1.
    9900012    2    1    2    0    0 -0.13888838237E+02  0.27473856501E+02  0.83066048712E+01  0.59302073589E+02  0.50000236287E+02 0.  0.
        -12    1    1    2    0    0  0.13888838237E+02 -0.27473856501E+02 -0.83066048712E+01  0.31885926411E+02  0.00000000000E+00 0.  1.
         11    1    3    3    0    0 -0.24639557178E+02  0.22349536663E+02  0.46563563089E+01  0.33590046462E+02  0.51100000000E-03 0. -1.
        -11    1    3    3    0    0  0.41506466946E+01 -0.17455637533E+01 -0.88889790540E+01  0.99643770344E+01  0.51100000000E-03 0.  1.
        -12    1    3    3    0    0  0.66000722466E+01  0.68698835919E+01  0.12539227616E+02  0.15747650093E+02  0.00000000000E+00 0.  1.
</event>
<event>
 7    1  0.1284777E-011  0.5930193E+02  0.7816164E-02  0.1266605E+00
        -11   -1    0    0    0    0  0.00000000000E+00  0.00000000000E+00  0.45593999997E+02  0.45594000000E+02  0.51100000000E-03 0.  1.
         11   -1    0    0    0    0 -0.00000000000E+00 -0.00000000000E+00 -0.45593999997E+02  0.45594000000E+02  0.51100000000E-03 0. -1.
    9900012    2    1    2    0    0 -0.19600260289E+02  0.19288283312E+02 -0.16140418634E+02  0.59301934231E+02  0.49999982133E+02 0.  0.
        -12    1    1    2    0    0  0.19600260289E+02 -0.19288283312E+02  0.16140418634E+02  0.31886065769E+02  0.00000000000E+00 0.  1.
         11    1    3    3    0    0 -0.47607600408E+01  0.81651434305E+01 -0.39721670763E+01  0.10252439463E+02  0.51100000000E-03 0. -1.
        -11    1    3    3    0    0  0.31391915444E+00  0.20803557320E+02  0.77617770373E+01  0.22206569421E+02  0.51100000000E-03 0.  1.
         12    1    3    3    0    0 -0.15153419403E+02 -0.96804174385E+01 -0.19930028595E+02  0.26842925347E+02  0.00000000000E+00 0. -1.
</event>
<event>
 7    1  0.1284777E-011  0.5930194E+02  0.7816164E-02  0.1266605E+00
        -11   -1    0    0    0    0  0.00000000000E+00  0.00000000000E+00  0.45593999997E+02  0.45594000000E+02  0.51100000000E-03 0. -1.
         11   -1    0    0    0    0 -0.00000000000E+00 -0.00000000000E+00 -0.45593999997E+02  0.45594000000E+02  0.51100000000E-03 0.  1.
    9900012    2    1    2    0    0  0.20528145836E+02  0.21029752905E+02 -0.12371973795E+02  0.59301936990E+02  0.49999987164E+02 0.  0.
        -12    1    1    2    0    0 -0.20528145836E+02 -0.21029752905E+02  0.12371973795E+02  0.31886063010E+02  0.00000000000E+00 0.  1.
         11    1    3    3    0    0  0.11762194345E+02  0.16346093320E+02  0.91887392132E+01  0.22135422093E+02  0.51100000000E-03 0. -1.
        -11    1    3    3    0    0 -0.73105409429E+01  0.96277286533E+01 -0.37217878263E+01  0.12648670791E+02  0.51100000000E-03 0.  1.
         12    1    3    3    0    0  0.16076492434E+02 -0.49440690686E+01 -0.17838925181E+02  0.24517844105E+02  0.00000000000E+00 0. -1.
</event>
<event>
 7    1  0.1284777E-011  0.5930193E+02  0.7816164E-02  0.1266605E+00
        -11   -1    0    0    0    0  0.00000000000E+00  0.00000000000E+00  0.45593999997E+02  0.45594000000E+02  0.51100000000E-03 0. -1.
         11   -1    0    0    0    0 -0.00000000000E+00 -0.00000000000E+00 -0.45593999997E+02  0.45594000000E+02  0.51100000000E-03 0.  1.
    9900012    2    1    2    0    0 -0.27975119930E+02 -0.59765059196E+01 -0.14085296850E+02  0.59301928661E+02  0.49999971975E+02 0.  0.
        -12    1    1    2    0    0  0.27975119930E+02  0.59765059196E+01  0.14085296850E+02  0.31886071339E+02  0.00000000000E+00 0.  1.
         11    1    3    3    0    0 -0.78067149349E+01 -0.55586741787E+01 -0.17458283308E+02  0.19915705185E+02  0.51100000000E-03 0. -1.
        -11    1    3    3    0    0 -0.67526124444E+01 -0.61689248961E+01 -0.13982797113E+02  0.16708441715E+02  0.51100000000E-03 0.  1.
         12    1    3    3    0    0 -0.13415792550E+02  0.57510931553E+01  0.17355783571E+02  0.22677781761E+02  0.00000000000E+00 0. -1.
</event>
<event>
 7    1  0.1284777E-011  0.5930194E+02  0.7816164E-02  0.1266605E+00
        -11   -1    0    0    0    0  0.00000000000E+00  0.00000000000E+00  0.45593999997E+02  0.45594000000E+02  0.51100000000E-03 0.  1.
         11   -1    0    0    0    0 -0.00000000000E+00 -0.00000000000E+00 -0.45593999997E+02  0.45594000000E+02  0.51100000000E-03 0. -1.
    9900012    2    1    2    0    0 -0.20231894050E+02  0.12494239430E+02 -0.21243473983E+02  0.59301941250E+02  0.49999994934E+02 0.  0.
        -12    1    1    2    0    0  0.20231894050E+02 -0.12494239430E+02  0.21243473983E+02  0.31886058750E+02  0.00000000000E+00 0.  1.
         11    1    3    3    0    0  0.29366380539E+01  0.91319431032E+01  0.40699730544E+01  0.10420216352E+02  0.51100000000E-03 0.  1.
        -11    1    3    3    0    0 -0.21387740445E+02 -0.12997013190E+02 -0.18246818587E+02  0.30972636020E+02  0.51100000000E-03 0. -1.
         12    1    3    3    0    0 -0.17807916581E+01  0.16359309516E+02 -0.70666284501E+01  0.17909088878E+02  0.00000000000E+00 0. -1.
</event>
<event>
 7    1  0.1284777E-011  0.5930187E+02  0.7816164E-02  0.1266605E+00
        -11   -1    0    0    0    0  0.00000000000E+00  0.00000000000E+00  0.45593999997E+02  0.45594000000E+02  0.51100000000E-03 0. -1.
         11   -1    0    0    0    0 -0.00000000000E+00 -0.00000000000E+00 -0.45593999997E+02  0.45594000000E+02  0.51100000000E-03 0.  1.
    9900012    2    1    2    0    0 -0.59943540357E+00 -0.26503855565E+02  0.17717551741E+02  0.59301869436E+02  0.49999863963E+02 0.  0.
        -12    1    1    2    0    0  0.59943540357E+00  0.26503855565E+02 -0.17717551741E+02  0.31886130564E+02  0.00000000000E+00 0.  1.
         11    1    3    3    0    0  0.85178788207E+01 -0.10920511029E+02  0.44130247104E+01  0.14535701156E+02  0.51100000000E-03 0. -1.
        -11    1    3    3    0    0  0.53913806397E+01 -0.23759042738E+02  0.16092917033E+01  0.24416160981E+02  0.51100000000E-03 0.  1.
        -12    1    3    3    0    0 -0.14508694864E+02  0.81756982010E+01  0.11695235327E+02  0.20350007299E+02  0.00000000000E+00 0.  1.
</event>
<event>
 7    1  0.1284777E-011  0.5930197E+02  0.7816164E-02  0.1266605E+00
        -11   -1    0    0    0    0  0.00000000000E+00  0.00000000000E+00  0.45593999997E+02  0.45594000000E+02  0.51100000000E-03 0. -1.
         11   -1    0    0    0    0 -0.00000000000E+00 -0.00000000000E+00 -0.45593999997E+02  0.45594000000E+02  0.51100000000E-03 0.  1.
    9900012    2    1    2    0    0  0.50579545042E+01  0.16679710279E+02  0.26700624644E+02  0.59301968652E+02  0.50000044908E+02 0.  0.
        -12    1    1    2    0    0 -0.50579545042E+01 -0.16679710279E+02 -0.26700624644E+02  0.31886031348E+02  0.00000000000E+00 0.  1.
         11    1    3    3    0    0 -0.26119482965E+01  0.15450797406E+02  0.68733700420E+01  0.17111184366E+02  0.51100000000E-03 0. -1.
        -11    1    3    3    0    0  0.18111088211E+02  0.89709142042E+01  0.22593574905E+01  0.20336998657E+02  0.51100000000E-03 0.  1.
        -12    1    3    3    0    0 -0.10441185411E+02 -0.77420013314E+01  0.17567897111E+02  0.21853785629E+02  0.00000000000E+00 0.  1.
</event>
<event>
 7    1  0.1284777E-011  0.5930198E+02  0.7816164E-02  0.1266605E+00
        -11   -1    0    0    0    0  0.00000000000E+00  0.00000000000E+00  0.45593999997E+02  0.45594000000E+02  0.51100000000E-03 0.  1.
         11   -1    0    0    0    0 -0.00000000000E+00 -0.00000000000E+00 -0.45593999997E+02  0.45594000000E+02  0.51100000000E-03 0. -1.
    9900012    2    1    2    0    0 -0.27524929545E+02 -0.71236598724E+01 -0.14434333494E+02  0.59301980182E+02  0.50000065936E+02 0.  0.
        -12    1    1    2    0    0  0.27524929545E+02  0.71236598724E+01  0.14434333494E+02  0.31886019818E+02  0.00000000000E+00 0.  1.
         11    1    3    3    0    0 -0.50713454856E+01  0.16752117254E+01  0.10800336355E+02  0.12048740391E+02  0.51100000000E-03 0.  1.
        -11    1    3    3    0    0  0.28633330364E+01  0.75695958477E+01 -0.24765819387E+00  0.80968384087E+01  0.51100000000E-03 0. -1.
         12    1    3    3    0    0 -0.25316917096E+02 -0.16368467446E+02 -0.24987011655E+02  0.39156401382E+02  0.00000000000E+00 0. -1.
</event>
<event>
 7    1  0.1284777E-011  0.5930193E+02  0.7816164E-02  0.1266605E+00
        -11   -1    0    0    0    0  0.00000000000E+00  0.00000000000E+00  0.45593999997E+02  0.45594000000E+02  0.51100000000E-03 0. -1.
         11   -1    0    0    0    0 -0.00000000000E+00 -0.00000000000E+00 -0.45593999997E+02  0.45594000000E+02  0.51100000000E-03 0.  1.
    9900012    2    1    2    0    0 -0.35545251756E+01 -0.37172464408E+01  0.31468538617E+02  0.59301929483E+02  0.49999973474E+02 0.  0.
        -12    1    1    2    0    0  0.35545251756E+01  0.37172464408E+01 -0.31468538617E+02  0.31886070517E+02  0.00000000000E+00 0.  1.
         11    1    3    3    0    0  0.21588197183E+01  0.71479000415E+01  0.22701264213E+01  0.78042585688E+01  0.51100000000E-03 0. -1.
        -11    1    3    3    0    0  0.13871238749E+02  0.71127522998E+01  0.81592781547E+01  0.17594781328E+02  0.51100000000E-03 0.  1.
         12    1    3    3    0    0 -0.19584583643E+02 -0.17977898782E+02  0.21039134041E+02  0.33902889586E+02  0.00000000000E+00 0. -1.
</event>
<event>
 7    1  0.1284777E-011  0.5930194E+02  0.7816164E-02  0.1266605E+00
        -11   -1    0    0    0    0  0.00000000000E+00  0.00000000000E+00  0.45593999997E+02  0.45594000000E+02  0.51100000000E-03 0.  1.
         11   -1    0    0    0    0 -0.00000000000E+00 -0.00000000000E+00 -0.45593999997E+02  0.45594000000E+02  0.51100000000E-03 0. -1.
    9900012    2    1    2    0    0 -0.26152258908E+02  0.17940520884E+02  0.33042681548E+01  0.59301935275E+02  0.49999984038E+02 0.  0.
        -12    1    1    2    0    0  0.26152258908E+02 -0.17940520884E+02 -0.33042681548E+01  0.31886064725E+02  0.00000000000E+00 0.  1.
         11    1    3    3    0    0 -0.15033954046E+02 -0.47463784865E+01  0.50199735883E+01  0.16545332215E+02  0.51100000000E-03 0. -1.
        -11    1    3    3    0    0 -0.17929262670E+02 -0.19004719997E+00  0.36347602817E+01  0.18294973637E+02  0.51100000000E-03 0.  1.
         12    1    3    3    0    0  0.68109578084E+01  0.22876946571E+02 -0.53504657151E+01  0.24461629423E+02  0.00000000000E+00 0. -1.
</event>
<event>
 7    1  0.1284777E-011  0.5930194E+02  0.7816164E-02  0.1266605E+00
        -11   -1    0    0    0    0  0.00000000000E+00  0.00000000000E+00  0.45593999997E+02  0.45594000000E+02  0.51100000000E-03 0.  1.
         11   -1    0    0    0    0 -0.00000000000E+00 -0.00000000000E+00 -0.45593999997E+02  0.45594000000E+02  0.51100000000E-03 0. -1.
    9900012    2    1    2    0    0 -0.23113974196E+01 -0.25141498537E+02 -0.19475192886E+02  0.59301942786E+02  0.49999997735E+02 0.  0.
        -12    1    1    2    0    0  0.23113974196E+01  0.25141498537E+02  0.19475192886E+02  0.31886057214E+02  0.00000000000E+00 0.  1.
         11    1    3    3    0    0 -0.13697533082E+02 -0.27388698812E+02  0.39084296977E+01  0.30871330683E+02  0.51100000000E-03 0. -1.
        -11    1    3    3    0    0  0.16422666258E+01 -0.22742182024E+01 -0.12116689656E+00  0.28078087150E+01  0.51100000000E-03 0.  1.
         12    1    3    3    0    0  0.97438690366E+01  0.45214184777E+01 -0.23262455688E+02  0.25622803388E+02  0.00000000000E+00 0. -1.
</event>
<event>
 7    1  0.1284777E-011  0.5930193E+02  0.7816164E-02  0.1266605E+00
        -11   -1    0    0    0    0  0.00000000000E+00  0.00000000000E+00  0.45593999997E+02  0.45594000000E+02  0.51100000000E-03 0.  1.
         11   -1    0    0    0    0 -0.00000000000E+00 -0.00000000000E+00 -0.45593999997E+02  0.45594000000E+02  0.51100000000E-03 0. -1.
    9900012    2    1    2    0    0 -0.26020238890E+02  0.25877354028E+01  0.18247518776E+02  0.59301934895E+02  0.49999983344E+02 0.  0.
        -12    1    1    2    0    0  0.26020238890E+02 -0.25877354028E+01 -0.18247518776E+02  0.31886065105E+02  0.00000000000E+00 0.  1.
         11    1    3    3    0    0 -0.86197497598E+01 -0.29876477919E+00 -0.58231124491E+00  0.86445608889E+01  0.51100000000E-03 0. -1.
        -11    1    3    3    0    0 -0.29352719122E+02  0.12148884531E+02  0.10917192240E+02  0.33591108971E+02  0.51100000000E-03 0.  1.
         12    1    3    3    0    0  0.11952229992E+02 -0.92623843492E+01  0.79126377804E+01  0.17066265035E+02  0.00000000000E+00 0. -1.
</event>
<event>
 7    1  0.1284777E-011  0.5930225E+02  0.7816164E-02  0.1266604E+00
        -11   -1    0    0    0    0  0.00000000000E+00  0.00000000000E+00  0.45593999997E+02  0.45594000000E+02  0.51100000000E-03 0. -1.
         11   -1    0    0    0    0 -0.00000000000E+00 -0.00000000000E+00 -0.45593999997E+02  0.45594000000E+02  0.51100000000E-03 0.  1.
    9900012    2    1    2    0    0  0.25865222048E+02 -0.11234166732E+01 -0.18612609597E+02  0.59302250634E+02  0.50000559172E+02 0.  0.
        -12    1    1    2    0    0 -0.25865222048E+02  0.11234166732E+01  0.18612609597E+02  0.31885749366E+02  0.00000000000E+00 0.  1.
         11    1    3    3    0    0  0.77039927004E+01  0.17513786608E+01  0.90677710320E+01  0.12026774401E+02  0.51100000000E-03 0. -1.
        -11    1    3    3    0    0 -0.12438970070E+01  0.11412865621E+02 -0.17907425313E+02  0.21271498844E+02  0.51100000000E-03 0.  1.
        -12    1    3    3    0    0  0.19405126355E+02 -0.14287660955E+02 -0.97729553161E+01  0.26003977389E+02  0.00000000000E+00 0.  1.
</event>
<event>
 7    1  0.1284777E-011  0.5930196E+02  0.7816164E-02  0.1266605E+00
        -11   -1    0    0    0    0  0.00000000000E+00  0.00000000000E+00  0.45593999997E+02  0.45594000000E+02  0.51100000000E-03 0.  1.
         11   -1    0    0    0    0 -0.00000000000E+00 -0.00000000000E+00 -0.45593999997E+02  0.45594000000E+02  0.51100000000E-03 0. -1.
    9900012    2    1    2    0    0 -0.22115922876E+02  0.21590821442E+02 -0.78384979568E+01  0.59301958141E+02  0.50000025740E+02 0.  0.
        -12    1    1    2    0    0  0.22115922876E+02 -0.21590821442E+02  0.78384979568E+01  0.31886041859E+02  0.00000000000E+00 0.  1.
         11    1    3    3    0    0 -0.20232565501E+02  0.78662523617E+01 -0.13264703895E+02  0.25439870335E+02  0.51100000000E-03 0. -1.
        -11    1    3    3    0    0  0.10879662588E+02 -0.37713785725E+01 -0.86013632406E-01  0.11515109768E+02  0.51100000000E-03 0.  1.
         12    1    3    3    0    0 -0.12763019963E+02  0.17495947652E+02  0.55122195703E+01  0.22346978038E+02  0.00000000000E+00 0. -1.
</event>
<event>
 7    1  0.1284777E-011  0.5930192E+02  0.7816164E-02  0.1266605E+00
        -11   -1    0    0    0    0  0.00000000000E+00  0.00000000000E+00  0.45593999997E+02  0.45594000000E+02  0.51100000000E-03 0.  1.
         11   -1    0    0    0    0 -0.00000000000E+00 -0.00000000000E+00 -0.45593999997E+02  0.45594000000E+02  0.51100000000E-03 0. -1.
    9900012    2    1    2    0    0 -0.57599516504E+01  0.19563045209E+02 -0.24511880277E+02  0.59301920662E+02  0.49999957386E+02 0.  0.
        -12    1    1    2    0    0  0.57599516504E+01 -0.19563045209E+02  0.24511880277E+02  0.31886079338E+02  0.00000000000E+00 0.  1.
         11    1    3    3    0    0  0.37354982141E+01  0.26148962597E+01 -0.12350235705E+02  0.13165103554E+02  0.51100000000E-03 0. -1.
        -11    1    3    3    0    0  0.24723372994E+01  0.11729241179E+02  0.13065568389E+02  0.17731233120E+02  0.51100000000E-03 0.  1.
         12    1    3    3    0    0 -0.11967787164E+02  0.52189077696E+01 -0.25227212961E+02  0.28405583988E+02  0.00000000000E+00 0. -1.
</event>
<event>
 7    1  0.1284777E-011  0.5930194E+02  0.7816164E-02  0.1266605E+00
        -11   -1    0    0    0    0  0.00000000000E+00  0.00000000000E+00  0.45593999997E+02  0.45594000000E+02  0.51100000000E-03 0. -1.
         11   -1    0    0    0    0 -0.00000000000E+00 -0.00000000000E+00 -0.45593999997E+02  0.45594000000E+02  0.51100000000E-03 0.  1.
    9900012    2    1    2    0    0  0.82669489358E+01  0.29523878875E+02 -0.87589374151E+01  0.59301939516E+02  0.49999991771E+02 0.  0.
        -12    1    1    2    0    0 -0.82669489358E+01 -0.29523878875E+02  0.87589374151E+01  0.31886060484E+02  0.00000000000E+00 0.  1.
         11    1    3    3    0    0 -0.66984121156E+00 -0.26571095056E+00 -0.29289978150E+01  0.30163418273E+01  0.51100000000E-03 0. -1.
        -11    1    3    3    0    0  0.47302491912E+01  0.30452263937E+00 -0.21924823496E+02  0.22431359233E+02  0.51100000000E-03 0.  1.
         12    1    3    3    0    0  0.42065409562E+01  0.29485067187E+02  0.16094883896E+02  0.33854238456E+02  0.00000000000E+00 0. -1.
</event>
<event>
 7    1  0.1284777E-011  0.5930194E+02  0.7816164E-02  0.1266605E+00
        -11   -1    0    0    0    0  0.00000000000E+00  0.00000000000E+00  0.45593999997E+02  0.45594000000E+02  0.51100000000E-03 0.  1.
         11   -1    0    0    0    0 -0.00000000000E+00 -0.00000000000E+00 -0.45593999997E+02  0.45594000000E+02  0.51100000000E-03 0. -1.
    9900012    2    1    2    0    0  0.10650535747E+02  0.28786639187E+02  0.86380844866E+01  0.59301937042E+02  0.49999987260E+02 0.  0.
        -12    1    1    2    0    0 -0.10650535747E+02 -0.28786639187E+02 -0.86380844866E+01  0.31886062958E+02  0.00000000000E+00 0.  1.
         11    1    3    3    0    0  0.26153653119E+02  0.12164032165E+02 -0.47498886219E+01  0.29232493772E+02  0.51100000000E-03 0. -1.
        -11    1    3    3    0    0  0.16985622905E+01  0.88063569641E+00 -0.14766791954E+01  0.24168605239E+01  0.51100000000E-03 0.  1.
        -12    1    3    3    0    0 -0.17201679662E+02  0.15741971326E+02  0.14864652304E+02  0.27652582746E+02  0.00000000000E+00 0.  1.
</event>
<event>
 7    1  0.1284777E-011  0.5930195E+02  0.7816164E-02  0.1266605E+00
        -11   -1    0    0    0    0  0.00000000000E+00  0.00000000000E+00  0.45593999997E+02  0.45594000000E+02  0.51100000000E-03 0. -1.
         11   -1    0    0    0    0 -0.00000000000E+00 -0.00000000000E+00 -0.45593999997E+02  0.45594000000E+02  0.51100000000E-03 0.  1.
    9900012    2    1    2    0    0  0.16290913465E+02  0.27305451683E+02  0.23955243158E+01  0.59301951485E+02  0.50000013600E+02 0.  0.
        -12    1    1    2    0    0 -0.16290913465E+02 -0.27305451683E+02 -0.23955243158E+01  0.31886048515E+02  0.00000000000E+00 0.  1.
         11    1    3    3    0    0 -0.60543874510E+01  0.12218126270E+02 -0.56922613989E+01  0.14776334358E+02  0.51100000000E-03 0. -1.
        -11    1    3    3    0    0 -0.32205975948E+01  0.16714580617E+02 -0.16893073351E+01  0.17105648588E+02  0.51100000000E-03 0.  1.
        -12    1    3    3    0    0  0.25565898511E+02 -0.16272552045E+01  0.97770930497E+01  0.27419968539E+02  0.00000000000E+00 0.  1.
</event>
<event>
 7    1  0.1284777E-011  0.5930197E+02  0.7816164E-02  0.1266605E+00
        -11   -1    0    0    0    0  0.00000000000E+00  0.00000000000E+00  0.45593999997E+02  0.45594000000E+02  0.51100000000E-03 0.  1.
         11   -1    0    0    0    0 -0.00000000000E+00 -0.00000000000E+00 -0.45593999997E+02  0.45594000000E+02  0.51100000000E-03 0. -1.
    9900012    2    1    2    0    0 -0.17314684957E+02  0.26693463027E+02 -0.20928217746E+01  0.59301965652E+02  0.50000039437E+02 0.  0.
        -12    1    1    2    0    0  0.17314684957E+02 -0.26693463027E+02  0.20928217746E+01  0.31886034348E+02  0.00000000000E+00 0.  1.
         11    1    3    3    0    0  0.30040356499E+01  0.26375404141E+02 -0.16557054060E+02  0.31286134520E+02  0.51100000000E-03 0. -1.
        -11    1    3    3    0    0 -0.10525028542E+02  0.42345348318E+01  0.17228040838E+01  0.11474997395E+02  0.51100000000E-03 0.  1.
        -12    1    3    3    0    0 -0.97936920649E+01 -0.39164759462E+01  0.12741428201E+02  0.16540833737E+02  0.00000000000E+00 0.  1.
</event>
<event>
 7    1  0.1284777E-011  0.5930195E+02  0.7816164E-02  0.1266605E+00
        -11   -1    0    0    0    0  0.00000000000E+00  0.00000000000E+00  0.45593999997E+02  0.45594000000E+02  0.51100000000E-03 0.  1.
         11   -1    0    0    0    0 -0.00000000000E+00 -0.00000000000E+00 -0.45593999997E+02  0.45594000000E+02  0.51100000000E-03 0. -1.
    9900012    2    1    2    0    0  0.10652083094E+01 -0.30215349170E+02 -0.10130055185E+02  0.59301952702E+02  0.50000015820E+02 0.  0.
        -12    1    1    2    0    0 -0.10652083094E+01  0.30215349170E+02  0.10130055185E+02  0.31886047298E+02  0.00000000000E+00 0.  1.
         11    1    3    3    0    0  0.21669166414E+01 -0.72698013585E+01 -0.10313345701E+02  0.12802759052E+02  0.51100000000E-03 0. -1.
        -11    1    3    3    0    0 -0.15227335697E+02 -0.15646166842E+01  0.10828489467E+02  0.18750358989E+02  0.51100000000E-03 0.  1.
         12    1    3    3    0    0  0.14125627365E+02 -0.21380931128E+02 -0.10645198951E+02  0.27748834661E+02  0.00000000000E+00 0. -1.
</event>
<event>
 7    1  0.1284777E-011  0.5930201E+02  0.7816164E-02  0.1266605E+00
        -11   -1    0    0    0    0  0.00000000000E+00  0.00000000000E+00  0.45593999997E+02  0.45594000000E+02  0.51100000000E-03 0.  1.
         11   -1    0    0    0    0 -0.00000000000E+00 -0.00000000000E+00 -0.45593999997E+02  0.45594000000E+02  0.51100000000E-03 0. -1.
    9900012    2    1    2    0    0 -0.18823651048E+02  0.23859693194E+02 -0.96489187085E+01  0.59302008870E+02  0.50000118257E+02 0.  0.
        -12    1    1    2    0    0  0.18823651048E+02 -0.23859693194E+02  0.96489187085E+01  0.31885991130E+02  0.00000000000E+00 0.  1.
         11    1    3    3    0    0  0.21146249221E+01 -0.56307159094E+01 -0.11221999270E+02  0.12732237356E+02  0.51100000000E-03 0. -1.
        -11    1    3    3    0    0  0.24952097032E+01 -0.41209158834E+01 -0.24396353192E+01  0.53999851789E+01  0.51100000000E-03 0.  1.
         12    1    3    3    0    0 -0.23433485673E+02  0.33611324987E+02  0.40127158808E+01  0.41169786335E+02  0.00000000000E+00 0. -1.
</event>
<event>
 7    1  0.1284777E-011  0.5930194E+02  0.7816164E-02  0.1266605E+00
        -11   -1    0    0    0    0  0.00000000000E+00  0.00000000000E+00  0.45593999997E+02  0.45594000000E+02  0.51100000000E-03 0.  1.
         11   -1    0    0    0    0 -0.00000000000E+00 -0.00000000000E+00 -0.45593999997E+02  0.45594000000E+02  0.51100000000E-03 0. -1.
    9900012    2    1    2    0    0 -0.75949339917E+01 -0.27108146947E+02 -0.14972845092E+02  0.59301941238E+02  0.49999994912E+02 0.  0.
        -12    1    1    2    0    0  0.75949339917E+01  0.27108146947E+02  0.14972845092E+02  0.31886058762E+02  0.00000000000E+00 0.  1.
         11    1    3    3    0    0 -0.15016629806E+01 -0.10796800723E+02  0.15578902999E+01  0.11011490363E+02  0.51100000000E-03 0. -1.
        -11    1    3    3    0    0  0.46156424260E-01  0.12951883624E+02  0.20118163590E+01  0.13107281379E+02  0.51100000000E-03 0.  1.
         12    1    3    3    0    0 -0.61394274354E+01 -0.29263229848E+02 -0.18542551751E+02  0.35183169496E+02  0.00000000000E+00 0. -1.
</event>
<event>
 7    1  0.1284777E-011  0.5930192E+02  0.7816164E-02  0.1266605E+00
        -11   -1    0    0    0    0  0.00000000000E+00  0.00000000000E+00  0.45593999997E+02  0.45594000000E+02  0.51100000000E-03 0.  1.
         11   -1    0    0    0    0 -0.00000000000E+00 -0.00000000000E+00 -0.45593999997E+02  0.45594000000E+02  0.51100000000E-03 0. -1.
    9900012    2    1    2    0    0 -0.25356688852E+02 -0.36611734553E+01 -0.18983059309E+02  0.59301915240E+02  0.49999947498E+02 0.  0.
        -12    1    1    2    0    0  0.25356688852E+02  0.36611734553E+01  0.18983059309E+02  0.31886084760E+02  0.00000000000E+00 0.  1.
         11    1    3    3    0    0 -0.23349408529E+02  0.16629938908E+02 -0.47572615152E+01  0.29058239522E+02  0.51100000000E-03 0. -1.
        -11    1    3    3    0    0 -0.59749023813E+01  0.18748388937E-01 -0.27005200292E+01  0.65568756780E+01  0.51100000000E-03 0.  1.
        -12    1    3    3    0    0  0.39676220586E+01 -0.20309860752E+02 -0.11525277765E+02  0.23686800040E+02  0.00000000000E+00 0.  1.
</event>
<event>
 7    1  0.1284777E-011  0.5930196E+02  0.7816164E-02  0.1266605E+00
        -11   -1    0    0    0    0  0.00000000000E+00  0.00000000000E+00  0.45593999997E+02  0.45594000000E+02  0.51100000000E-03 0. -1.
         11   -1    0    0    0    0 -0.00000000000E+00 -0.00000000000E+00 -0.45593999997E+02  0.45594000000E+02  0.51100000000E-03 0.  1.
    9900012    2    1    2    0    0 -0.81989711261E+01  0.68922281695E+01  0.30033207302E+02  0.59301961088E+02  0.50000031114E+02 0.  0.
        -12    1    1    2    0    0  0.81989711261E+01 -0.68922281695E+01 -0.30033207302E+02  0.31886038912E+02  0.00000000000E+00 0.  1.
         11    1    3    3    0    0 -0.16688453924E+00  0.19150000074E+01  0.27642976419E+02  0.27709731522E+02  0.51100000000E-03 0. -1.
        -11    1    3    3    0    0 -0.50949750084E+01 -0.10011896766E+01  0.15793456201E+02  0.16625113839E+02  0.51100000000E-03 0.  1.
        -12    1    3    3    0    0 -0.29371115784E+01  0.59784178387E+01 -0.13403225318E+02  0.14967115727E+02  0.00000000000E+00 0.  1.
</event>
<event>
 7    1  0.1284777E-011  0.5930196E+02  0.7816164E-02  0.1266605E+00
        -11   -1    0    0    0    0  0.00000000000E+00  0.00000000000E+00  0.45593999997E+02  0.45594000000E+02  0.51100000000E-03 0.  1.
         11   -1    0    0    0    0 -0.00000000000E+00 -0.00000000000E+00 -0.45593999997E+02  0.45594000000E+02  0.51100000000E-03 0. -1.
    9900012    2    1    2    0    0  0.21738967883E+02 -0.23123698984E+02 -0.30710475556E+01  0.59301960541E+02  0.50000030116E+02 0.  0.
        -12    1    1    2    0    0 -0.21738967883E+02  0.23123698984E+02  0.30710475556E+01  0.31886039459E+02  0.00000000000E+00 0.  1.
         11    1    3    3    0    0  0.10422757867E+02 -0.11456343948E+02 -0.21914466675E+01  0.15642382714E+02  0.51100000000E-03 0. -1.
        -11    1    3    3    0    0  0.20917677248E+02 -0.62290168531E+01  0.13401895577E+02  0.25611729299E+02  0.51100000000E-03 0.  1.
         12    1    3    3    0    0 -0.96014672318E+01 -0.54383381826E+01 -0.14281496465E+02  0.18047848527E+02  0.00000000000E+00 0. -1.
</event>
<event>
 7    1  0.1284777E-011  0.5930187E+02  0.7816164E-02  0.1266605E+00
        -11   -1    0    0    0    0  0.00000000000E+00  0.00000000000E+00  0.45593999997E+02  0.45594000000E+02  0.51100000000E-03 0. -1.
         11   -1    0    0    0    0 -0.00000000000E+00 -0.00000000000E+00 -0.45593999997E+02  0.45594000000E+02  0.51100000000E-03 0.  1.
    9900012    2    1    2    0    0 -0.24757955575E+02 -0.86503583506E+01  0.18136710889E+02  0.59301869070E+02  0.49999863294E+02 0.  0.
        -12    1    1    2    0    0  0.24757955575E+02  0.86503583506E+01 -0.18136710889E+02  0.31886130930E+02  0.00000000000E+00 0.  1.
         11    1    3    3    0    0 -0.62436021515E+01 -0.99132694234E+00  0.75781838770E+01  0.98688483659E+01  0.51100000000E-03 0. -1.
        -11    1    3    3    0    0  0.31657160446E+01 -0.60485861720E+01  0.23269254832E+02  0.24250059247E+02  0.51100000000E-03 0.  1.
        -12    1    3    3    0    0 -0.21680069468E+02 -0.16104452363E+01 -0.12710727821E+02  0.25182961457E+02  0.00000000000E+00 0.  1.
</event>
<event>
 7    1  0.1284777E-011  0.5930195E+02  0.7816164E-02  0.1266605E+00
        -11   -1    0    0    0    0  0.00000000000E+00  0.00000000000E+00  0.45593999997E+02  0.45594000000E+02  0.51100000000E-03 0. -1.
         11   -1    0    0    0    0 -0.00000000000E+00 -0.00000000000E+00 -0.45593999997E+02  0.45594000000E+02  0.51100000000E-03 0.  1.
    9900012    2    1    2    0    0 -0.22811633798E+02 -0.14376324687E+02  0.17019714013E+02  0.59301952689E+02  0.50000015796E+02 0.  0.
        -12    1    1    2    0    0  0.22811633798E+02  0.14376324687E+02 -0.17019714013E+02  0.31886047311E+02  0.00000000000E+00 0.  1.
         11    1    3    3    0    0 -0.34159085177E+01  0.22672987734E+00  0.24247371178E+01  0.41951385901E+01  0.51100000000E-03 0. -1.
        -11    1    3    3    0    0 -0.33652852439E+01 -0.16857967286E+01  0.29469153859E+02  0.29708552385E+02  0.51100000000E-03 0.  1.
        -12    1    3    3    0    0 -0.16030440036E+02 -0.12917257835E+02 -0.14874176963E+02  0.25398261714E+02  0.00000000000E+00 0.  1.
</event>
<event>
 7    1  0.1284777E-011  0.5930195E+02  0.7816164E-02  0.1266605E+00
        -11   -1    0    0    0    0  0.00000000000E+00  0.00000000000E+00  0.45593999997E+02  0.45594000000E+02  0.51100000000E-03 0.  1.
         11   -1    0    0    0    0 -0.00000000000E+00 -0.00000000000E+00 -0.45593999997E+02  0.45594000000E+02  0.51100000000E-03 0. -1.
    9900012    2    1    2    0    0 -0.28473549326E+02  0.33009740949E+01 -0.13967124240E+02  0.59301952884E+02  0.50000016151E+02 0.  0.
        -12    1    1    2    0    0  0.28473549326E+02 -0.33009740949E+01  0.13967124240E+02  0.31886047116E+02  0.00000000000E+00 0.  1.
         11    1    3    3    0    0 -0.13496983779E+02 -0.20520233357E+01 -0.57579234597E+01  0.14816647858E+02  0.51100000000E-03 0. -1.
        -11    1    3    3    0    0 -0.89273483049E+01 -0.17129950130E+02  0.12444449380E+01  0.19356688319E+02  0.51100000000E-03 0.  1.
        -12    1    3    3    0    0 -0.60492172415E+01  0.22482947560E+02 -0.94536457186E+01  0.25128616707E+02  0.00000000000E+00 0.  1.
</event>
<event>
 7    1  0.1284777E-011  0.5930195E+02  0.7816164E-02  0.1266605E+00
        -11   -1    0    0    0    0  0.00000000000E+00  0.00000000000E+00  0.45593999997E+02  0.45594000000E+02  0.51100000000E-03 0.  1.
         11   -1    0    0    0    0 -0.00000000000E+00 -0.00000000000E+00 -0.45593999997E+02  0.45594000000E+02  0.51100000000E-03 0. -1.
    9900012    2    1    2    0    0  0.25742460042E+02  0.11759997192E+01 -0.18779324357E+02  0.59301949011E+02  0.50000009089E+02 0.  0.
        -12    1    1    2    0    0 -0.25742460042E+02 -0.11759997192E+01  0.18779324357E+02  0.31886050989E+02  0.00000000000E+00 0.  1.
         11    1    3    3    0    0 -0.80354033623E+01  0.40138549085E+01 -0.47681262498E+01  0.10169255952E+02  0.51100000000E-03 0. -1.
        -11    1    3    3    0    0  0.82782982091E+01 -0.15926613955E+02 -0.88363867654E+01  0.20006723486E+02  0.51100000000E-03 0.  1.
        -12    1    3    3    0    0  0.25499565195E+02  0.13088758766E+02 -0.51748113417E+01  0.29125969573E+02  0.00000000000E+00 0.  1.
</event>
<event>
 7    1  0.1284777E-011  0.5930189E+02  0.7816164E-02  0.1266605E+00
        -11   -1    0    0    0    0  0.00000000000E+00  0.00000000000E+00  0.45593999997E+02  0.45594000000E+02  0.51100000000E-03 0.  1.
         11   -1    0    0    0    0 -0.00000000000E+00 -0.00000000000E+00 -0.45593999997E+02  0.45594000000E+02  0.51100000000E-03 0. -1.
    9900012    2    1    2    0    0  0.13991199794E+02 -0.38585523070E+01 -0.28391582067E+02  0.59301889703E+02  0.49999900925E+02 0.  0.
        -12    1    1    2    0    0 -0.13991199794E+02  0.38585523070E+01  0.28391582067E+02  0.31886110297E+02  0.00000000000E+00 0.  1.
         11    1    3    3    0    0  0.79756097330E+01 -0.61731166194E+01 -0.56313093866E+01  0.11551162932E+02  0.51100000000E-03 0. -1.
        -11    1    3    3    0    0  0.12794982762E+02 -0.15720390585E+02 -0.36152273138E+01  0.20589126568E+02  0.51100000000E-03 0.  1.
         12    1    3    3    0    0 -0.67793927011E+01  0.18034954897E+02 -0.19145045367E+02  0.27161600204E+02  0.00000000000E+00 0. -1.
</event>
<event>
 7    1  0.1284777E-011  0.5930192E+02  0.7816164E-02  0.1266605E+00
        -11   -1    0    0    0    0  0.00000000000E+00  0.00000000000E+00  0.45593999997E+02  0.45594000000E+02  0.51100000000E-03 0. -1.
         11   -1    0    0    0    0 -0.00000000000E+00 -0.00000000000E+00 -0.45593999997E+02  0.45594000000E+02  0.51100000000E-03 0.  1.
    9900012    2    1    2    0    0  0.10001908039E+02  0.18267027685E+02  0.24145385268E+02  0.59301920050E+02  0.49999956270E+02 0.  0.
        -12    1    1    2    0    0 -0.10001908039E+02 -0.18267027685E+02 -0.24145385268E+02  0.31886079950E+02  0.00000000000E+00 0.  1.
         11    1    3    3    0    0  0.99689776387E+01 -0.74307400629E+01  0.11465672340E+02  0.16913250885E+02  0.51100000000E-03 0. -1.
        -11    1    3    3    0    0  0.57166004765E+01  0.60477603597E+01  0.19194425111E+02  0.20920824123E+02  0.51100000000E-03 0.  1.
        -12    1    3    3    0    0 -0.56836700762E+01  0.19650007388E+02 -0.65147121835E+01  0.21467845041E+02  0.00000000000E+00 0.  1.
</event>
<event>
 7    1  0.1284777E-011  0.5930194E+02  0.7816164E-02  0.1266605E+00
        -11   -1    0    0    0    0  0.00000000000E+00  0.00000000000E+00  0.45593999997E+02  0.45594000000E+02  0.51100000000E-03 0. -1.
         11   -1    0    0    0    0 -0.00000000000E+00 -0.00000000000E+00 -0.45593999997E+02  0.45594000000E+02  0.51100000000E-03 0.  1.
    9900012    2    1    2    0    0  0.25454590814E+02  0.19045735641E+02  0.24586164637E+01  0.59301936673E+02  0.49999986586E+02 0.  0.
        -12    1    1    2    0    0 -0.25454590814E+02 -0.19045735641E+02 -0.24586164637E+01  0.31886063327E+02  0.00000000000E+00 0.  1.
         11    1    3    3    0    0  0.13899816873E+02  0.12306503864E+02  0.13908968047E+02  0.23197291628E+02  0.51100000000E-03 0. -1.
        -11    1    3    3    0    0 -0.25623829115E+01 -0.15069121347E+01  0.92561896332E+01  0.97218124418E+01  0.51100000000E-03 0.  1.
        -12    1    3    3    0    0  0.14117156852E+02  0.82461439117E+01 -0.20706541217E+02  0.26382832603E+02  0.00000000000E+00 0.  1.
</event>
<event>
 7    1  0.1284777E-011  0.5930195E+02  0.7816164E-02  0.1266605E+00
        -11   -1    0    0    0    0  0.00000000000E+00  0.00000000000E+00  0.45593999997E+02  0.45594000000E+02  0.51100000000E-03 0. -1.
         11   -1    0    0    0    0 -0.00000000000E+00 -0.00000000000E+00 -0.45593999997E+02  0.45594000000E+02  0.51100000000E-03 0.  1.
    9900012    2    1    2    0    0  0.98229371475E+01 -0.24860432394E+02 -0.17383593122E+02  0.59301945010E+02  0.50000001791E+02 0.  0.
        -12    1    1    2    0    0 -0.98229371475E+01  0.24860432394E+02  0.17383593122E+02  0.31886054990E+02  0.00000000000E+00 0.  1.
         11    1    3    3    0    0  0.18741370559E+01  0.22224999401E+01 -0.58967881156E+01  0.65744966369E+01  0.51100000000E-03 0. -1.
        -11    1    3    3    0    0  0.12420266227E+02  0.81242651965E+01 -0.85214013936E+01  0.17113765807E+02  0.51100000000E-03 0.  1.
         12    1    3    3    0    0 -0.44714661349E+01 -0.35207197530E+02 -0.29654036125E+01  0.35613682566E+02  0.00000000000E+00 0. -1.
</event>
<event>
 7    1  0.1284777E-011  0.5930188E+02  0.7816164E-02  0.1266605E+00
        -11   -1    0    0    0    0  0.00000000000E+00  0.00000000000E+00  0.45593999997E+02  0.45594000000E+02  0.51100000000E-03 0.  1.
         11   -1    0    0    0    0 -0.00000000000E+00 -0.00000000000E+00 -0.45593999997E+02  0.45594000000E+02  0.51100000000E-03 0. -1.
    9900012    2    1    2    0    0 -0.14345956927E+02 -0.27096631523E+02 -0.87573138445E+01  0.59301882867E+02  0.49999888458E+02 0.  0.
        -12    1    1    2    0    0  0.14345956927E+02  0.27096631523E+02  0.87573138445E+01  0.31886117133E+02  0.00000000000E+00 0.  1.
         11    1    3    3    0    0 -0.67750104399E+01  0.69411537758E+01  0.12141910932E+02  0.15540475653E+02  0.51100000000E-03 0. -1.
        -11    1    3    3    0    0  0.21460774180E+01 -0.86168330544E+01  0.85407431694E+00  0.89210371242E+01  0.51100000000E-03 0.  1.
        -12    1    3    3    0    0 -0.97170239048E+01 -0.25420952244E+02 -0.21753299093E+02  0.34840370090E+02  0.00000000000E+00 0.  1.
</event>
<event>
 7    1  0.1284777E-011  0.5930196E+02  0.7816164E-02  0.1266605E+00
        -11   -1    0    0    0    0  0.00000000000E+00  0.00000000000E+00  0.45593999997E+02  0.45594000000E+02  0.51100000000E-03 0.  1.
         11   -1    0    0    0    0 -0.00000000000E+00 -0.00000000000E+00 -0.45593999997E+02  0.45594000000E+02  0.51100000000E-03 0. -1.
    9900012    2    1    2    0    0 -0.26910979514E+02  0.13727752084E+02  0.10201357096E+02  0.59301957877E+02  0.50000025258E+02 0.  0.
        -12    1    1    2    0    0  0.26910979514E+02 -0.13727752084E+02 -0.10201357096E+02  0.31886042123E+02  0.00000000000E+00 0.  1.
         11    1    3    3    0    0 -0.72424589320E+01 -0.33649634064E+01  0.40817863384E+01  0.89686771645E+01  0.51100000000E-03 0. -1.
        -11    1    3    3    0    0 -0.30451246659E+02  0.18892382789E+01  0.81620350337E+01  0.31582692421E+02  0.51100000000E-03 0.  1.
         12    1    3    3    0    0  0.10782726078E+02  0.15203477211E+02 -0.20424642761E+01  0.18750588292E+02  0.00000000000E+00 0. -1.
</event>
<event>
 7    1  0.1284777E-011  0.5930195E+02  0.7816164E-02  0.1266605E+00
        -11   -1    0    0    0    0  0.00000000000E+00  0.00000000000E+00  0.45593999997E+02  0.45594000000E+02  0.51100000000E-03 0. -1.
         11   -1    0    0    0    0 -0.00000000000E+00 -0.00000000000E+00 -0.45593999997E+02  0.45594000000E+02  0.51100000000E-03 0.  1.
    9900012    2    1    2    0    0 -0.14405039860E+02  0.28424144742E+02  0.11327176313E+01  0.59301949336E+02  0.50000009681E+02 0.  0.
        -12    1    1    2    0    0  0.14405039860E+02 -0.28424144742E+02 -0.11327176313E+01  0.31886050664E+02  0.00000000000E+00 0.  1.
         11    1    3    3    0    0  0.16733771149E+02  0.46588919701E+01  0.42612666716E+01  0.17885266707E+02  0.51100000000E-03 0. -1.
        -11    1    3    3    0    0  0.12661425083E+01  0.34143497633E+00 -0.17993789257E+00  0.13236587932E+01  0.51100000000E-03 0.  1.
         12    1    3    3    0    0 -0.32404953518E+02  0.23423817796E+02 -0.29486111477E+01  0.40093023836E+02  0.00000000000E+00 0. -1.
</event>
<event>
 7    1  0.1284777E-011  0.5930194E+02  0.7816164E-02  0.1266605E+00
        -11   -1    0    0    0    0  0.00000000000E+00  0.00000000000E+00  0.45593999997E+02  0.45594000000E+02  0.51100000000E-03 0. -1.
         11   -1    0    0    0    0 -0.00000000000E+00 -0.00000000000E+00 -0.45593999997E+02  0.45594000000E+02  0.51100000000E-03 0.  1.
    9900012    2    1    2    0    0  0.25169837203E+02  0.62508295964E+01  0.18550674341E+02  0.59301935741E+02  0.49999984887E+02 0.  0.
        -12    1    1    2    0    0 -0.25169837203E+02 -0.62508295964E+01 -0.18550674341E+02  0.31886064259E+02  0.00000000000E+00 0.  1.
         11    1    3    3    0    0 -0.52483287715E+01  0.39575635509E+00  0.22256266446E+01  0.57144546729E+01  0.51100000000E-03 0. -1.
        -11    1    3    3    0    0 -0.51914082742E+01 -0.77539084564E+01  0.12030023942E+02  0.15224824877E+02  0.51100000000E-03 0.  1.
         12    1    3    3    0    0  0.35609574248E+02  0.13608981698E+02  0.42950237541E+01  0.38362656191E+02  0.00000000000E+00 0. -1.
</event>
<event>
 7    1  0.1284777E-011  0.5930216E+02  0.7816164E-02  0.1266604E+00
        -11   -1    0    0    0    0  0.00000000000E+00  0.00000000000E+00  0.45593999997E+02  0.45594000000E+02  0.51100000000E-03 0.  1.
         11   -1    0    0    0    0 -0.00000000000E+00 -0.00000000000E+00 -0.45593999997E+02  0.45594000000E+02  0.51100000000E-03 0. -1.
    9900012    2    1    2    0    0 -0.30447633472E+02 -0.60738826843E+01 -0.72633466283E+01  0.59302162404E+02  0.50000398265E+02 0.  0.
        -12    1    1    2    0    0  0.30447633472E+02  0.60738826843E+01  0.72633466283E+01  0.31885837596E+02  0.00000000000E+00 0.  1.
         11    1    3    3    0    0 -0.88487812159E+01  0.12056299803E+01  0.46693272446E+01  0.10077553762E+02  0.51100000000E-03 0. -1.
        -11    1    3    3    0    0 -0.11425902807E+02 -0.17171432632E+02  0.10141009394E+02  0.22983677368E+02  0.51100000000E-03 0.  1.
         12    1    3    3    0    0 -0.10172949450E+02  0.98919199673E+01 -0.22073683267E+02  0.26240931274E+02  0.00000000000E+00 0. -1.
</event>
<event>
 7    1  0.1284777E-011  0.5930193E+02  0.7816164E-02  0.1266605E+00
        -11   -1    0    0    0    0  0.00000000000E+00  0.00000000000E+00  0.45593999997E+02  0.45594000000E+02  0.51100000000E-03 0.  1.
         11   -1    0    0    0    0 -0.00000000000E+00 -0.00000000000E+00 -0.45593999997E+02  0.45594000000E+02  0.51100000000E-03 0. -1.
    9900012    2    1    2    0    0 -0.26727345478E+02 -0.17259149008E+02  0.21194623100E+01  0.59301931863E+02  0.49999977814E+02 0.  0.
        -12    1    1    2    0    0  0.26727345478E+02  0.17259149008E+02 -0.21194623100E+01  0.31886068137E+02  0.00000000000E+00 0.  1.
         11    1    3    3    0    0 -0.50100808712E+01 -0.20906219514E+01 -0.42348362155E+00  0.54452685074E+01  0.51100000000E-03 0. -1.
        -11    1    3    3    0    0 -0.27803630591E+02 -0.97977587523E+01  0.19301232896E+02  0.35235997818E+02  0.51100000000E-03 0.  1.
        -12    1    3    3    0    0  0.60863659851E+01 -0.53707683044E+01 -0.16758286965E+02  0.18620665538E+02  0.00000000000E+00 0.  1.
</event>
<event>
 7    1  0.1284777E-011  0.5930199E+02  0.7816164E-02  0.1266605E+00
        -11   -1    0    0    0    0  0.00000000000E+00  0.00000000000E+00  0.45593999997E+02  0.45594000000E+02  0.51100000000E-03 0.  1.
         11   -1    0    0    0    0 -0.00000000000E+00 -0.00000000000E+00 -0.45593999997E+02  0.45594000000E+02  0.51100000000E-03 0. -1.
    9900012    2    1    2    0    0  0.28694654294E+02  0.53111239329E+01 -0.12850163761E+02  0.59301985336E+02  0.50000075336E+02 0.  0.
        -12    1    1    2    0    0 -0.28694654294E+02 -0.53111239329E+01  0.12850163761E+02  0.31886014664E+02  0.00000000000E+00 0.  1.
         11    1    3    3    0    0  0.11804731263E+01  0.51913042342E+01 -0.23799817860E+02  0.24387998829E+02  0.51100000000E-03 0. -1.
        -11    1    3    3    0    0  0.13122601205E+01 -0.54089893926E+01 -0.88633406344E+00  0.56360253021E+01  0.51100000000E-03 0.  1.
        -12    1    3    3    0    0  0.26201921047E+02  0.55288090913E+01  0.11835988163E+02  0.29277961205E+02  0.00000000000E+00 0.  1.
</event>
<event>
 7    1  0.1284777E-011  0.5930191E+02  0.7816164E-02  0.1266605E+00
        -11   -1    0    0    0    0  0.00000000000E+00  0.00000000000E+00  0.45593999997E+02  0.45594000000E+02  0.51100000000E-03 0.  1.
         11   -1    0    0    0    0 -0.00000000000E+00 -0.00000000000E+00 -0.45593999997E+02  0.45594000000E+02  0.51100000000E-03 0. -1.
    9900012    2    1    2    0    0  0.14292354659E+02  0.10200662003E+02 -0.26615743614E+02  0.59301910319E+02  0.49999938523E+02 0.  0.
        -12    1    1    2    0    0 -0.14292354659E+02 -0.10200662003E+02  0.26615743614E+02  0.31886089681E+02  0.00000000000E+00 0.  1.
         11    1    3    3    0    0 -0.84472302769E+01 -0.66901638323E+01 -0.13795161273E+02  0.17504869787E+02  0.51100000000E-03 0. -1.
        -11    1    3    3    0    0  0.26979101745E+01  0.16361179553E+02  0.22250218117E+01  0.16730739314E+02  0.51100000000E-03 0.  1.
         12    1    3    3    0    0  0.20041674761E+02  0.52964628279E+00 -0.15045604153E+02  0.25066301218E+02  0.00000000000E+00 0. -1.
</event>
<event>
 7    1  0.1284777E-011  0.5930193E+02  0.7816164E-02  0.1266605E+00
        -11   -1    0    0    0    0  0.00000000000E+00  0.00000000000E+00  0.45593999997E+02  0.45594000000E+02  0.51100000000E-03 0.  1.
         11   -1    0    0    0    0 -0.00000000000E+00 -0.00000000000E+00 -0.45593999997E+02  0.45594000000E+02  0.51100000000E-03 0. -1.
    9900012    2    1    2    0    0 -0.15947595793E+02 -0.25791769844E+02  0.98580002154E+01  0.59301931389E+02  0.49999976950E+02 0.  0.
        -12    1    1    2    0    0  0.15947595793E+02  0.25791769844E+02 -0.98580002154E+01  0.31886068611E+02  0.00000000000E+00 0.  1.
         11    1    3    3    0    0 -0.10167671968E+02 -0.20391645116E+01 -0.18801389097E+01  0.10539196731E+02  0.51100000000E-03 0. -1.
        -11    1    3    3    0    0 -0.18760315698E+02 -0.57688995641E+00 -0.19676682782E+01  0.18872041910E+02  0.51100000000E-03 0.  1.
         12    1    3    3    0    0  0.12980391874E+02 -0.23175715376E+02  0.13705807403E+02  0.29890692748E+02  0.00000000000E+00 0. -1.
</event>
<event>
 7    1  0.1284777E-011  0.5930194E+02  0.7816164E-02  0.1266605E+00
        -11   -1    0    0    0    0  0.00000000000E+00  0.00000000000E+00  0.45593999997E+02  0.45594000000E+02  0.51100000000E-03 0.  1.
         11   -1    0    0    0    0 -0.00000000000E+00 -0.00000000000E+00 -0.45593999997E+02  0.45594000000E+02  0.51100000000E-03 0. -1.
    9900012    2    1    2    0    0 -0.25701666192E+02 -0.77328603628E+00 -0.18855951288E+02  0.59301944814E+02  0.50000001434E+02 0.  0.
        -12    1    1    2    0    0  0.25701666192E+02  0.77328603628E+00  0.18855951288E+02  0.31886055186E+02  0.00000000000E+00 0.  1.
         11    1    3    3    0    0 -0.24948230058E+02  0.16457951479E+02 -0.17632591905E+02  0.34701392587E+02  0.51100000000E-03 0. -1.
        -11    1    3    3    0    0 -0.46496789355E+01 -0.40917958340E+01  0.64097337413E+01  0.89133043394E+01  0.51100000000E-03 0.  1.
        -12    1    3    3    0    0  0.38962428009E+01 -0.13139441681E+02 -0.76330931240E+01  0.15687247888E+02  0.00000000000E+00 0.  1.
</event>
<event>
 7    1  0.1284777E-011  0.5930195E+02  0.7816164E-02  0.1266605E+00
        -11   -1    0    0    0    0  0.00000000000E+00  0.00000000000E+00  0.45593999997E+02  0.45594000000E+02  0.51100000000E-03 0.  1.
         11   -1    0    0    0    0 -0.00000000000E+00 -0.00000000000E+00 -0.45593999997E+02  0.45594000000E+02  0.51100000000E-03 0. -1.
    9900012    2    1    2    0    0 -0.98119710048E+00  0.23914698474E+02 -0.21067613720E+02  0.59301954483E+02  0.50000019067E+02 0.  0.
        -12    1    1    2    0    0  0.98119710048E+00 -0.23914698474E+02  0.21067613720E+02  0.31886045517E+02  0.00000000000E+00 0.  1.
         11    1    3    3    0    0 -0.57171076584E+01  0.10283710772E+02 -0.11526371244E+02  0.16471103835E+02  0.51100000000E-03 0. -1.
        -11    1    3    3    0    0 -0.15695807021E+02  0.72717618415E+01 -0.12341827283E+02  0.21249884218E+02  0.51100000000E-03 0.  1.
        -12    1    3    3    0    0  0.20431717579E+02  0.63592258606E+01  0.28005848064E+01  0.21580966430E+02  0.00000000000E+00 0.  1.
</event>
<event>
 7    1  0.1284777E-011  0.5930195E+02  0.7816164E-02  0.1266605E+00
        -11   -1    0    0    0    0  0.00000000000E+00  0.00000000000E+00  0.45593999997E+02  0.45594000000E+02  0.51100000000E-03 0. -1.
         11   -1    0    0    0    0 -0.00000000000E+00 -0.00000000000E+00 -0.45593999997E+02  0.45594000000E+02  0.51100000000E-03 0.  1.
    9900012    2    1    2    0    0 -0.25041058753E+02  0.16267277511E+02  0.11182177949E+02  0.59301952193E+02  0.50000014891E+02 0.  0.
        -12    1    1    2    0    0  0.25041058753E+02 -0.16267277511E+02 -0.11182177949E+02  0.31886047807E+02  0.00000000000E+00 0.  1.
         11    1    3    3    0    0  0.18770847363E+01 -0.14882141256E+01  0.81758135675E+00  0.25311396498E+01  0.51100000000E-03 0. -1.
        -11    1    3    3    0    0  0.50383742593E+01 -0.75427227340E+01 -0.79738134242E+01  0.12077234046E+02  0.51100000000E-03 0.  1.
        -12    1    3    3    0    0 -0.31956517748E+02  0.25298214370E+02  0.18338410017E+02  0.44693578497E+02  0.00000000000E+00 0.  1.
</event>
<event>
 7    1  0.1284777E-011  0.5930196E+02  0.7816164E-02  0.1266605E+00
        -11   -1    0    0    0    0  0.00000000000E+00  0.00000000000E+00  0.45593999997E+02  0.45594000000E+02  0.51100000000E-03 0. -1.
         11   -1    0    0    0    0 -0.00000000000E+00 -0.00000000000E+00 -0.45593999997E+02  0.45594000000E+02  0.51100000000E-03 0.  1.
    9900012    2    1    2    0    0 -0.14301226872E+02 -0.22257977727E+02  0.17798232670E+02  0.59301956835E+02  0.50000023357E+02 0.  0.
        -12    1    1    2    0    0  0.14301226872E+02  0.22257977727E+02 -0.17798232670E+02  0.31886043165E+02  0.00000000000E+00 0.  1.
         11    1    3    3    0    0  0.22066558043E+01 -0.65813993852E+01  0.16619860921E+02  0.18011216644E+02  0.51100000000E-03 0. -1.
        -11    1    3    3    0    0 -0.66316314905E+01  0.51588775478E+01  0.12923064155E+02  0.15414218799E+02  0.51100000000E-03 0.  1.
        -12    1    3    3    0    0 -0.98762511862E+01 -0.20835455890E+02 -0.11744692406E+02  0.25876521392E+02  0.00000000000E+00 0.  1.
</event>
<event>
 7    1  0.1284777E-011  0.5930194E+02  0.7816164E-02  0.1266605E+00
        -11   -1    0    0    0    0  0.00000000000E+00  0.00000000000E+00  0.45593999997E+02  0.45594000000E+02  0.51100000000E-03 0. -1.
         11   -1    0    0    0    0 -0.00000000000E+00 -0.00000000000E+00 -0.45593999997E+02  0.45594000000E+02  0.51100000000E-03 0.  1.
    9900012    2    1    2    0    0 -0.25386691584E+01 -0.15542069437E+02  0.27725800303E+02  0.59301940884E+02  0.49999994267E+02 0.  0.
        -12    1    1    2    0    0  0.25386691584E+01  0.15542069437E+02 -0.27725800303E+02  0.31886059116E+02  0.00000000000E+00 0.  1.
         11    1    3    3    0    0 -0.11237148123E+02 -0.90689459292E+01  0.27993376796E+01  0.14709030216E+02  0.51100000000E-03 0. -1.
        -11    1    3    3    0    0 -0.61487012217E+01 -0.35018333057E+01  0.28223104881E+02  0.29096615140E+02  0.51100000000E-03 0.  1.
        -12    1    3    3    0    0  0.14847180186E+02 -0.29712902017E+01 -0.32966422569E+01  0.15496295528E+02  0.00000000000E+00 0.  1.
</event>
<event>
 7    1  0.1284777E-011  0.5930193E+02  0.7816164E-02  0.1266605E+00
        -11   -1    0    0    0    0  0.00000000000E+00  0.00000000000E+00  0.45593999997E+02  0.45594000000E+02  0.51100000000E-03 0.  1.
         11   -1    0    0    0    0 -0.00000000000E+00 -0.00000000000E+00 -0.45593999997E+02  0.45594000000E+02  0.51100000000E-03 0. -1.
    9900012    2    1    2    0    0 -0.27603642532E+02  0.67118254854E+01 -0.14481432915E+02  0.59301928093E+02  0.49999970939E+02 0.  0.
        -12    1    1    2    0    0  0.27603642532E+02 -0.67118254854E+01  0.14481432915E+02  0.31886071907E+02  0.00000000000E+00 0.  1.
         11    1    3    3    0    0 -0.29628948540E+02  0.20843506331E+01  0.72418077793E+00  0.29711000441E+02  0.51100000000E-03 0.  1.
        -11    1    3    3    0    0 -0.91320668117E+01  0.90128474521E+01 -0.10955594478E+02  0.16871606742E+02  0.51100000000E-03 0. -1.
        -12    1    3    3    0    0  0.11157372820E+02 -0.43853725998E+01 -0.42500192148E+01  0.12719320910E+02  0.00000000000E+00 0.  1.
</event>
<event>
 7    1  0.1284777E-011  0.5930194E+02  0.7816164E-02  0.1266605E+00
        -11   -1    0    0    0    0  0.00000000000E+00  0.00000000000E+00  0.45593999997E+02  0.45594000000E+02  0.51100000000E-03 0.  1.
         11   -1    0    0    0    0 -0.00000000000E+00 -0.00000000000E+00 -0.45593999997E+02  0.45594000000E+02  0.51100000000E-03 0. -1.
    9900012    2    1    2    0    0  0.18397244471E+02  0.26023596245E+02  0.10172640526E+01  0.59301937342E+02  0.49999987807E+02 0.  0.
        -12    1    1    2    0    0 -0.18397244471E+02 -0.26023596245E+02 -0.10172640526E+01  0.31886062658E+02  0.00000000000E+00 0.  1.
         11    1    3    3    0    0  0.57299941725E+01 -0.57787136618E+01 -0.10601079428E+02  0.13364477173E+02  0.51100000000E-03 0. -1.
        -11    1    3    3    0    0  0.17534729861E+02  0.88762959478E+01 -0.27522831845E+00  0.19655307984E+02  0.51100000000E-03 0.  1.
         12    1    3    3    0    0 -0.48674795628E+01  0.22926013959E+02  0.11893571799E+02  0.26282152185E+02  0.00000000000E+00 0. -1.
</event>
<event>
 7    1  0.1284777E-011  0.5930185E+02  0.7816164E-02  0.1266605E+00
        -11   -1    0    0    0    0  0.00000000000E+00  0.00000000000E+00  0.45593999997E+02  0.45594000000E+02  0.51100000000E-03 0.  1.
         11   -1    0    0    0    0 -0.00000000000E+00 -0.00000000000E+00 -0.45593999997E+02  0.45594000000E+02  0.51100000000E-03 0. -1.
    9900012    2    1    2    0    0 -0.63676438367E+01  0.38144369125E+01 -0.31010158636E+02  0.59301846961E+02  0.49999822974E+02 0.  0.
        -12    1    1    2    0    0  0.63676438367E+01 -0.38144369125E+01  0.31010158636E+02  0.31886153039E+02  0.00000000000E+00 0.  1.
         11    1    3    3    0    0 -0.16762489192E+01  0.13258532893E+02 -0.16326458200E+02  0.21098619446E+02  0.51100000000E-03 0. -1.
        -11    1    3    3    0    0 -0.13776358477E+02  0.73422709244E+01 -0.32241930738E+01  0.15940276549E+02  0.51100000000E-03 0.  1.
         12    1    3    3    0    0  0.90849635598E+01 -0.16786366905E+02 -0.11459507362E+02  0.22262950966E+02  0.00000000000E+00 0. -1.
</event>
<event>
 7    1  0.1284777E-011  0.5930173E+02  0.7816164E-02  0.1266606E+00
        -11   -1    0    0    0    0  0.00000000000E+00  0.00000000000E+00  0.45593999997E+02  0.45594000000E+02  0.51100000000E-03 0.  1.
         11   -1    0    0    0    0 -0.00000000000E+00 -0.00000000000E+00 -0.45593999997E+02  0.45594000000E+02  0.51100000000E-03 0. -1.
    9900012    2    1    2    0    0 -0.80440274037E+01 -0.10941147679E+02 -0.28849941201E+02  0.59301730280E+02  0.49999610173E+02 0.  0.
        -12    1    1    2    0    0  0.80440274037E+01  0.10941147679E+02  0.28849941201E+02  0.31886269720E+02  0.00000000000E+00 0.  1.
         11    1    3    3    0    0 -0.59958796211E+00  0.11239384588E+01 -0.32912047581E+01  0.35291319619E+01  0.51100000000E-03 0. -1.
        -11    1    3    3    0    0  0.48296311606E+01  0.11623318881E+02 -0.26220352542E+02  0.29084940547E+02  0.51100000000E-03 0.  1.
         12    1    3    3    0    0 -0.12274070602E+02 -0.23688405018E+02  0.66161609901E+00  0.26687657771E+02  0.00000000000E+00 0. -1.
</event>
<event>
 7    1  0.1284777E-011  0.5930194E+02  0.7816164E-02  0.1266605E+00
        -11   -1    0    0    0    0  0.00000000000E+00  0.00000000000E+00  0.45593999997E+02  0.45594000000E+02  0.51100000000E-03 0.  1.
         11   -1    0    0    0    0 -0.00000000000E+00 -0.00000000000E+00 -0.45593999997E+02  0.45594000000E+02  0.51100000000E-03 0. -1.
    9900012    2    1    2    0    0  0.22234560839E+02 -0.22539798194E+02 -0.37818991618E+01  0.59301937847E+02  0.49999988729E+02 0.  0.
        -12    1    1    2    0    0 -0.22234560839E+02  0.22539798194E+02  0.37818991618E+01  0.31886062153E+02  0.00000000000E+00 0.  1.
         11    1    3    3    0    0  0.66071172312E+01 -0.23854657250E+02  0.14646599070E+01  0.24796046046E+02  0.51100000000E-03 0. -1.
        -11    1    3    3    0    0 -0.58471972238E+01 -0.54008543725E+01  0.53951903407E+01  0.96159774542E+01  0.51100000000E-03 0.  1.
         12    1    3    3    0    0  0.21474640832E+02  0.67157134286E+01 -0.10641749409E+02  0.24889914347E+02  0.00000000000E+00 0. -1.
</event>
<event>
 7    1  0.1284777E-011  0.5930195E+02  0.7816164E-02  0.1266605E+00
        -11   -1    0    0    0    0  0.00000000000E+00  0.00000000000E+00  0.45593999997E+02  0.45594000000E+02  0.51100000000E-03 0.  1.
         11   -1    0    0    0    0 -0.00000000000E+00 -0.00000000000E+00 -0.45593999997E+02  0.45594000000E+02  0.51100000000E-03 0. -1.
    9900012    2    1    2    0    0 -0.20460820367E+02 -0.57635271416E+01 -0.23766711967E+02  0.59301952692E+02  0.50000015802E+02 0.  0.
        -12    1    1    2    0    0  0.20460820367E+02  0.57635271416E+01  0.23766711967E+02  0.31886047308E+02  0.00000000000E+00 0.  1.
         11    1    3    3    0    0 -0.10797896708E+02 -0.99427887336E+01  0.56092498046E+00  0.14689052325E+02  0.51100000000E-03 0.  1.
        -11    1    3    3    0    0 -0.76759448048E+01 -0.14712984060E+02 -0.18252383636E+02  0.24668634686E+02  0.51100000000E-03 0. -1.
         12    1    3    3    0    0 -0.19869788548E+01  0.18892245652E+02 -0.60752533110E+01  0.19944265681E+02  0.00000000000E+00 0. -1.
</event>
<event>
 7    1  0.1284777E-011  0.5930194E+02  0.7816164E-02  0.1266605E+00
        -11   -1    0    0    0    0  0.00000000000E+00  0.00000000000E+00  0.45593999997E+02  0.45594000000E+02  0.51100000000E-03 0.  1.
         11   -1    0    0    0    0 -0.00000000000E+00 -0.00000000000E+00 -0.45593999997E+02  0.45594000000E+02  0.51100000000E-03 0. -1.
    9900012    2    1    2    0    0 -0.34903613111E+01 -0.23215564485E+02 -0.21577207169E+02  0.59301938380E+02  0.49999989699E+02 0.  0.
        -12    1    1    2    0    0  0.34903613111E+01  0.23215564485E+02  0.21577207169E+02  0.31886061620E+02  0.00000000000E+00 0.  1.
         11    1    3    3    0    0 -0.81800851723E+01 -0.22632924340E+02 -0.11212844945E+02  0.26549782478E+02  0.51100000000E-03 0. -1.
        -11    1    3    3    0    0 -0.76653592372E+01 -0.55372510535E+01 -0.15767661134E+02  0.18385810272E+02  0.51100000000E-03 0.  1.
        -12    1    3    3    0    0  0.12355083098E+02  0.49546109087E+01  0.54032989100E+01  0.14366345629E+02  0.00000000000E+00 0.  1.
</event>
<event>
 7    1  0.1284777E-011  0.5930196E+02  0.7816164E-02  0.1266605E+00
        -11   -1    0    0    0    0  0.00000000000E+00  0.00000000000E+00  0.45593999997E+02  0.45594000000E+02  0.51100000000E-03 0. -1.
         11   -1    0    0    0    0 -0.00000000000E+00 -0.00000000000E+00 -0.45593999997E+02  0.45594000000E+02  0.51100000000E-03 0.  1.
    9900012    2    1    2    0    0  0.99438432714E+00 -0.31249035619E+02  0.62632875766E+01  0.59301956053E+02  0.50000021931E+02 0.  0.
        -12    1    1    2    0    0 -0.99438432714E+00  0.31249035619E+02 -0.62632875766E+01  0.31886043947E+02  0.00000000000E+00 0.  1.
         11    1    3    3    0    0  0.11356334918E+02 -0.58132844258E+01  0.64951694281E+01  0.14315999607E+02  0.51100000000E-03 0. -1.
        -11    1    3    3    0    0  0.84327165002E+01  0.38173097975E+01 -0.38553105451E+01  0.10027261906E+02  0.51100000000E-03 0.  1.
        -12    1    3    3    0    0 -0.18794667092E+02 -0.29253060991E+02  0.36234286937E+01  0.34958694540E+02  0.00000000000E+00 0.  1.
</event>
<event>
 7    1  0.1284777E-011  0.5930197E+02  0.7816164E-02  0.1266605E+00
        -11   -1    0    0    0    0  0.00000000000E+00  0.00000000000E+00  0.45593999997E+02  0.45594000000E+02  0.51100000000E-03 0.  1.
         11   -1    0    0    0    0 -0.00000000000E+00 -0.00000000000E+00 -0.45593999997E+02  0.45594000000E+02  0.51100000000E-03 0. -1.
    9900012    2    1    2    0    0  0.43427814808E+01  0.46872621042E+01 -0.31239213986E+02  0.59301973790E+02  0.50000054279E+02 0.  0.
        -12    1    1    2    0    0 -0.43427814808E+01 -0.46872621042E+01  0.31239213986E+02  0.31886026210E+02  0.00000000000E+00 0.  1.
         11    1    3    3    0    0  0.35696545016E+01 -0.12591030926E+02 -0.10044056876E+02  0.16497259525E+02  0.51100000000E-03 0. -1.
        -11    1    3    3    0    0  0.11225665571E+01  0.46016580746E+01  0.89359553011E+01  0.10113689244E+02  0.51100000000E-03 0.  1.
         12    1    3    3    0    0 -0.34943957801E+00  0.12676634956E+02 -0.30131112411E+02  0.32691025021E+02  0.00000000000E+00 0. -1.
</event>
<event>
 7    1  0.1284777E-011  0.5930198E+02  0.7816164E-02  0.1266605E+00
        -11   -1    0    0    0    0  0.00000000000E+00  0.00000000000E+00  0.45593999997E+02  0.45594000000E+02  0.51100000000E-03 0.  1.
         11   -1    0    0    0    0 -0.00000000000E+00 -0.00000000000E+00 -0.45593999997E+02  0.45594000000E+02  0.51100000000E-03 0. -1.
    9900012    2    1    2    0    0  0.33577727345E+01  0.15416276463E+02 -0.27708884579E+02  0.59301976380E+02  0.50000059003E+02 0.  0.
        -12    1    1    2    0    0 -0.33577727345E+01 -0.15416276463E+02  0.27708884579E+02  0.31886023620E+02  0.00000000000E+00 0.  1.
         11    1    3    3    0    0  0.15481325886E+02  0.67255434859E+01 -0.25423528483E+01  0.17069503351E+02  0.51100000000E-03 0. -1.
        -11    1    3    3    0    0 -0.24537506052E+01  0.92455239725E+00  0.71511361066E+01  0.76167208853E+01  0.51100000000E-03 0.  1.
        -12    1    3    3    0    0 -0.96698025465E+01  0.77661805795E+01 -0.32317667837E+02  0.34615752144E+02  0.00000000000E+00 0.  1.
</event>
<event>
 7    1  0.1284777E-011  0.5930194E+02  0.7816164E-02  0.1266605E+00
        -11   -1    0    0    0    0  0.00000000000E+00  0.00000000000E+00  0.45593999997E+02  0.45594000000E+02  0.51100000000E-03 0.  1.
         11   -1    0    0    0    0 -0.00000000000E+00 -0.00000000000E+00 -0.45593999997E+02  0.45594000000E+02  0.51100000000E-03 0. -1.
    9900012    2    1    2    0    0  0.85615615908E+01 -0.53369814398E+01 -0.30247922979E+02  0.59301944234E+02  0.50000000376E+02 0.  0.
        -12    1    1    2    0    0 -0.85615615908E+01  0.53369814398E+01  0.30247922979E+02  0.31886055766E+02  0.00000000000E+00 0.  1.
         11    1    3    3    0    0  0.11788992771E+02  0.13255489216E+01 -0.58164544292E+00  0.11877530980E+02  0.51100000000E-03 0.  1.
        -11    1    3    3    0    0  0.10735211282E+02 -0.15213699114E+02 -0.79960503156E+01  0.20264210395E+02  0.51100000000E-03 0. -1.
        -12    1    3    3    0    0 -0.13962642462E+02  0.85511687530E+01 -0.21670227221E+02  0.27160202859E+02  0.00000000000E+00 0.  1.
</event>
<event>
 7    1  0.1284777E-011  0.5930209E+02  0.7816164E-02  0.1266604E+00
        -11   -1    0    0    0    0  0.00000000000E+00  0.00000000000E+00  0.45593999997E+02  0.45594000000E+02  0.51100000000E-03 0.  1.
         11   -1    0    0    0    0 -0.00000000000E+00 -0.00000000000E+00 -0.45593999997E+02  0.45594000000E+02  0.51100000000E-03 0. -1.
    9900012    2    1    2    0    0  0.20797700161E+01 -0.31648188304E+02 -0.32830020466E+01  0.59302088242E+02  0.50000263011E+02 0.  0.
        -12    1    1    2    0    0 -0.20797700161E+01  0.31648188304E+02  0.32830020466E+01  0.31885911758E+02  0.00000000000E+00 0.  1.
         11    1    3    3    0    0  0.23904290218E+02 -0.23771229678E+02 -0.31776790937E+00  0.33713312325E+02  0.51100000000E-03 0. -1.
        -11    1    3    3    0    0  0.78025938620E+00 -0.13447829558E+01  0.81815159793E+00  0.17568774022E+01  0.51100000000E-03 0.  1.
        -12    1    3    3    0    0 -0.22604779588E+02 -0.65321756696E+01 -0.37833857351E+01  0.23831898515E+02  0.00000000000E+00 0.  1.
</event>
<event>
 7    1  0.1284777E-011  0.5930194E+02  0.7816164E-02  0.1266605E+00
        -11   -1    0    0    0    0  0.00000000000E+00  0.00000000000E+00  0.45593999997E+02  0.45594000000E+02  0.51100000000E-03 0. -1.
         11   -1    0    0    0    0 -0.00000000000E+00 -0.00000000000E+00 -0.45593999997E+02  0.45594000000E+02  0.51100000000E-03 0.  1.
    9900012    2    1    2    0    0 -0.23593228611E+02  0.35261989064E+01  0.21157652068E+02  0.59301941039E+02  0.49999994550E+02 0.  0.
        -12    1    1    2    0    0  0.23593228611E+02 -0.35261989064E+01 -0.21157652068E+02  0.31886058961E+02  0.00000000000E+00 0.  1.
         11    1    3    3    0    0 -0.84783537183E+01 -0.63197231681E+01  0.21835223532E+02  0.24261046342E+02  0.51100000000E-03 0. -1.
        -11    1    3    3    0    0  0.66602762615E+01 -0.16121919479E+01  0.64633547330E+01  0.94198406261E+01  0.51100000000E-03 0.  1.
        -12    1    3    3    0    0 -0.21775151154E+02  0.11458114022E+02 -0.71409261969E+01  0.25621054071E+02  0.00000000000E+00 0.  1.
</event>
<event>
 7    1  0.1284777E-011  0.5930195E+02  0.7816164E-02  0.1266605E+00
        -11   -1    0    0    0    0  0.00000000000E+00  0.00000000000E+00  0.45593999997E+02  0.45594000000E+02  0.51100000000E-03 0. -1.
         11   -1    0    0    0    0 -0.00000000000E+00 -0.00000000000E+00 -0.45593999997E+02  0.45594000000E+02  0.51100000000E-03 0.  1.
    9900012    2    1    2    0    0 -0.15099966796E+02  0.23986215920E+02  0.14607289913E+02  0.59301945525E+02  0.50000002730E+02 0.  0.
        -12    1    1    2    0    0  0.15099966796E+02 -0.23986215920E+02 -0.14607289913E+02  0.31886054475E+02  0.00000000000E+00 0.  1.
         11    1    3    3    0    0 -0.46955924862E+01 -0.13373509537E+02 -0.29887176905E+01  0.14485571436E+02  0.51100000000E-03 0. -1.
        -11    1    3    3    0    0 -0.91896774060E+01  0.91623906941E+01  0.49436334422E+01  0.13886651358E+02  0.51100000000E-03 0.  1.
        -12    1    3    3    0    0 -0.12146969034E+01  0.28197334763E+02  0.12652374161E+02  0.30929722731E+02  0.00000000000E+00 0.  1.
</event>
<event>
 7    1  0.1284777E-011  0.5930202E+02  0.7816164E-02  0.1266604E+00
        -11   -1    0    0    0    0  0.00000000000E+00  0.00000000000E+00  0.45593999997E+02  0.45594000000E+02  0.51100000000E-03 0.  1.
         11   -1    0    0    0    0 -0.00000000000E+00 -0.00000000000E+00 -0.45593999997E+02  0.45594000000E+02  0.51100000000E-03 0. -1.
    9900012    2    1    2    0    0  0.10287109723E+02  0.29504776676E+02 -0.63528821606E+01  0.59302022127E+02  0.50000142434E+02 0.  0.
        -12    1    1    2    0    0 -0.10287109723E+02 -0.29504776676E+02  0.63528821606E+01  0.31885977873E+02  0.00000000000E+00 0.  1.
         11    1    3    3    0    0  0.21631004501E+02  0.99853462465E+01 -0.14172947196E+02  0.27721470521E+02  0.51100000000E-03 0. -1.
        -11    1    3    3    0    0 -0.29093397596E+01 -0.14242419465E+01  0.83915357323E+01  0.89950316935E+01  0.51100000000E-03 0.  1.
         12    1    3    3    0    0 -0.84345550177E+01  0.20943672376E+02 -0.57147069660E+00  0.22585519912E+02  0.00000000000E+00 0. -1.
</event>
<event>
 7    1  0.1284777E-011  0.5930195E+02  0.7816164E-02  0.1266605E+00
        -11   -1    0    0    0    0  0.00000000000E+00  0.00000000000E+00  0.45593999997E+02  0.45594000000E+02  0.51100000000E-03 0. -1.
         11   -1    0    0    0    0 -0.00000000000E+00 -0.00000000000E+00 -0.45593999997E+02  0.45594000000E+02  0.51100000000E-03 0.  1.
    9900012    2    1    2    0    0  0.53548346869E+00 -0.26318355615E+01  0.31772739423E+02  0.59301948639E+02  0.50000008410E+02 0.  0.
        -12    1    1    2    0    0 -0.53548346869E+00  0.26318355615E+01 -0.31772739423E+02  0.31886051361E+02  0.00000000000E+00 0.  1.
         11    1    3    3    0    0  0.35341569860E+01  0.64149657205E+01  0.60983503684E+01  0.95305785907E+01  0.51100000000E-03 0. -1.
        -11    1    3    3    0    0  0.76907219108E+01  0.16120279523E+01 -0.90035485186E+01  0.11950302248E+02  0.51100000000E-03 0.  1.
        -12    1    3    3    0    0 -0.10689395428E+02 -0.10658829234E+02  0.34677937573E+02  0.37821067801E+02  0.00000000000E+00 0.  1.
</event>
<event>
 7    1  0.1284777E-011  0.5930195E+02  0.7816164E-02  0.1266605E+00
        -11   -1    0    0    0    0  0.00000000000E+00  0.00000000000E+00  0.45593999997E+02  0.45594000000E+02  0.51100000000E-03 0.  1.
         11   -1    0    0    0    0 -0.00000000000E+00 -0.00000000000E+00 -0.45593999997E+02  0.45594000000E+02  0.51100000000E-03 0. -1.
    9900012    2    1    2    0    0  0.29057327463E+02  0.12468270503E+02  0.41151176882E+01  0.59301949096E+02  0.50000009244E+02 0.  0.
        -12    1    1    2    0    0 -0.29057327463E+02 -0.12468270503E+02 -0.41151176882E+01  0.31886050904E+02  0.00000000000E+00 0.  1.
         11    1    3    3    0    0  0.18100529872E+02  0.71545052368E+01  0.16271585801E+02  0.25368891019E+02  0.51100000000E-03 0. -1.
        -11    1    3    3    0    0  0.20027920560E+02  0.79447824855E+01 -0.11603306458E+02  0.24471900043E+02  0.51100000000E-03 0.  1.
        -12    1    3    3    0    0 -0.90711229690E+01 -0.26310172187E+01 -0.55316165407E+00  0.94611580337E+01  0.00000000000E+00 0.  1.
</event>
<event>
 7    1  0.1284777E-011  0.5930192E+02  0.7816164E-02  0.1266605E+00
        -11   -1    0    0    0    0  0.00000000000E+00  0.00000000000E+00  0.45593999997E+02  0.45594000000E+02  0.51100000000E-03 0. -1.
         11   -1    0    0    0    0 -0.00000000000E+00 -0.00000000000E+00 -0.45593999997E+02  0.45594000000E+02  0.51100000000E-03 0.  1.
    9900012    2    1    2    0    0 -0.25994218343E+02  0.12411713194E+02  0.13673764280E+02  0.59301924023E+02  0.49999963515E+02 0.  0.
        -12    1    1    2    0    0  0.25994218343E+02 -0.12411713194E+02 -0.13673764280E+02  0.31886075977E+02  0.00000000000E+00 0.  1.
         11    1    3    3    0    0 -0.59688685342E+00 -0.69673833729E+00 -0.14304956471E+01  0.16994223383E+01  0.51100000000E-03 0. -1.
        -11    1    3    3    0    0 -0.12721449704E+02 -0.16184835892E+01 -0.16259082170E+02  0.20707788993E+02  0.51100000000E-03 0.  1.
         12    1    3    3    0    0 -0.12675881785E+02  0.14726935121E+02  0.31363342097E+02  0.36894712691E+02  0.00000000000E+00 0. -1.
</event>
<event>
 7    1  0.1284777E-011  0.5930196E+02  0.7816164E-02  0.1266605E+00
        -11   -1    0    0    0    0  0.00000000000E+00  0.00000000000E+00  0.45593999997E+02  0.45594000000E+02  0.51100000000E-03 0.  1.
         11   -1    0    0    0    0 -0.00000000000E+00 -0.00000000000E+00 -0.45593999997E+02  0.45594000000E+02  0.51100000000E-03 0. -1.
    9900012    2    1    2    0    0  0.27438035690E+02  0.41908937481E+01 -0.15694264030E+02  0.59301963614E+02  0.50000035721E+02 0.  0.
        -12    1    1    2    0    0 -0.27438035690E+02 -0.41908937481E+01  0.15694264030E+02  0.31886036386E+02  0.00000000000E+00 0.  1.
         11    1    3    3    0    0 -0.59172191864E+01  0.33149744556E+01 -0.27508166517E+01  0.73191209208E+01  0.51100000000E-03 0. -1.
        -11    1    3    3    0    0 -0.81442321293E+01  0.27373149552E+01 -0.40577386036E+01  0.95019289082E+01  0.51100000000E-03 0.  1.
        -12    1    3    3    0    0  0.41499487006E+02 -0.18613956626E+01 -0.88857087751E+01  0.42480913785E+02  0.00000000000E+00 0.  1.
</event>
<event>
 7    1  0.1284777E-011  0.5930194E+02  0.7816164E-02  0.1266605E+00
        -11   -1    0    0    0    0  0.00000000000E+00  0.00000000000E+00  0.45593999997E+02  0.45594000000E+02  0.51100000000E-03 0. -1.
         11   -1    0    0    0    0 -0.00000000000E+00 -0.00000000000E+00 -0.45593999997E+02  0.45594000000E+02  0.51100000000E-03 0.  1.
    9900012    2    1    2    0    0  0.29145260360E+02 -0.85341084409E+01  0.97181989238E+01  0.59301943507E+02  0.49999999050E+02 0.  0.
        -12    1    1    2    0    0 -0.29145260360E+02  0.85341084409E+01 -0.97181989238E+01  0.31886056493E+02  0.00000000000E+00 0.  1.
         11    1    3    3    0    0  0.12913877831E+02 -0.13979705141E+00  0.20158050360E+02  0.23940233466E+02  0.51100000000E-03 0. -1.
        -11    1    3    3    0    0  0.90342880093E+01  0.98244814319E+01 -0.81525504968E+01  0.15639785008E+02  0.51100000000E-03 0.  1.
         12    1    3    3    0    0  0.71970945200E+01 -0.18218792821E+02 -0.22873009391E+01  0.19721925032E+02  0.00000000000E+00 0. -1.
</event>
<event>
 7    1  0.1284777E-011  0.5930193E+02  0.7816164E-02  0.1266605E+00
        -11   -1    0    0    0    0  0.00000000000E+00  0.00000000000E+00  0.45593999997E+02  0.45594000000E+02  0.51100000000E-03 0. -1.
         11   -1    0    0    0    0 -0.00000000000E+00 -0.00000000000E+00 -0.45593999997E+02  0.45594000000E+02  0.51100000000E-03 0.  1.
    9900012    2    1    2    0    0  0.93354592531E+01 -0.14388412431E+02  0.26880186207E+02  0.59301927456E+02  0.49999969778E+02 0.  0.
        -12    1    1    2    0    0 -0.93354592531E+01  0.14388412431E+02 -0.26880186207E+02  0.31886072544E+02  0.00000000000E+00 0.  1.
         11    1    3    3    0    0 -0.81383644230E+01 -0.11809918787E+02 -0.38160966332E+01  0.14841487494E+02  0.51100000000E-03 0. -1.
        -11    1    3    3    0    0  0.17990878218E+02  0.24181434493E+01  0.57915671930E+01  0.19054169298E+02  0.51100000000E-03 0.  1.
         12    1    3    3    0    0 -0.51705454235E+00 -0.49966370926E+01  0.24904715647E+02  0.25406270665E+02  0.00000000000E+00 0. -1.
</event>
<event>
 7    1  0.1284777E-011  0.5930197E+02  0.7816164E-02  0.1266605E+00
        -11   -1    0    0    0    0  0.00000000000E+00  0.00000000000E+00  0.45593999997E+02  0.45594000000E+02  0.51100000000E-03 0.  1.
         11   -1    0    0    0    0 -0.00000000000E+00 -0.00000000000E+00 -0.45593999997E+02  0.45594000000E+02  0.51100000000E-03 0. -1.
    9900012    2    1    2    0    0 -0.30748314322E+01  0.93226994452E+01 -0.30337301868E+02  0.59301965472E+02  0.50000039109E+02 0.  0.
        -12    1    1    2    0    0  0.30748314322E+01 -0.93226994452E+01  0.30337301868E+02  0.31886034528E+02  0.00000000000E+00 0.  1.
         11    1    3    3    0    0 -0.15693433147E+02 -0.77968150237E+01 -0.19122772263E+02  0.25937513137E+02  0.51100000000E-03 0. -1.
        -11    1    3    3    0    0 -0.11465392662E+01 -0.28912032950E+01  0.37225475264E+01  0.48508730275E+01  0.51100000000E-03 0.  1.
         12    1    3    3    0    0  0.13765140982E+02  0.20010717764E+02 -0.14937077132E+02  0.28513579307E+02  0.00000000000E+00 0. -1.
</event>
<event>
 7    1  0.1284777E-011  0.5930194E+02  0.7816164E-02  0.1266605E+00
        -11   -1    0    0    0    0  0.00000000000E+00  0.00000000000E+00  0.45593999997E+02  0.45594000000E+02  0.51100000000E-03 0. -1.
         11   -1    0    0    0    0 -0.00000000000E+00 -0.00000000000E+00 -0.45593999997E+02  0.45594000000E+02  0.51100000000E-03 0.  1.
    9900012    2    1    2    0    0  0.25575215136E+02 -0.13047199325E+02  0.13870833684E+02  0.59301936170E+02  0.49999985669E+02 0.  0.
        -12    1    1    2    0    0 -0.25575215136E+02  0.13047199325E+02 -0.13870833684E+02  0.31886063830E+02  0.00000000000E+00 0.  1.
         11    1    3    3    0    0  0.68900881598E+01 -0.54302247848E+01 -0.79282780053E+01  0.11824476667E+02  0.51100000000E-03 0.  1.
        -11    1    3    3    0    0  0.93882134141E+01 -0.12485526306E+02 -0.67823646670E+01  0.17030190515E+02  0.51100000000E-03 0. -1.
         12    1    3    3    0    0  0.92969135622E+01  0.48685517662E+01  0.28581476357E+02  0.30447268988E+02  0.00000000000E+00 0. -1.
</event>
<event>
 7    1  0.1284777E-011  0.5930189E+02  0.7816164E-02  0.1266605E+00
        -11   -1    0    0    0    0  0.00000000000E+00  0.00000000000E+00  0.45593999997E+02  0.45594000000E+02  0.51100000000E-03 0.  1.
         11   -1    0    0    0    0 -0.00000000000E+00 -0.00000000000E+00 -0.45593999997E+02  0.45594000000E+02  0.51100000000E-03 0. -1.
    9900012    2    1    2    0    0 -0.25074423473E+02  0.50728471843E+01 -0.19033226088E+02  0.59301887249E+02  0.49999896450E+02 0.  0.
        -12    1    1    2    0    0  0.25074423473E+02 -0.50728471843E+01  0.19033226088E+02  0.31886112751E+02  0.00000000000E+00 0.  1.
         11    1    3    3    0    0 -0.26026032247E+02  0.16356085797E+01  0.84193369497E+01  0.27402824761E+02  0.51100000000E-03 0. -1.
        -11    1    3    3    0    0  0.70964163969E+01 -0.46637065513E-01 -0.59334200304E+01  0.92502310356E+01  0.51100000000E-03 0.  1.
        -12    1    3    3    0    0 -0.61448076222E+01  0.34838756701E+01 -0.21519143007E+02  0.22648831452E+02  0.00000000000E+00 0.  1.
</event>
<event>
 7    1  0.1284777E-011  0.5930189E+02  0.7816164E-02  0.1266605E+00
        -11   -1    0    0    0    0  0.00000000000E+00  0.00000000000E+00  0.45593999997E+02  0.45594000000E+02  0.51100000000E-03 0.  1.
         11   -1    0    0    0    0 -0.00000000000E+00 -0.00000000000E+00 -0.45593999997E+02  0.45594000000E+02  0.51100000000E-03 0. -1.
    9900012    2    1    2    0    0 -0.16224612043E+01 -0.27790328456E+02 -0.15549567850E+02  0.59301893365E+02  0.49999907603E+02 0.  0.
        -12    1    1    2    0    0  0.16224612043E+01  0.27790328456E+02  0.15549567850E+02  0.31886106635E+02  0.00000000000E+00 0.  1.
         11    1    3    3    0    0 -0.18241542160E+02 -0.11556948686E+02 -0.13552402966E+02  0.25494794561E+02  0.51100000000E-03 0. -1.
        -11    1    3    3    0    0  0.45613475335E+01  0.50440823854E+01  0.49170594431E+01  0.83920278991E+01  0.51100000000E-03 0.  1.
        -12    1    3    3    0    0  0.12057733422E+02 -0.21277462156E+02 -0.69142243271E+01  0.25415070905E+02  0.00000000000E+00 0.  1.
</event>
<event>
 7    1  0.1284777E-011  0.5930199E+02  0.7816164E-02  0.1266605E+00
        -11   -1    0    0    0    0  0.00000000000E+00  0.00000000000E+00  0.45593999997E+02  0.45594000000E+02  0.51100000000E-03 0. -1.
         11   -1    0    0    0    0 -0.00000000000E+00 -0.00000000000E+00 -0.45593999997E+02  0.45594000000E+02  0.51100000000E-03 0.  1.
    9900012    2    1    2    0    0  0.30104090418E+02  0.50819765204E+01  0.91997247187E+01  0.59301989272E+02  0.50000082515E+02 0.  0.
        -12    1    1    2    0    0 -0.30104090418E+02 -0.50819765204E+01 -0.91997247187E+01  0.31886010728E+02  0.00000000000E+00 0.  1.
         11    1    3    3    0    0  0.17727420203E+01 -0.25671833305E+01 -0.78999606756E+00  0.32182508558E+01  0.51100000000E-03 0. -1.
        -11    1    3    3    0    0  0.24174355142E+02 -0.15033025968E+02 -0.45412816268E+01  0.28827323070E+02  0.51100000000E-03 0.  1.
         12    1    3    3    0    0  0.41569932553E+01  0.22682185819E+02  0.14531002413E+02  0.27256415347E+02  0.00000000000E+00 0. -1.
</event>
<event>
 7    1  0.1284777E-011  0.5930194E+02  0.7816164E-02  0.1266605E+00
        -11   -1    0    0    0    0  0.00000000000E+00  0.00000000000E+00  0.45593999997E+02  0.45594000000E+02  0.51100000000E-03 0.  1.
         11   -1    0    0    0    0 -0.00000000000E+00 -0.00000000000E+00 -0.45593999997E+02  0.45594000000E+02  0.51100000000E-03 0. -1.
    9900012    2    1    2    0    0 -0.20025633674E+02  0.22673012911E+02 -0.10081137616E+02  0.59301939500E+02  0.49999991743E+02 0.  0.
        -12    1    1    2    0    0  0.20025633674E+02 -0.22673012911E+02  0.10081137616E+02  0.31886060500E+02  0.00000000000E+00 0.  1.
         11    1    3    3    0    0 -0.29459555097E+02 -0.13959645986E+01 -0.25991784666E+01  0.29606922040E+02  0.51100000000E-03 0. -1.
        -11    1    3    3    0    0 -0.15990501887E+01 -0.53587029268E+00  0.83660631927E-01  0.16885253445E+01  0.51100000000E-03 0.  1.
         12    1    3    3    0    0  0.11032971612E+02  0.24604847803E+02 -0.75656197817E+01  0.28006492116E+02  0.00000000000E+00 0. -1.
</event>
<event>
 7    1  0.1284777E-011  0.5930194E+02  0.7816164E-02  0.1266605E+00
        -11   -1    0    0    0    0  0.00000000000E+00  0.00000000000E+00  0.45593999997E+02  0.45594000000E+02  0.51100000000E-03 0.  1.
         11   -1    0    0    0    0 -0.00000000000E+00 -0.00000000000E+00 -0.45593999997E+02  0.45594000000E+02  0.51100000000E-03 0. -1.
    9900012    2    1    2    0    0 -0.16178873520E+02  0.10565595990E+02 -0.25364008984E+02  0.59301941624E+02  0.49999995617E+02 0.  0.
        -12    1    1    2    0    0  0.16178873520E+02 -0.10565595990E+02  0.25364008984E+02  0.31886058376E+02  0.00000000000E+00 0.  1.
         11    1    3    3    0    0 -0.20042436721E+01  0.56483316823E+01  0.90742414973E+01  0.10874856436E+02  0.51100000000E-03 0. -1.
        -11    1    3    3    0    0 -0.10906084142E+02 -0.10604677666E+02 -0.70257729865E+01  0.16755994331E+02  0.51100000000E-03 0.  1.
         12    1    3    3    0    0 -0.32685457062E+01  0.15521941974E+02 -0.27412477495E+02  0.31671090857E+02  0.00000000000E+00 0. -1.
</event>
<event>
 7    1  0.1284777E-011  0.5930195E+02  0.7816164E-02  0.1266605E+00
        -11   -1    0    0    0    0  0.00000000000E+00  0.00000000000E+00  0.45593999997E+02  0.45594000000E+02  0.51100000000E-03 0. -1.
         11   -1    0    0    0    0 -0.00000000000E+00 -0.00000000000E+00 -0.45593999997E+02  0.45594000000E+02  0.51100000000E-03 0.  1.
    9900012    2    1    2    0    0 -0.25786291972E+02 -0.18422540838E+02 -0.35209437178E+01  0.59301954318E+02  0.50000018766E+02 0.  0.
        -12    1    1    2    0    0  0.25786291972E+02  0.18422540838E+02  0.35209437178E+01  0.31886045682E+02  0.00000000000E+00 0.  1.
         11    1    3    3    0    0 -0.96656302990E+01  0.44015123558E+01  0.55625556504E+01  0.11989151168E+02  0.51100000000E-03 0. -1.
        -11    1    3    3    0    0 -0.15010074330E+02  0.45314054831E+01 -0.12049819801E+02  0.19774582791E+02  0.51100000000E-03 0.  1.
        -12    1    3    3    0    0 -0.11105873431E+01 -0.27355458677E+02  0.29663204324E+01  0.27538220359E+02  0.00000000000E+00 0.  1.
</event>
<event>
 7    1  0.1284777E-011  0.5930194E+02  0.7816164E-02  0.1266605E+00
        -11   -1    0    0    0    0  0.00000000000E+00  0.00000000000E+00  0.45593999997E+02  0.45594000000E+02  0.51100000000E-03 0.  1.
         11   -1    0    0    0    0 -0.00000000000E+00 -0.00000000000E+00 -0.45593999997E+02  0.45594000000E+02  0.51100000000E-03 0. -1.
    9900012    2    1    2    0    0  0.36461295079E+00 -0.26860072310E+02 -0.17179190146E+02  0.59301937196E+02  0.49999987540E+02 0.  0.
        -12    1    1    2    0    0 -0.36461295079E+00  0.26860072310E+02  0.17179190146E+02  0.31886062804E+02  0.00000000000E+00 0.  1.
         11    1    3    3    0    0 -0.20707189880E+02 -0.18852832687E+02 -0.18101497283E+02  0.33344882924E+02  0.51100000000E-03 0. -1.
        -11    1    3    3    0    0 -0.15255762793E+01 -0.11981796482E+01 -0.11669663140E+01  0.22638083162E+01  0.51100000000E-03 0.  1.
        -12    1    3    3    0    0  0.22597379110E+02 -0.68090599741E+01  0.20892734514E+01  0.23693245956E+02  0.00000000000E+00 0.  1.
</event>
<event>
 7    1  0.1284777E-011  0.5930195E+02  0.7816164E-02  0.1266605E+00
        -11   -1    0    0    0    0  0.00000000000E+00  0.00000000000E+00  0.45593999997E+02  0.45594000000E+02  0.51100000000E-03 0. -1.
         11   -1    0    0    0    0 -0.00000000000E+00 -0.00000000000E+00 -0.45593999997E+02  0.45594000000E+02  0.51100000000E-03 0.  1.
    9900012    2    1    2    0    0  0.26533567764E+02 -0.53449305361E+01  0.16855914722E+02  0.59301947221E+02  0.50000005823E+02 0.  0.
        -12    1    1    2    0    0 -0.26533567764E+02  0.53449305361E+01 -0.16855914722E+02  0.31886052779E+02  0.00000000000E+00 0.  1.
         11    1    3    3    0    0  0.21531621804E+02 -0.22230649714E+02  0.61824705011E+01  0.31560029562E+02  0.51100000000E-03 0. -1.
        -11    1    3    3    0    0  0.99121282998E+01  0.14185573551E+02  0.20068002951E+01  0.17421481914E+02  0.51100000000E-03 0.  1.
        -12    1    3    3    0    0 -0.49101823398E+01  0.27001456270E+01  0.86666439263E+01  0.10320435745E+02  0.00000000000E+00 0.  1.
</event>
<event>
 7    1  0.1284777E-011  0.5930194E+02  0.7816164E-02  0.1266605E+00
        -11   -1    0    0    0    0  0.00000000000E+00  0.00000000000E+00  0.45593999997E+02  0.45594000000E+02  0.51100000000E-03 0.  1.
         11   -1    0    0    0    0 -0.00000000000E+00 -0.00000000000E+00 -0.45593999997E+02  0.45594000000E+02  0.51100000000E-03 0. -1.
    9900012    2    1    2    0    0  0.23314025862E+02  0.16848270552E+02 -0.13759087711E+02  0.59301944786E+02  0.50000001382E+02 0.  0.
        -12    1    1    2    0    0 -0.23314025862E+02 -0.16848270552E+02  0.13759087711E+02  0.31886055214E+02  0.00000000000E+00 0.  1.
         11    1    3    3    0    0 -0.10790667458E+01  0.16352352217E+02 -0.19127872174E+02  0.25188078574E+02  0.51100000000E-03 0. -1.
        -11    1    3    3    0    0 -0.47640153967E+00 -0.73829974346E+01  0.27585096465E+01  0.78958840719E+01  0.51100000000E-03 0.  1.
        -12    1    3    3    0    0  0.24869494148E+02  0.78789157698E+01  0.26102748168E+01  0.26217982140E+02  0.00000000000E+00 0.  1.
</event>
<event>
 7    1  0.1284777E-011  0.5930196E+02  0.7816164E-02  0.1266605E+00
        -11   -1    0    0    0    0  0.00000000000E+00  0.00000000000E+00  0.45593999997E+02  0.45594000000E+02  0.51100000000E-03 0.  1.
         11   -1    0    0    0    0 -0.00000000000E+00 -0.00000000000E+00 -0.45593999997E+02  0.45594000000E+02  0.51100000000E-03 0. -1.
    9900012    2    1    2    0    0 -0.27412735545E+02 -0.13055848722E+02 -0.97368360568E+01  0.59301964933E+02  0.50000038126E+02 0.  0.
        -12    1    1    2    0    0  0.27412735545E+02  0.13055848722E+02  0.97368360568E+01  0.31886035067E+02  0.00000000000E+00 0.  1.
         11    1    3    3    0    0 -0.87812203996E+01 -0.57348766568E+01 -0.70606581405E+01  0.12643240709E+02  0.51100000000E-03 0. -1.
        -11    1    3    3    0    0  0.12699155523E+02 -0.82967982958E+01 -0.20454914533E+01  0.15306516538E+02  0.51100000000E-03 0.  1.
         12    1    3    3    0    0 -0.31330670669E+02  0.97582623094E+00 -0.63068646298E+00  0.31352207687E+02  0.00000000000E+00 0. -1.
</event>
<event>
 7    1  0.1284777E-011  0.5930197E+02  0.7816164E-02  0.1266605E+00
        -11   -1    0    0    0    0  0.00000000000E+00  0.00000000000E+00  0.45593999997E+02  0.45594000000E+02  0.51100000000E-03 0.  1.
         11   -1    0    0    0    0 -0.00000000000E+00 -0.00000000000E+00 -0.45593999997E+02  0.45594000000E+02  0.51100000000E-03 0. -1.
    9900012    2    1    2    0    0 -0.28531905058E+02 -0.33854007561E+01 -0.13827086209E+02  0.59301970809E+02  0.50000048843E+02 0.  0.
        -12    1    1    2    0    0  0.28531905058E+02  0.33854007561E+01  0.13827086209E+02  0.31886029191E+02  0.00000000000E+00 0.  1.
         11    1    3    3    0    0  0.49709161120E+01 -0.11583254900E+02 -0.17731000174E+02  0.21754773464E+02  0.51100000000E-03 0. -1.
        -11    1    3    3    0    0 -0.26231645079E+02 -0.19594739327E+00  0.30526857917E+01  0.26409401540E+02  0.51100000000E-03 0.  1.
        -12    1    3    3    0    0 -0.72711760910E+01  0.83938015367E+01  0.85122817245E+00  0.11137795805E+02  0.00000000000E+00 0.  1.
</event>
<event>
 7    1  0.1284777E-011  0.5930192E+02  0.7816164E-02  0.1266605E+00
        -11   -1    0    0    0    0  0.00000000000E+00  0.00000000000E+00  0.45593999997E+02  0.45594000000E+02  0.51100000000E-03 0.  1.
         11   -1    0    0    0    0 -0.00000000000E+00 -0.00000000000E+00 -0.45593999997E+02  0.45594000000E+02  0.51100000000E-03 0. -1.
    9900012    2    1    2    0    0  0.78134885414E+01 -0.29808216569E+02 -0.81940044140E+01  0.59301920176E+02  0.49999956501E+02 0.  0.
        -12    1    1    2    0    0 -0.78134885414E+01  0.29808216569E+02  0.81940044140E+01  0.31886079824E+02  0.00000000000E+00 0.  1.
         11    1    3    3    0    0 -0.52643195370E+00 -0.20263729035E+00  0.75031539231E+01  0.75243279785E+01  0.51100000000E-03 0. -1.
        -11    1    3    3    0    0  0.17061893065E+02  0.32339918505E+00 -0.44084112498E+00  0.17070650929E+02  0.51100000000E-03 0.  1.
         12    1    3    3    0    0 -0.87219725695E+01 -0.29928978463E+02 -0.15256317212E+02  0.34706941269E+02  0.00000000000E+00 0. -1.
</event>
<event>
 7    1  0.1284777E-011  0.5930224E+02  0.7816164E-02  0.1266604E+00
        -11   -1    0    0    0    0  0.00000000000E+00  0.00000000000E+00  0.45593999997E+02  0.45594000000E+02  0.51100000000E-03 0.  1.
         11   -1    0    0    0    0 -0.00000000000E+00 -0.00000000000E+00 -0.45593999997E+02  0.45594000000E+02  0.51100000000E-03 0. -1.
    9900012    2    1    2    0    0  0.24511808275E+02 -0.20057271719E+02 -0.36849394413E+01  0.59302240288E+02  0.50000540305E+02 0.  0.
        -12    1    1    2    0    0 -0.24511808275E+02  0.20057271719E+02  0.36849394413E+01  0.31885759712E+02  0.00000000000E+00 0.  1.
         11    1    3    3    0    0  0.10248930988E+02  0.43903710601E+01  0.96294238908E+01  0.14732336854E+02  0.51100000000E-03 0. -1.
        -11    1    3    3    0    0 -0.79498697003E+01 -0.14169123944E+02  0.88969872755E+00  0.16271326488E+02  0.51100000000E-03 0.  1.
        -12    1    3    3    0    0  0.22212746987E+02 -0.10278518835E+02 -0.14204062060E+02  0.28298576946E+02  0.00000000000E+00 0.  1.
</event>
<event>
 7    1  0.1284777E-011  0.5930196E+02  0.7816164E-02  0.1266605E+00
        -11   -1    0    0    0    0  0.00000000000E+00  0.00000000000E+00  0.45593999997E+02  0.45594000000E+02  0.51100000000E-03 0. -1.
         11   -1    0    0    0    0 -0.00000000000E+00 -0.00000000000E+00 -0.45593999997E+02  0.45594000000E+02  0.51100000000E-03 0.  1.
    9900012    2    1    2    0    0  0.14005728510E+02 -0.28419983618E+02  0.35866259191E+01  0.59301956260E+02  0.50000022308E+02 0.  0.
        -12    1    1    2    0    0 -0.14005728510E+02  0.28419983618E+02 -0.35866259191E+01  0.31886043740E+02  0.00000000000E+00 0.  1.
         11    1    3    3    0    0  0.43563907017E+01  0.97524167585E+01 -0.63317368091E+01  0.12416870131E+02  0.51100000000E-03 0. -1.
        -11    1    3    3    0    0  0.83193401595E+01 -0.63513699505E+01 -0.51344278526E+01  0.11658201858E+02  0.51100000000E-03 0.  1.
         12    1    3    3    0    0  0.13299976489E+01 -0.31821030426E+02  0.15052790581E+02  0.35226884270E+02  0.00000000000E+00 0. -1.
</event>
<event>
 7    1  0.1284777E-011  0.5930192E+02  0.7816164E-02  0.1266605E+00
        -11   -1    0    0    0    0  0.00000000000E+00  0.00000000000E+00  0.45593999997E+02  0.45594000000E+02  0.51100000000E-03 0.  1.
         11   -1    0    0    0    0 -0.00000000000E+00 -0.00000000000E+00 -0.45593999997E+02  0.45594000000E+02  0.51100000000E-03 0. -1.
    9900012    2    1    2    0    0 -0.29371313356E+00 -0.96475144902E+00 -0.31870129079E+02  0.59301919334E+02  0.49999954964E+02 0.  0.
        -12    1    1    2    0    0  0.29371313356E+00  0.96475144902E+00  0.31870129079E+02  0.31886080666E+02  0.00000000000E+00 0.  1.
         11    1    3    3    0    0  0.24655068063E+01  0.23783129684E+01 -0.12288142764E+02  0.12756706050E+02  0.51100000000E-03 0. -1.
        -11    1    3    3    0    0  0.13212005719E+02 -0.11989983308E+02 -0.21887281034E+02  0.28237738333E+02  0.51100000000E-03 0.  1.
         12    1    3    3    0    0 -0.15971225658E+02  0.86469188906E+01  0.23052947200E+01  0.18307474951E+02  0.00000000000E+00 0. -1.
</event>
<event>
 7    1  0.1284777E-011  0.5930195E+02  0.7816164E-02  0.1266605E+00
        -11   -1    0    0    0    0  0.00000000000E+00  0.00000000000E+00  0.45593999997E+02  0.45594000000E+02  0.51100000000E-03 0.  1.
         11   -1    0    0    0    0 -0.00000000000E+00 -0.00000000000E+00 -0.45593999997E+02  0.45594000000E+02  0.51100000000E-03 0. -1.
    9900012    2    1    2    0    0  0.16869646268E+02 -0.26514817332E+02  0.53944410528E+01  0.59301945091E+02  0.50000001939E+02 0.  0.
        -12    1    1    2    0    0 -0.16869646268E+02  0.26514817332E+02 -0.53944410528E+01  0.31886054909E+02  0.00000000000E+00 0.  1.
         11    1    3    3    0    0 -0.13447147837E+02 -0.21709813075E+02  0.13522844976E+01  0.25572845801E+02  0.51100000000E-03 0. -1.
        -11    1    3    3    0    0  0.50158316578E+01  0.28018119150E+01  0.45118820762E+01  0.73051897550E+01  0.51100000000E-03 0.  1.
        -12    1    3    3    0    0  0.25300962448E+02 -0.76068161719E+01 -0.46972552095E+00  0.26423909535E+02  0.00000000000E+00 0.  1.
</event>
<event>
 7    1  0.1562286E-011  0.5930194E+02  0.7816164E-02  0.1266605E+00
        -11   -1    0    0    0    0  0.00000000000E+00  0.00000000000E+00  0.45593999997E+02  0.45594000000E+02  0.51100000000E-03 0. -1.
         11   -1    0    0    0    0 -0.00000000000E+00 -0.00000000000E+00 -0.45593999997E+02  0.45594000000E+02  0.51100000000E-03 0.  1.
    9900012    2    1    2    0    0 -0.17405275744E+02 -0.30006870409E+01  0.26547558159E+02  0.59301943633E+02  0.49999999280E+02 0.  0.
        -12    1    1    2    0    0  0.17405275744E+02  0.30006870409E+01 -0.26547558159E+02  0.31886056367E+02  0.00000000000E+00 0.  1.
         11    1    3    3    0    0 -0.50238019050E+01  0.10772455787E+02 -0.19253384433E+01  0.12041234058E+02  0.51100000000E-03 0. -1.
        -11    1    3    3    0    0  0.96794432620E+01 -0.58678639625E+01  0.13237093285E+01  0.11396300101E+02  0.51100000000E-03 0.  1.
         12    1    3    3    0    0 -0.22060917101E+02 -0.79052788652E+01  0.27149187274E+02  0.35864409474E+02  0.00000000000E+00 0. -1.
</event>
<event>
 7    1  0.1284777E-011  0.5930198E+02  0.7816164E-02  0.1266605E+00
        -11   -1    0    0    0    0  0.00000000000E+00  0.00000000000E+00  0.45593999997E+02  0.45594000000E+02  0.51100000000E-03 0.  1.
         11   -1    0    0    0    0 -0.00000000000E+00 -0.00000000000E+00 -0.45593999997E+02  0.45594000000E+02  0.51100000000E-03 0. -1.
    9900012    2    1    2    0    0 -0.15913993388E+02  0.26642286719E+02 -0.73247268532E+01  0.59301980326E+02  0.50000066200E+02 0.  0.
        -12    1    1    2    0    0  0.15913993388E+02 -0.26642286719E+02  0.73247268532E+01  0.31886019674E+02  0.00000000000E+00 0.  1.
         11    1    3    3    0    0  0.59002353456E+01  0.11518768428E+02  0.12916502733E+02  0.18284716195E+02  0.51100000000E-03 0. -1.
        -11    1    3    3    0    0 -0.88480543617E+01  0.17916493956E+02 -0.45914583054E+01  0.20502934212E+02  0.51100000000E-03 0.  1.
        -12    1    3    3    0    0 -0.12966174372E+02 -0.27929756655E+01 -0.15649771280E+02  0.20514329919E+02  0.00000000000E+00 0.  1.
</event>
<event>
 7    1  0.1284777E-011  0.5930197E+02  0.7816164E-02  0.1266605E+00
        -11   -1    0    0    0    0  0.00000000000E+00  0.00000000000E+00  0.45593999997E+02  0.45594000000E+02  0.51100000000E-03 0. -1.
         11   -1    0    0    0    0 -0.00000000000E+00 -0.00000000000E+00 -0.45593999997E+02  0.45594000000E+02  0.51100000000E-03 0.  1.
    9900012    2    1    2    0    0 -0.15468560962E+02  0.14960201496E+02  0.23529452221E+02  0.59301966555E+02  0.50000041085E+02 0.  0.
        -12    1    1    2    0    0  0.15468560962E+02 -0.14960201496E+02 -0.23529452221E+02  0.31886033445E+02  0.00000000000E+00 0.  1.
         11    1    3    3    0    0 -0.55966844655E+01  0.63175510784E+01  0.23775400413E+00  0.84433912536E+01  0.51100000000E-03 0. -1.
        -11    1    3    3    0    0 -0.16294510360E+02 -0.10308733608E+02 -0.10955062976E+01  0.19312720958E+02  0.51100000000E-03 0.  1.
         12    1    3    3    0    0  0.64226338640E+01  0.18951384026E+02  0.24387204514E+02  0.31545854344E+02  0.00000000000E+00 0. -1.
</event>
<event>
 7    1  0.1284777E-011  0.5930210E+02  0.7816164E-02  0.1266604E+00
        -11   -1    0    0    0    0  0.00000000000E+00  0.00000000000E+00  0.45593999997E+02  0.45594000000E+02  0.51100000000E-03 0. -1.
         11   -1    0    0    0    0 -0.00000000000E+00 -0.00000000000E+00 -0.45593999997E+02  0.45594000000E+02  0.51100000000E-03 0.  1.
    9900012    2    1    2    0    0  0.20190044518E+02  0.17005774356E+01  0.24620736486E+02  0.59302101449E+02  0.50000287099E+02 0.  0.
        -12    1    1    2    0    0 -0.20190044518E+02 -0.17005774356E+01 -0.24620736486E+02  0.31885898551E+02  0.00000000000E+00 0.  1.
         11    1    3    3    0    0  0.46811068311E+01  0.23326763853E+01  0.19453427684E+02  0.20144229675E+02  0.51100000000E-03 0. -1.
        -11    1    3    3    0    0  0.82318247387E+01  0.17002848466E+02  0.66399469734E+01  0.20023703217E+02  0.51100000000E-03 0.  1.
        -12    1    3    3    0    0  0.72771129481E+01 -0.17634947415E+02 -0.14726381708E+01  0.19134168557E+02  0.00000000000E+00 0.  1.
</event>
<event>
 7    1  0.1284777E-011  0.5930197E+02  0.7816164E-02  0.1266605E+00
        -11   -1    0    0    0    0  0.00000000000E+00  0.00000000000E+00  0.45593999997E+02  0.45594000000E+02  0.51100000000E-03 0.  1.
         11   -1    0    0    0    0 -0.00000000000E+00 -0.00000000000E+00 -0.45593999997E+02  0.45594000000E+02  0.51100000000E-03 0. -1.
    9900012    2    1    2    0    0  0.18659973378E+01 -0.20373331171E+02 -0.24457395930E+02  0.59301971951E+02  0.50000050926E+02 0.  0.
        -12    1    1    2    0    0 -0.18659973378E+01  0.20373331171E+02  0.24457395930E+02  0.31886028049E+02  0.00000000000E+00 0.  1.
         11    1    3    3    0    0 -0.55000648827E+00 -0.11119906552E+02  0.11233546879E+02  0.15816048957E+02  0.51100000000E-03 0. -1.
        -11    1    3    3    0    0 -0.16644209314E+00  0.16351345879E+01  0.28846034272E+01  0.33199857356E+01  0.51100000000E-03 0.  1.
         12    1    3    3    0    0  0.25824459192E+01 -0.10888559206E+02 -0.38575546236E+02  0.40165937259E+02  0.00000000000E+00 0. -1.
</event>
<event>
 7    1  0.1284777E-011  0.5930195E+02  0.7816164E-02  0.1266605E+00
        -11   -1    0    0    0    0  0.00000000000E+00  0.00000000000E+00  0.45593999997E+02  0.45594000000E+02  0.51100000000E-03 0. -1.
         11   -1    0    0    0    0 -0.00000000000E+00 -0.00000000000E+00 -0.45593999997E+02  0.45594000000E+02  0.51100000000E-03 0.  1.
    9900012    2    1    2    0    0  0.30783319524E+02  0.64644813220E+01  0.52266833935E+01  0.59301945070E+02  0.50000001901E+02 0.  0.
        -12    1    1    2    0    0 -0.30783319524E+02 -0.64644813220E+01 -0.52266833935E+01  0.31886054930E+02  0.00000000000E+00 0.  1.
         11    1    3    3    0    0  0.16564775647E+02 -0.13258267893E+02 -0.15945583694E+01  0.21277125661E+02  0.51100000000E-03 0. -1.
        -11    1    3    3    0    0  0.71056666966E+01 -0.30027951719E+01 -0.70638011862E+01  0.10459663738E+02  0.51100000000E-03 0.  1.
        -12    1    3    3    0    0  0.71128771810E+01  0.22725544387E+02  0.13885042949E+02  0.27565155671E+02  0.00000000000E+00 0.  1.
</event>
<event>
 7    1  0.1284777E-011  0.5930194E+02  0.7816164E-02  0.1266605E+00
        -11   -1    0    0    0    0  0.00000000000E+00  0.00000000000E+00  0.45593999997E+02  0.45594000000E+02  0.51100000000E-03 0. -1.
         11   -1    0    0    0    0 -0.00000000000E+00 -0.00000000000E+00 -0.45593999997E+02  0.45594000000E+02  0.51100000000E-03 0.  1.
    9900012    2    1    2    0    0  0.15331814625E+02 -0.27007161299E+02  0.72297707328E+01  0.59301939001E+02  0.49999990833E+02 0.  0.
        -12    1    1    2    0    0 -0.15331814625E+02  0.27007161299E+02 -0.72297707328E+01  0.31886060999E+02  0.00000000000E+00 0.  1.
         11    1    3    3    0    0  0.31778714912E+01 -0.17359079992E+02  0.17077532457E+02  0.24557659507E+02  0.51100000000E-03 0.  1.
        -11    1    3    3    0    0 -0.15862400883E+01 -0.38415561015E+01  0.94675098314E+01  0.10339606064E+02  0.51100000000E-03 0. -1.
        -12    1    3    3    0    0  0.13740183223E+02 -0.58065252055E+01 -0.19315271555E+02  0.24404673430E+02  0.00000000000E+00 0.  1.
</event>
<event>
 7    1  0.1284777E-011  0.5930195E+02  0.7816164E-02  0.1266605E+00
        -11   -1    0    0    0    0  0.00000000000E+00  0.00000000000E+00  0.45593999997E+02  0.45594000000E+02  0.51100000000E-03 0.  1.
         11   -1    0    0    0    0 -0.00000000000E+00 -0.00000000000E+00 -0.45593999997E+02  0.45594000000E+02  0.51100000000E-03 0. -1.
    9900012    2    1    2    0    0 -0.57618358716E+00 -0.22406485139E+02 -0.22679006240E+02  0.59301954653E+02  0.50000019379E+02 0.  0.
        -12    1    1    2    0    0  0.57618358716E+00  0.22406485139E+02  0.22679006240E+02  0.31886045347E+02  0.00000000000E+00 0.  1.
         11    1    3    3    0    0 -0.69642006649E+01 -0.17464053940E+02  0.16611845349E+01  0.18874660401E+02  0.51100000000E-03 0. -1.
        -11    1    3    3    0    0  0.31986689139E+01 -0.17470654303E+02 -0.20097765144E+02  0.26821174632E+02  0.51100000000E-03 0.  1.
        -12    1    3    3    0    0  0.31893481638E+01  0.12528223105E+02 -0.42424256313E+01  0.13606119620E+02  0.00000000000E+00 0.  1.
</event>
<event>
 7    1  0.1289863E-011  0.5930220E+02  0.7816164E-02  0.1266604E+00
        -11   -1    0    0    0    0  0.00000000000E+00  0.00000000000E+00  0.45593999997E+02  0.45594000000E+02  0.51100000000E-03 0.  1.
         11   -1    0    0    0    0 -0.00000000000E+00 -0.00000000000E+00 -0.45593999997E+02  0.45594000000E+02  0.51100000000E-03 0. -1.
    9900012    2    1    2    0    0  0.70498629634E+01  0.29660011326E+02 -0.93427891690E+01  0.59302195178E+02  0.50000458036E+02 0.  0.
        -12    1    1    2    0    0 -0.70498629634E+01 -0.29660011326E+02  0.93427891690E+01  0.31885804822E+02  0.00000000000E+00 0.  1.
         11    1    3    3    0    0  0.43758126464E+01 -0.22278239363E+01  0.14409269411E+01  0.51173436975E+01  0.51100000000E-03 0. -1.
        -11    1    3    3    0    0 -0.12839184678E+02 -0.30710311767E+01  0.29867685823E+01  0.13535016901E+02  0.51100000000E-03 0.  1.
         12    1    3    3    0    0  0.15513234995E+02  0.34958866439E+02 -0.13770484692E+02  0.40649834580E+02  0.00000000000E+00 0. -1.
</event>
<event>
 7    1  0.1284777E-011  0.5930195E+02  0.7816164E-02  0.1266605E+00
        -11   -1    0    0    0    0  0.00000000000E+00  0.00000000000E+00  0.45593999997E+02  0.45594000000E+02  0.51100000000E-03 0. -1.
         11   -1    0    0    0    0 -0.00000000000E+00 -0.00000000000E+00 -0.45593999997E+02  0.45594000000E+02  0.51100000000E-03 0.  1.
    9900012    2    1    2    0    0  0.15233199406E+02 -0.60197420794E+01  0.27357500362E+02  0.59301945291E+02  0.50000002303E+02 0.  0.
        -12    1    1    2    0    0 -0.15233199406E+02  0.60197420794E+01 -0.27357500362E+02  0.31886054709E+02  0.00000000000E+00 0.  1.
         11    1    3    3    0    0 -0.31400824032E+01  0.11439603334E+02  0.21693210234E+02  0.24724886500E+02  0.51100000000E-03 0. -1.
        -11    1    3    3    0    0 -0.22307759181E+01 -0.64748725080E+01 -0.54169426013E+01  0.87317582765E+01  0.51100000000E-03 0.  1.
        -12    1    3    3    0    0  0.20604057728E+02 -0.10984472905E+02  0.11081232730E+02  0.25845300514E+02  0.00000000000E+00 0.  1.
</event>
<event>
 7    1  0.1284777E-011  0.5930189E+02  0.7816164E-02  0.1266605E+00
        -11   -1    0    0    0    0  0.00000000000E+00  0.00000000000E+00  0.45593999997E+02  0.45594000000E+02  0.51100000000E-03 0. -1.
         11   -1    0    0    0    0 -0.00000000000E+00 -0.00000000000E+00 -0.45593999997E+02  0.45594000000E+02  0.51100000000E-03 0.  1.
    9900012    2    1    2    0    0 -0.20614252321E+01  0.30565337160E+02  0.88450453872E+01  0.59301888014E+02  0.49999897844E+02 0.  0.
        -12    1    1    2    0    0  0.20614252321E+01 -0.30565337160E+02 -0.88450453872E+01  0.31886111986E+02  0.00000000000E+00 0.  1.
         11    1    3    3    0    0 -0.94791874127E+01  0.10791898023E+02  0.23925178763E+02  0.27905810077E+02  0.51100000000E-03 0.  1.
        -11    1    3    3    0    0  0.41756767610E+01  0.16684398552E+02 -0.16957007163E+01  0.17282385039E+02  0.51100000000E-03 0. -1.
        -12    1    3    3    0    0  0.32420854196E+01  0.30890405844E+01 -0.13384432659E+02  0.14113692898E+02  0.00000000000E+00 0.  1.
</event>
<event>
 7    1  0.1284777E-011  0.5930195E+02  0.7816164E-02  0.1266605E+00
        -11   -1    0    0    0    0  0.00000000000E+00  0.00000000000E+00  0.45593999997E+02  0.45594000000E+02  0.51100000000E-03 0.  1.
         11   -1    0    0    0    0 -0.00000000000E+00 -0.00000000000E+00 -0.45593999997E+02  0.45594000000E+02  0.51100000000E-03 0. -1.
    9900012    2    1    2    0    0 -0.96857139383E+01 -0.48011063025E+01 -0.29997611266E+02  0.59301947282E+02  0.50000005936E+02 0.  0.
        -12    1    1    2    0    0  0.96857139383E+01  0.48011063025E+01  0.29997611266E+02  0.31886052718E+02  0.00000000000E+00 0.  1.
         11    1    3    3    0    0 -0.80390715705E+01  0.25724694066E+01 -0.29133064707E+02  0.30331167634E+02  0.51100000000E-03 0. -1.
        -11    1    3    3    0    0 -0.48958389680E+01  0.10071058501E+02 -0.79198253569E+00  0.11225983036E+02  0.51100000000E-03 0.  1.
        -12    1    3    3    0    0  0.32491966002E+01 -0.17444634210E+02 -0.72564023469E-01  0.17744796612E+02  0.00000000000E+00 0.  1.
</event>
<event>
 7    1  0.1284777E-011  0.5930194E+02  0.7816164E-02  0.1266605E+00
        -11   -1    0    0    0    0  0.00000000000E+00  0.00000000000E+00  0.45593999997E+02  0.45594000000E+02  0.51100000000E-03 0.  1.
         11   -1    0    0    0    0 -0.00000000000E+00 -0.00000000000E+00 -0.45593999997E+02  0.45594000000E+02  0.51100000000E-03 0. -1.
    9900012    2    1    2    0    0  0.16901114599E+02  0.25555146043E+02 -0.88321954198E+01  0.59301939724E+02  0.49999992152E+02 0.  0.
        -12    1    1    2    0    0 -0.16901114599E+02 -0.25555146043E+02  0.88321954198E+01  0.31886060276E+02  0.00000000000E+00 0.  1.
         11    1    3    3    0    0  0.10915291493E+02  0.25593385232E+01 -0.18240652205E+02  0.21410632760E+02  0.51100000000E-03 0. -1.
        -11    1    3    3    0    0 -0.44914340733E+01  0.25522742185E+02  0.62012731577E+01  0.26646559585E+02  0.51100000000E-03 0.  1.
         12    1    3    3    0    0  0.10477257179E+02 -0.25269346649E+01  0.32071836278E+01  0.11244747379E+02  0.00000000000E+00 0. -1.
</event>
<event>
 7    1  0.1284777E-011  0.5930192E+02  0.7816164E-02  0.1266605E+00
        -11   -1    0    0    0    0  0.00000000000E+00  0.00000000000E+00  0.45593999997E+02  0.45594000000E+02  0.51100000000E-03 0. -1.
         11   -1    0    0    0    0 -0.00000000000E+00 -0.00000000000E+00 -0.45593999997E+02  0.45594000000E+02  0.51100000000E-03 0.  1.
    9900012    2    1    2    0    0 -0.16723216325E+02  0.22348682033E+02  0.15414038610E+02  0.59301919351E+02  0.49999954996E+02 0.  0.
        -12    1    1    2    0    0  0.16723216325E+02 -0.22348682033E+02 -0.15414038610E+02  0.31886080649E+02  0.00000000000E+00 0.  1.
         11    1    3    3    0    0  0.10157827076E+02  0.17995160812E+01  0.39548155202E+01  0.11048089205E+02  0.51100000000E-03 0.  1.
        -11    1    3    3    0    0 -0.26897713934E+01 -0.17676881981E+01  0.14823978344E+02  0.15169374606E+02  0.51100000000E-03 0. -1.
         12    1    3    3    0    0 -0.24191272007E+02  0.22316854150E+02 -0.33647552544E+01  0.33084455540E+02  0.00000000000E+00 0. -1.
</event>
<event>
 7    1  0.1284777E-011  0.5930201E+02  0.7816164E-02  0.1266605E+00
        -11   -1    0    0    0    0  0.00000000000E+00  0.00000000000E+00  0.45593999997E+02  0.45594000000E+02  0.51100000000E-03 0. -1.
         11   -1    0    0    0    0 -0.00000000000E+00 -0.00000000000E+00 -0.45593999997E+02  0.45594000000E+02  0.51100000000E-03 0.  1.
    9900012    2    1    2    0    0  0.21862673271E+02 -0.15017440013E+02  0.17697924520E+02  0.59302007473E+02  0.50000115710E+02 0.  0.
        -12    1    1    2    0    0 -0.21862673271E+02  0.15017440013E+02 -0.17697924520E+02  0.31885992527E+02  0.00000000000E+00 0.  1.
         11    1    3    3    0    0  0.55969458478E+01  0.66649786282E+00  0.16428734569E+02  0.17368746127E+02  0.51100000000E-03 0. -1.
        -11    1    3    3    0    0  0.44952788442E+01 -0.19442793961E+02  0.13856634147E+02  0.24294774727E+02  0.51100000000E-03 0.  1.
         12    1    3    3    0    0  0.11770448579E+02  0.37588560853E+01 -0.12587444196E+02  0.17638486619E+02  0.00000000000E+00 0. -1.
</event>
<event>
 7    1  0.1284777E-011  0.5930193E+02  0.7816164E-02  0.1266605E+00
        -11   -1    0    0    0    0  0.00000000000E+00  0.00000000000E+00  0.45593999997E+02  0.45594000000E+02  0.51100000000E-03 0.  1.
         11   -1    0    0    0    0 -0.00000000000E+00 -0.00000000000E+00 -0.45593999997E+02  0.45594000000E+02  0.51100000000E-03 0. -1.
    9900012    2    1    2    0    0 -0.27670109919E+02 -0.15740066102E+01 -0.15767335508E+02  0.59301931745E+02  0.49999977599E+02 0.  0.
        -12    1    1    2    0    0  0.27670109919E+02  0.15740066102E+01  0.15767335508E+02  0.31886068255E+02  0.00000000000E+00 0.  1.
         11    1    3    3    0    0 -0.49894397492E+01 -0.57158289790E+01 -0.41224648937E+01  0.86348090303E+01  0.51100000000E-03 0. -1.
        -11    1    3    3    0    0  0.11339137339E+02 -0.54614014931E+01  0.20616542801E+01  0.12753562658E+02  0.51100000000E-03 0.  1.
        -12    1    3    3    0    0 -0.34019807508E+02  0.96032238620E+01 -0.13706524895E+02  0.37913560056E+02  0.00000000000E+00 0.  1.
</event>
<event>
 7    1  0.1284777E-011  0.5930193E+02  0.7816164E-02  0.1266605E+00
        -11   -1    0    0    0    0  0.00000000000E+00  0.00000000000E+00  0.45593999997E+02  0.45594000000E+02  0.51100000000E-03 0.  1.
         11   -1    0    0    0    0 -0.00000000000E+00 -0.00000000000E+00 -0.45593999997E+02  0.45594000000E+02  0.51100000000E-03 0. -1.
    9900012    2    1    2    0    0 -0.22351535947E+01  0.34633303794E+01 -0.31618525937E+02  0.59301925432E+02  0.49999966086E+02 0.  0.
        -12    1    1    2    0    0  0.22351535947E+01 -0.34633303794E+01  0.31618525937E+02  0.31886074568E+02  0.00000000000E+00 0.  1.
         11    1    3    3    0    0 -0.35527046522E+01 -0.90506226023E+01 -0.10770285216E+01  0.97824061729E+01  0.51100000000E-03 0. -1.
        -11    1    3    3    0    0 -0.12673270768E+02  0.27164209659E+01  0.16615667719E+01  0.13067193242E+02  0.51100000000E-03 0.  1.
         12    1    3    3    0    0  0.13990821826E+02  0.97975320158E+01 -0.32203064188E+02  0.36452326017E+02  0.00000000000E+00 0. -1.
</event>
<event>
 7    1  0.1284777E-011  0.5930188E+02  0.7816164E-02  0.1266605E+00
        -11   -1    0    0    0    0  0.00000000000E+00  0.00000000000E+00  0.45593999997E+02  0.45594000000E+02  0.51100000000E-03 0. -1.
         11   -1    0    0    0    0 -0.00000000000E+00 -0.00000000000E+00 -0.45593999997E+02  0.45594000000E+02  0.51100000000E-03 0.  1.
    9900012    2    1    2    0    0 -0.61644988415E+01 -0.17053633916E+02  0.26227798109E+02  0.59301876540E+02  0.49999876918E+02 0.  0.
        -12    1    1    2    0    0  0.61644988415E+01  0.17053633916E+02 -0.26227798109E+02  0.31886123460E+02  0.00000000000E+00 0.  1.
         11    1    3    3    0    0 -0.14269072366E+02  0.55363015270E+00  0.25117174497E+01  0.14499022634E+02  0.51100000000E-03 0. -1.
        -11    1    3    3    0    0  0.29265274890E+00  0.68968760649E+01 -0.31699850845E+01  0.75961405189E+01  0.51100000000E-03 0.  1.
         12    1    3    3    0    0  0.78119207754E+01 -0.24504140134E+02  0.26886065743E+02  0.37206713387E+02  0.00000000000E+00 0. -1.
</event>
<event>
 7    1  0.1284777E-011  0.5930206E+02  0.7816164E-02  0.1266604E+00
        -11   -1    0    0    0    0  0.00000000000E+00  0.00000000000E+00  0.45593999997E+02  0.45594000000E+02  0.51100000000E-03 0. -1.
         11   -1    0    0    0    0 -0.00000000000E+00 -0.00000000000E+00 -0.45593999997E+02  0.45594000000E+02  0.51100000000E-03 0.  1.
    9900012    2    1    2    0    0 -0.58946317753E+01  0.12960498703E+01  0.31309531048E+02  0.59302060097E+02  0.50000211683E+02 0.  0.
        -12    1    1    2    0    0  0.58946317753E+01 -0.12960498703E+01 -0.31309531048E+02  0.31885939903E+02  0.00000000000E+00 0.  1.
         11    1    3    3    0    0 -0.79839117074E+01  0.57604239864E+01 -0.39242504586E+00  0.98528842646E+01  0.51100000000E-03 0. -1.
        -11    1    3    3    0    0 -0.56116799552E+01  0.15102714341E+02  0.88015990996E+01  0.18358950933E+02  0.51100000000E-03 0.  1.
         12    1    3    3    0    0  0.77009598873E+01 -0.19567088457E+02  0.22900356994E+02  0.31090224900E+02  0.00000000000E+00 0. -1.
</event>
<event>
 7    1  0.1284777E-011  0.5930198E+02  0.7816164E-02  0.1266605E+00
        -11   -1    0    0    0    0  0.00000000000E+00  0.00000000000E+00  0.45593999997E+02  0.45594000000E+02  0.51100000000E-03 0.  1.
         11   -1    0    0    0    0 -0.00000000000E+00 -0.00000000000E+00 -0.45593999997E+02  0.45594000000E+02  0.51100000000E-03 0. -1.
    9900012    2    1    2    0    0  0.29609781730E+02 -0.10808493195E+02  0.48120085375E+01  0.59301982290E+02  0.50000069781E+02 0.  0.
        -12    1    1    2    0    0 -0.29609781730E+02  0.10808493195E+02 -0.48120085375E+01  0.31886017710E+02  0.00000000000E+00 0.  1.
         11    1    3    3    0    0  0.17369517891E+02  0.33519947372E+01 -0.50560225977E+01  0.18398352786E+02  0.51100000000E-03 0. -1.
        -11    1    3    3    0    0  0.18774534360E+02  0.26979607968E+01 -0.23053039702E+01  0.19106976724E+02  0.51100000000E-03 0.  1.
        -12    1    3    3    0    0 -0.65342705208E+01 -0.16858448729E+02  0.12173335105E+02  0.21796652779E+02  0.00000000000E+00 0.  1.
</event>
<event>
 7    1  0.1284777E-011  0.5930200E+02  0.7816164E-02  0.1266605E+00
        -11   -1    0    0    0    0  0.00000000000E+00  0.00000000000E+00  0.45593999997E+02  0.45594000000E+02  0.51100000000E-03 0.  1.
         11   -1    0    0    0    0 -0.00000000000E+00 -0.00000000000E+00 -0.45593999997E+02  0.45594000000E+02  0.51100000000E-03 0. -1.
    9900012    2    1    2    0    0 -0.10705669659E+02  0.51902863149E+01 -0.29583216676E+02  0.59301997683E+02  0.50000097854E+02 0.  0.
        -12    1    1    2    0    0  0.10705669659E+02 -0.51902863149E+01  0.29583216676E+02  0.31886002317E+02  0.00000000000E+00 0.  1.
         11    1    3    3    0    0  0.57281116283E+01 -0.49436493605E+01 -0.32167289831E+02  0.33045203391E+02  0.51100000000E-03 0.  1.
        -11    1    3    3    0    0 -0.47001004771E+01  0.11185909621E+02 -0.39817913731E+01  0.12769893552E+02  0.51100000000E-03 0. -1.
        -12    1    3    3    0    0 -0.11733680811E+02 -0.10519739453E+01  0.65658645284E+01  0.13486900739E+02  0.00000000000E+00 0.  1.
</event>
<event>
 7    1  0.1284777E-011  0.5930192E+02  0.7816164E-02  0.1266605E+00
        -11   -1    0    0    0    0  0.00000000000E+00  0.00000000000E+00  0.45593999997E+02  0.45594000000E+02  0.51100000000E-03 0. -1.
         11   -1    0    0    0    0 -0.00000000000E+00 -0.00000000000E+00 -0.45593999997E+02  0.45594000000E+02  0.51100000000E-03 0.  1.
    9900012    2    1    2    0    0 -0.72846854728E+01 -0.26149679640E+02  0.16728708576E+02  0.59301920304E+02  0.49999956734E+02 0.  0.
        -12    1    1    2    0    0  0.72846854728E+01  0.26149679640E+02 -0.16728708576E+02  0.31886079696E+02  0.00000000000E+00 0.  1.
         11    1    3    3    0    0 -0.13215802275E+02 -0.92396516247E+01  0.58992635136E+01  0.17170611584E+02  0.51100000000E-03 0. -1.
        -11    1    3    3    0    0  0.41197406139E+01 -0.17690016271E+02  0.23278944421E+02  0.29526567562E+02  0.51100000000E-03 0.  1.
        -12    1    3    3    0    0  0.18113761883E+01  0.77998825544E+00 -0.12449499358E+02  0.12604741158E+02  0.00000000000E+00 0.  1.
</event>
<event>
 7    1  0.1284777E-011  0.5930195E+02  0.7816164E-02  0.1266605E+00
        -11   -1    0    0    0    0  0.00000000000E+00  0.00000000000E+00  0.45593999997E+02  0.45594000000E+02  0.51100000000E-03 0.  1.
         11   -1    0    0    0    0 -0.00000000000E+00 -0.00000000000E+00 -0.45593999997E+02  0.45594000000E+02  0.51100000000E-03 0. -1.
    9900012    2    1    2    0    0  0.20032749729E+02 -0.23227824583E+02  0.87107578873E+01  0.59301949766E+02  0.50000010465E+02 0.  0.
        -12    1    1    2    0    0 -0.20032749729E+02  0.23227824583E+02 -0.87107578873E+01  0.31886050234E+02  0.00000000000E+00 0.  1.
         11    1    3    3    0    0 -0.76518203292E+00  0.29596054643E+01 -0.74516861154E+00  0.31464336269E+01  0.51100000000E-03 0. -1.
        -11    1    3    3    0    0 -0.47024850458E+01  0.10018971506E+02  0.17668660978E+01  0.11207808515E+02  0.51100000000E-03 0.  1.
         12    1    3    3    0    0  0.25500416808E+02 -0.36206401553E+02  0.76890604011E+01  0.44947707624E+02  0.00000000000E+00 0. -1.
</event>
<event>
 7    1  0.1284777E-011  0.5930201E+02  0.7816164E-02  0.1266605E+00
        -11   -1    0    0    0    0  0.00000000000E+00  0.00000000000E+00  0.45593999997E+02  0.45594000000E+02  0.51100000000E-03 0. -1.
         11   -1    0    0    0    0 -0.00000000000E+00 -0.00000000000E+00 -0.45593999997E+02  0.45594000000E+02  0.51100000000E-03 0.  1.
    9900012    2    1    2    0    0  0.28535987252E+02  0.14204667238E+02  0.80084769141E+00  0.59302007828E+02  0.50000116356E+02 0.  0.
        -12    1    1    2    0    0 -0.28535987252E+02 -0.14204667238E+02 -0.80084769141E+00  0.31885992172E+02  0.00000000000E+00 0.  1.
         11    1    3    3    0    0  0.13661420618E+02 -0.11037446845E-01  0.67960708438E+01  0.15258476802E+02  0.51100000000E-03 0. -1.
        -11    1    3    3    0    0  0.84250314255E+01  0.16672270311E+01  0.15856373501E+02  0.18032897198E+02  0.51100000000E-03 0.  1.
        -12    1    3    3    0    0  0.64495352080E+01  0.12548477654E+02 -0.21851596653E+02  0.26010633828E+02  0.00000000000E+00 0.  1.
</event>
<event>
 7    1  0.1284777E-011  0.5930193E+02  0.7816164E-02  0.1266605E+00
        -11   -1    0    0    0    0  0.00000000000E+00  0.00000000000E+00  0.45593999997E+02  0.45594000000E+02  0.51100000000E-03 0.  1.
         11   -1    0    0    0    0 -0.00000000000E+00 -0.00000000000E+00 -0.45593999997E+02  0.45594000000E+02  0.51100000000E-03 0. -1.
    9900012    2    1    2    0    0 -0.19608573110E+02 -0.18419715096E+02  0.17115472918E+02  0.59301930050E+02  0.49999974509E+02 0.  0.
        -12    1    1    2    0    0  0.19608573110E+02  0.18419715096E+02 -0.17115472918E+02  0.31886069950E+02  0.00000000000E+00 0.  1.
         11    1    3    3    0    0 -0.63361334997E+00  0.44756991575E+01  0.41604597719E+01  0.61435148409E+01  0.51100000000E-03 0. -1.
        -11    1    3    3    0    0 -0.38444003142E+01  0.86816001149E+01  0.15363675600E+02  0.18060789643E+02  0.51100000000E-03 0.  1.
         12    1    3    3    0    0 -0.15130559446E+02 -0.31577014368E+02 -0.24086624541E+01  0.35097625566E+02  0.00000000000E+00 0. -1.
</event>
<event>
 7    1  0.1284777E-011  0.5930197E+02  0.7816164E-02  0.1266605E+00
        -11   -1    0    0    0    0  0.00000000000E+00  0.00000000000E+00  0.45593999997E+02  0.45594000000E+02  0.51100000000E-03 0.  1.
         11   -1    0    0    0    0 -0.00000000000E+00 -0.00000000000E+00 -0.45593999997E+02  0.45594000000E+02  0.51100000000E-03 0. -1.
    9900012    2    1    2    0    0  0.93045384552E+01  0.20160800374E+02 -0.22884195545E+02  0.59301973071E+02  0.50000052968E+02 0.  0.
        -12    1    1    2    0    0 -0.93045384552E+01 -0.20160800374E+02  0.22884195545E+02  0.31886026929E+02  0.00000000000E+00 0.  1.
         11    1    3    3    0    0 -0.22185162719E+01  0.74938864214E+01 -0.25057321734E+01  0.82072432724E+01  0.51100000000E-03 0.  1.
        -11    1    3    3    0    0  0.17173034532E+01  0.26662062243E+02 -0.32748811890E+01  0.26917272174E+02  0.51100000000E-03 0. -1.
         12    1    3    3    0    0  0.98057512740E+01 -0.13995148290E+02 -0.17103582183E+02  0.24177457625E+02  0.00000000000E+00 0. -1.
</event>
<event>
 7    1  0.1284777E-011  0.5930198E+02  0.7816164E-02  0.1266605E+00
        -11   -1    0    0    0    0  0.00000000000E+00  0.00000000000E+00  0.45593999997E+02  0.45594000000E+02  0.51100000000E-03 0. -1.
         11   -1    0    0    0    0 -0.00000000000E+00 -0.00000000000E+00 -0.45593999997E+02  0.45594000000E+02  0.51100000000E-03 0.  1.
    9900012    2    1    2    0    0  0.22684553734E+02  0.21183452542E+02  0.73068959307E+01  0.59301978488E+02  0.50000062848E+02 0.  0.
        -12    1    1    2    0    0 -0.22684553734E+02 -0.21183452542E+02 -0.73068959307E+01  0.31886021512E+02  0.00000000000E+00 0.  1.
         11    1    3    3    0    0  0.92911657814E+00  0.50792309452E+01 -0.31189894954E+00  0.51729223681E+01  0.51100000000E-03 0.  1.
        -11    1    3    3    0    0  0.62326596170E+01  0.30080080948E+02 -0.26895084800E+01  0.30836516857E+02  0.51100000000E-03 0. -1.
         12    1    3    3    0    0  0.15522777539E+02 -0.13975859352E+02  0.10308303360E+02  0.23292539263E+02  0.00000000000E+00 0. -1.
</event>
<event>
 7    1  0.1284777E-011  0.5930209E+02  0.7816164E-02  0.1266604E+00
        -11   -1    0    0    0    0  0.00000000000E+00  0.00000000000E+00  0.45593999997E+02  0.45594000000E+02  0.51100000000E-03 0.  1.
         11   -1    0    0    0    0 -0.00000000000E+00 -0.00000000000E+00 -0.45593999997E+02  0.45594000000E+02  0.51100000000E-03 0. -1.
    9900012    2    1    2    0    0 -0.47777875148E+01 -0.16775073916E+02 -0.26692334335E+02  0.59302092914E+02  0.50000271533E+02 0.  0.
        -12    1    1    2    0    0  0.47777875148E+01  0.16775073916E+02  0.26692334335E+02  0.31885907086E+02  0.00000000000E+00 0.  1.
         11    1    3    3    0    0 -0.13308204548E+02 -0.45519611976E+01 -0.12257819450E+02  0.18656977166E+02  0.51100000000E-03 0. -1.
        -11    1    3    3    0    0 -0.69261047764E+01  0.68980507475E+01  0.33136241263E+01  0.10321537511E+02  0.51100000000E-03 0.  1.
         12    1    3    3    0    0  0.15456521810E+02 -0.19121163466E+02 -0.17748139011E+02  0.30323578237E+02  0.00000000000E+00 0. -1.
</event>
<event>
 7    1  0.1284777E-011  0.5930194E+02  0.7816164E-02  0.1266605E+00
        -11   -1    0    0    0    0  0.00000000000E+00  0.00000000000E+00  0.45593999997E+02  0.45594000000E+02  0.51100000000E-03 0. -1.
         11   -1    0    0    0    0 -0.00000000000E+00 -0.00000000000E+00 -0.45593999997E+02  0.45594000000E+02  0.51100000000E-03 0.  1.
    9900012    2    1    2    0    0 -0.21574289647E+02  0.23396016744E+02 -0.19740982250E+01  0.59301942905E+02  0.49999997953E+02 0.  0.
        -12    1    1    2    0    0  0.21574289647E+02 -0.23396016744E+02  0.19740982250E+01  0.31886057095E+02  0.00000000000E+00 0.  1.
         11    1    3    3    0    0 -0.81254000756E+01  0.31152101533E+02 -0.65130682897E+01  0.32846546471E+02  0.51100000000E-03 0. -1.
        -11    1    3    3    0    0 -0.89225260084E+01  0.31776545142E+01 -0.54865776055E+01  0.10945843625E+02  0.51100000000E-03 0.  1.
        -12    1    3    3    0    0 -0.45263635626E+01 -0.10933739303E+02  0.10025547670E+02  0.15509552809E+02  0.00000000000E+00 0.  1.
</event>
<event>
 7    1  0.1284777E-011  0.5930195E+02  0.7816164E-02  0.1266605E+00
        -11   -1    0    0    0    0  0.00000000000E+00  0.00000000000E+00  0.45593999997E+02  0.45594000000E+02  0.51100000000E-03 0.  1.
         11   -1    0    0    0    0 -0.00000000000E+00 -0.00000000000E+00 -0.45593999997E+02  0.45594000000E+02  0.51100000000E-03 0. -1.
    9900012    2    1    2    0    0  0.95754440245E+01 -0.12826936137E+02 -0.27577180480E+02  0.59301948157E+02  0.50000007531E+02 0.  0.
        -12    1    1    2    0    0 -0.95754440245E+01  0.12826936137E+02  0.27577180480E+02  0.31886051843E+02  0.00000000000E+00 0.  1.
         11    1    3    3    0    0 -0.11666659494E+02  0.29906430073E+01 -0.11490226042E+02  0.16645725701E+02  0.51100000000E-03 0. -1.
        -11    1    3    3    0    0  0.20344644531E+01 -0.16389772276E+02  0.15306036843E+01  0.16586332590E+02  0.51100000000E-03 0.  1.
         12    1    3    3    0    0  0.19207639066E+02  0.57219313245E+00 -0.17617558122E+02  0.26069889866E+02  0.00000000000E+00 0. -1.
</event>
<event>
 7    1  0.1284777E-011  0.5930220E+02  0.7816164E-02  0.1266604E+00
        -11   -1    0    0    0    0  0.00000000000E+00  0.00000000000E+00  0.45593999997E+02  0.45594000000E+02  0.51100000000E-03 0.  1.
         11   -1    0    0    0    0 -0.00000000000E+00 -0.00000000000E+00 -0.45593999997E+02  0.45594000000E+02  0.51100000000E-03 0. -1.
    9900012    2    1    2    0    0  0.26956417058E+01  0.26765863802E+02 -0.17118017472E+02  0.59302196396E+02  0.50000460258E+02 0.  0.
        -12    1    1    2    0    0 -0.26956417058E+01 -0.26765863802E+02  0.17118017472E+02  0.31885803604E+02  0.00000000000E+00 0.  1.
         11    1    3    3    0    0 -0.11152619383E+01 -0.85374850160E+00 -0.28855838074E+02  0.28889999774E+02  0.51100000000E-03 0.  1.
        -11    1    3    3    0    0  0.25648860016E+01  0.95622602882E+01  0.32452827772E+01  0.10418604637E+02  0.51100000000E-03 0. -1.
        -12    1    3    3    0    0  0.12460176425E+01  0.18057352015E+02  0.84925378249E+01  0.19993591986E+02  0.00000000000E+00 0.  1.
</event>
<event>
 7    1  0.1284777E-011  0.5930191E+02  0.7816164E-02  0.1266605E+00
        -11   -1    0    0    0    0  0.00000000000E+00  0.00000000000E+00  0.45593999997E+02  0.45594000000E+02  0.51100000000E-03 0.  1.
         11   -1    0    0    0    0 -0.00000000000E+00 -0.00000000000E+00 -0.45593999997E+02  0.45594000000E+02  0.51100000000E-03 0. -1.
    9900012    2    1    2    0    0 -0.12569481409E+02 -0.23858679766E+02 -0.17014532071E+02  0.59301909542E+02  0.49999937107E+02 0.  0.
        -12    1    1    2    0    0  0.12569481409E+02  0.23858679766E+02  0.17014532071E+02  0.31886090458E+02  0.00000000000E+00 0.  1.
         11    1    3    3    0    0 -0.16469787078E+02 -0.10919415812E+02 -0.40243032153E+01  0.20166371629E+02  0.51100000000E-03 0. -1.
        -11    1    3    3    0    0  0.60521540476E+01 -0.20441371032E+02  0.28196875999E+01  0.21504159056E+02  0.51100000000E-03 0.  1.
         12    1    3    3    0    0 -0.21518483785E+01  0.75021070783E+01 -0.15809916456E+02  0.17631378857E+02  0.00000000000E+00 0. -1.
</event>
<event>
 7    1  0.1284777E-011  0.5930195E+02  0.7816164E-02  0.1266605E+00
        -11   -1    0    0    0    0  0.00000000000E+00  0.00000000000E+00  0.45593999997E+02  0.45594000000E+02  0.51100000000E-03 0.  1.
         11   -1    0    0    0    0 -0.00000000000E+00 -0.00000000000E+00 -0.45593999997E+02  0.45594000000E+02  0.51100000000E-03 0. -1.
    9900012    2    1    2    0    0 -0.16620197536E+02  0.95948329451E+01 -0.25464255022E+02  0.59301951809E+02  0.50000014191E+02 0.  0.
        -12    1    1    2    0    0  0.16620197536E+02 -0.95948329451E+01  0.25464255022E+02  0.31886048191E+02  0.00000000000E+00 0.  1.
         11    1    3    3    0    0  0.11863537187E+01  0.15069694588E+01  0.12930539073E+02  0.13072001877E+02  0.51100000000E-03 0. -1.
        -11    1    3    3    0    0  0.14400953515E+01 -0.64045799959E+00  0.74948246983E+00  0.17452178387E+01  0.51100000000E-03 0.  1.
         12    1    3    3    0    0 -0.19246646606E+02  0.87283214858E+01 -0.39144276566E+02  0.44484732093E+02  0.00000000000E+00 0. -1.
</event>
<event>
 7    1  0.1284777E-011  0.5930190E+02  0.7816164E-02  0.1266605E+00
        -11   -1    0    0    0    0  0.00000000000E+00  0.00000000000E+00  0.45593999997E+02  0.45594000000E+02  0.51100000000E-03 0. -1.
         11   -1    0    0    0    0 -0.00000000000E+00 -0.00000000000E+00 -0.45593999997E+02  0.45594000000E+02  0.51100000000E-03 0.  1.
    9900012    2    1    2    0    0  0.26514128713E+02  0.51179892625E+01  0.16956731922E+02  0.59301896554E+02  0.49999913419E+02 0.  0.
        -12    1    1    2    0    0 -0.26514128713E+02 -0.51179892625E+01 -0.16956731922E+02  0.31886103446E+02  0.00000000000E+00 0.  1.
         11    1    3    3    0    0  0.38445681645E+01  0.49686844210E+01 -0.11928459335E+02  0.13481716197E+02  0.51100000000E-03 0.  1.
        -11    1    3    3    0    0  0.35443846035E+01  0.56754199307E+01 -0.36917158871E+01  0.76421083517E+01  0.51100000000E-03 0. -1.
         12    1    3    3    0    0  0.19125175945E+02 -0.55261150892E+01  0.32576907144E+02  0.38178072005E+02  0.00000000000E+00 0. -1.
</event>
<event>
 7    1  0.1284777E-011  0.5930194E+02  0.7816164E-02  0.1266605E+00
        -11   -1    0    0    0    0  0.00000000000E+00  0.00000000000E+00  0.45593999997E+02  0.45594000000E+02  0.51100000000E-03 0.  1.
         11   -1    0    0    0    0 -0.00000000000E+00 -0.00000000000E+00 -0.45593999997E+02  0.45594000000E+02  0.51100000000E-03 0. -1.
    9900012    2    1    2    0    0  0.30165787244E+02 -0.92416336532E+01 -0.46193371419E+01  0.59301940534E+02  0.49999993628E+02 0.  0.
        -12    1    1    2    0    0 -0.30165787244E+02  0.92416336532E+01  0.46193371419E+01  0.31886059466E+02  0.00000000000E+00 0.  1.
         11    1    3    3    0    0  0.49785087493E+01  0.13513225673E+02 -0.73965158882E+00  0.14420121435E+02  0.51100000000E-03 0. -1.
        -11    1    3    3    0    0 -0.62219449982E+01 -0.64082777152E+01 -0.31336023805E+01  0.94656266024E+01  0.51100000000E-03 0.  1.
         12    1    3    3    0    0  0.31409223493E+02 -0.16346581611E+02 -0.74608317258E+00  0.35416192496E+02  0.00000000000E+00 0. -1.
</event>
<event>
 7    1  0.1323374E-011  0.5930193E+02  0.7816164E-02  0.1266605E+00
        -11   -1    0    0    0    0  0.00000000000E+00  0.00000000000E+00  0.45593999997E+02  0.45594000000E+02  0.51100000000E-03 0.  1.
         11   -1    0    0    0    0 -0.00000000000E+00 -0.00000000000E+00 -0.45593999997E+02  0.45594000000E+02  0.51100000000E-03 0. -1.
    9900012    2    1    2    0    0  0.28423262682E+02  0.46995286242E+01 -0.13665795288E+02  0.59301931073E+02  0.49999976374E+02 0.  0.
        -12    1    1    2    0    0 -0.28423262682E+02 -0.46995286242E+01  0.13665795288E+02  0.31886068927E+02  0.00000000000E+00 0.  1.
         11    1    3    3    0    0  0.11224471532E+02 -0.78349710204E+01 -0.13910882979E+02  0.19516357180E+02  0.51100000000E-03 0. -1.
        -11    1    3    3    0    0 -0.69221809525E+01 -0.52225635238E+01  0.40901992028E+01  0.95875694876E+01  0.51100000000E-03 0.  1.
         12    1    3    3    0    0  0.24120972102E+02  0.17757063168E+02 -0.38451115118E+01  0.30198004405E+02  0.00000000000E+00 0. -1.
</event>
<event>
 7    1  0.1284777E-011  0.5930199E+02  0.7816164E-02  0.1266605E+00
        -11   -1    0    0    0    0  0.00000000000E+00  0.00000000000E+00  0.45593999997E+02  0.45594000000E+02  0.51100000000E-03 0.  1.
         11   -1    0    0    0    0 -0.00000000000E+00 -0.00000000000E+00 -0.45593999997E+02  0.45594000000E+02  0.51100000000E-03 0. -1.
    9900012    2    1    2    0    0 -0.18440407273E+02 -0.60324411662E+01 -0.25303730896E+02  0.59301987956E+02  0.50000080115E+02 0.  0.
        -12    1    1    2    0    0  0.18440407273E+02  0.60324411662E+01  0.25303730896E+02  0.31886012044E+02  0.00000000000E+00 0.  1.
         11    1    3    3    0    0  0.13994055212E+01 -0.70164743421E+01  0.56104571858E+01  0.90921107616E+01  0.51100000000E-03 0. -1.
        -11    1    3    3    0    0 -0.15426693142E+02 -0.28388239845E+01  0.28517644960E+01  0.15942846168E+02  0.51100000000E-03 0.  1.
         12    1    3    3    0    0 -0.44131196518E+01  0.38228571604E+01 -0.33765952577E+02  0.34267031027E+02  0.00000000000E+00 0. -1.
</event>
<event>
 7    1  0.1284777E-011  0.5930195E+02  0.7816164E-02  0.1266605E+00
        -11   -1    0    0    0    0  0.00000000000E+00  0.00000000000E+00  0.45593999997E+02  0.45594000000E+02  0.51100000000E-03 0.  1.
         11   -1    0    0    0    0 -0.00000000000E+00 -0.00000000000E+00 -0.45593999997E+02  0.45594000000E+02  0.51100000000E-03 0. -1.
    9900012    2    1    2    0    0  0.10905004191E+02  0.19755478754E+02 -0.22528257590E+02  0.59301945882E+02  0.50000003382E+02 0.  0.
        -12    1    1    2    0    0 -0.10905004191E+02 -0.19755478754E+02  0.22528257590E+02  0.31886054118E+02  0.00000000000E+00 0.  1.
         11    1    3    3    0    0  0.55126323447E+00  0.31818955315E+01 -0.24212447646E+01  0.40361834446E+01  0.51100000000E-03 0. -1.
        -11    1    3    3    0    0  0.16724330818E+02  0.58549050788E+01 -0.32920707947E+02  0.37386577361E+02  0.51100000000E-03 0.  1.
        -12    1    3    3    0    0 -0.63705898614E+01  0.10718678143E+02  0.12813695122E+02  0.17879185076E+02  0.00000000000E+00 0.  1.
</event>
<event>
 7    1  0.1284777E-011  0.5930194E+02  0.7816164E-02  0.1266605E+00
        -11   -1    0    0    0    0  0.00000000000E+00  0.00000000000E+00  0.45593999997E+02  0.45594000000E+02  0.51100000000E-03 0. -1.
         11   -1    0    0    0    0 -0.00000000000E+00 -0.00000000000E+00 -0.45593999997E+02  0.45594000000E+02  0.51100000000E-03 0.  1.
    9900012    2    1    2    0    0  0.22345746716E+02  0.22521730095E+02 -0.31874700653E+01  0.59301942103E+02  0.49999996490E+02 0.  0.
        -12    1    1    2    0    0 -0.22345746716E+02 -0.22521730095E+02  0.31874700653E+01  0.31886057897E+02  0.00000000000E+00 0.  1.
         11    1    3    3    0    0  0.12358995908E+02  0.26500939399E+02 -0.12431335833E+02  0.31773930820E+02  0.51100000000E-03 0. -1.
        -11    1    3    3    0    0  0.66285140704E+01 -0.19845054061E+01 -0.75762301437E+01  0.10260347165E+02  0.51100000000E-03 0.  1.
         12    1    3    3    0    0  0.33582367378E+01 -0.19947038980E+01  0.16820095912E+02  0.17267664118E+02  0.00000000000E+00 0. -1.
</event>
<event>
 7    1  0.1284777E-011  0.5930195E+02  0.7816164E-02  0.1266605E+00
        -11   -1    0    0    0    0  0.00000000000E+00  0.00000000000E+00  0.45593999997E+02  0.45594000000E+02  0.51100000000E-03 0.  1.
         11   -1    0    0    0    0 -0.00000000000E+00 -0.00000000000E+00 -0.45593999997E+02  0.45594000000E+02  0.51100000000E-03 0. -1.
    9900012    2    1    2    0    0 -0.22850207723E+02 -0.42748374187E+01 -0.21824624758E+02  0.59301945466E+02  0.50000002622E+02 0.  0.
        -12    1    1    2    0    0  0.22850207723E+02  0.42748374187E+01  0.21824624758E+02  0.31886054534E+02  0.00000000000E+00 0.  1.
         11    1    3    3    0    0 -0.19289571036E+02 -0.11219884847E+02 -0.66062709478E+01  0.23272648814E+02  0.51100000000E-03 0. -1.
        -11    1    3    3    0    0  0.43490060133E+01 -0.56993347997E+01  0.65039128264E+01  0.96797289620E+01  0.51100000000E-03 0.  1.
         12    1    3    3    0    0 -0.79096427004E+01  0.12644382228E+02 -0.21722266636E+02  0.26349567689E+02  0.00000000000E+00 0. -1.
</event>
<event>
 7    1  0.1284777E-011  0.5930187E+02  0.7816164E-02  0.1266605E+00
        -11   -1    0    0    0    0  0.00000000000E+00  0.00000000000E+00  0.45593999997E+02  0.45594000000E+02  0.51100000000E-03 0.  1.
         11   -1    0    0    0    0 -0.00000000000E+00 -0.00000000000E+00 -0.45593999997E+02  0.45594000000E+02  0.51100000000E-03 0. -1.
    9900012    2    1    2    0    0 -0.22911289944E+02 -0.17150331004E+02 -0.14059317519E+02  0.59301867128E+02  0.49999859753E+02 0.  0.
        -12    1    1    2    0    0  0.22911289944E+02  0.17150331004E+02  0.14059317519E+02  0.31886132872E+02  0.00000000000E+00 0.  1.
         11    1    3    3    0    0 -0.22147453697E+02 -0.97885296782E+01 -0.29309011375E+01  0.24390883548E+02  0.51100000000E-03 0. -1.
        -11    1    3    3    0    0  0.21629862082E+01 -0.19991862718E+02 -0.73033926532E+01  0.21393752097E+02  0.51100000000E-03 0.  1.
         12    1    3    3    0    0 -0.29268224549E+01  0.12630061392E+02 -0.38250237280E+01  0.13517231483E+02  0.00000000000E+00 0. -1.
</event>
<event>
 7    1  0.1284777E-011  0.5930197E+02  0.7816164E-02  0.1266605E+00
        -11   -1    0    0    0    0  0.00000000000E+00  0.00000000000E+00  0.45593999997E+02  0.45594000000E+02  0.51100000000E-03 0. -1.
         11   -1    0    0    0    0 -0.00000000000E+00 -0.00000000000E+00 -0.45593999997E+02  0.45594000000E+02  0.51100000000E-03 0.  1.
    9900012    2    1    2    0    0  0.19710609980E+02 -0.13713751754E+02  0.20979603693E+02  0.59301970080E+02  0.50000047513E+02 0.  0.
        -12    1    1    2    0    0 -0.19710609980E+02  0.13713751754E+02 -0.20979603693E+02  0.31886029920E+02  0.00000000000E+00 0.  1.
         11    1    3    3    0    0 -0.96169671420E+01  0.19967870934E+01  0.20007053874E+02  0.22288010694E+02  0.51100000000E-03 0. -1.
        -11    1    3    3    0    0  0.19315446038E+02 -0.11185796297E+02  0.82931156105E+01  0.23811431314E+02  0.51100000000E-03 0.  1.
        -12    1    3    3    0    0  0.10012131084E+02 -0.45247425502E+01 -0.73205657915E+01  0.13202528072E+02  0.00000000000E+00 0.  1.
</event>
<event>
 7    1  0.1284777E-011  0.5930189E+02  0.7816164E-02  0.1266605E+00
        -11   -1    0    0    0    0  0.00000000000E+00  0.00000000000E+00  0.45593999997E+02  0.45594000000E+02  0.51100000000E-03 0.  1.
         11   -1    0    0    0    0 -0.00000000000E+00 -0.00000000000E+00 -0.45593999997E+02  0.45594000000E+02  0.51100000000E-03 0. -1.
    9900012    2    1    2    0    0 -0.27201519847E+02  0.13157330527E+02 -0.10182644851E+02  0.59301885706E+02  0.49999893635E+02 0.  0.
        -12    1    1    2    0    0  0.27201519847E+02 -0.13157330527E+02  0.10182644851E+02  0.31886114294E+02  0.00000000000E+00 0.  1.
         11    1    3    3    0    0 -0.29644695634E+01  0.60836957705E+01 -0.18875076875E+02  0.20051632385E+02  0.51100000000E-03 0. -1.
        -11    1    3    3    0    0 -0.76343697554E+01 -0.10805130102E+02 -0.33686452753E+00  0.13234346076E+02  0.51100000000E-03 0.  1.
        -12    1    3    3    0    0 -0.16602680528E+02  0.17878764859E+02  0.90292965510E+01  0.26015907245E+02  0.00000000000E+00 0.  1.
</event>
<event>
 7    1  0.1284777E-011  0.5930186E+02  0.7816164E-02  0.1266605E+00
        -11   -1    0    0    0    0  0.00000000000E+00  0.00000000000E+00  0.45593999997E+02  0.45594000000E+02  0.51100000000E-03 0. -1.
         11   -1    0    0    0    0 -0.00000000000E+00 -0.00000000000E+00 -0.45593999997E+02  0.45594000000E+02  0.51100000000E-03 0.  1.
    9900012    2    1    2    0    0 -0.15057940157E+02  0.27536231665E+02 -0.56338541208E+01  0.59301859934E+02  0.49999846632E+02 0.  0.
        -12    1    1    2    0    0  0.15057940157E+02 -0.27536231665E+02  0.56338541208E+01  0.31886140066E+02  0.00000000000E+00 0.  1.
         11    1    3    3    0    0  0.17394460647E+00 -0.10377818865E+01  0.15434495044E+02  0.15470322734E+02  0.51100000000E-03 0. -1.
        -11    1    3    3    0    0  0.24369072153E+01 -0.18424340363E+01 -0.30194333413E+01  0.42953530609E+01  0.51100000000E-03 0.  1.
        -12    1    3    3    0    0 -0.17668791979E+02  0.30416447588E+02 -0.18048915824E+02  0.39536184139E+02  0.00000000000E+00 0.  1.
</event>
<event>
 7    1  0.1284777E-011  0.5930195E+02  0.7816164E-02  0.1266605E+00
        -11   -1    0    0    0    0  0.00000000000E+00  0.00000000000E+00  0.45593999997E+02  0.45594000000E+02  0.51100000000E-03 0.  1.
         11   -1    0    0    0    0 -0.00000000000E+00 -0.00000000000E+00 -0.45593999997E+02  0.45594000000E+02  0.51100000000E-03 0. -1.
    9900012    2    1    2    0    0 -0.16543839371E+02 -0.12107891364E+02 -0.24421716086E+02  0.59301954917E+02  0.50000019860E+02 0.  0.
        -12    1    1    2    0    0  0.16543839371E+02  0.12107891364E+02  0.24421716086E+02  0.31886045083E+02  0.00000000000E+00 0.  1.
         11    1    3    3    0    0 -0.18111637897E+02  0.60200937678E+01  0.10957625980E+01  0.19117365201E+02  0.51100000000E-03 0. -1.
        -11    1    3    3    0    0 -0.58197516217E+01  0.34635641682E+01 -0.12758924546E+01  0.68915664041E+01  0.51100000000E-03 0.  1.
        -12    1    3    3    0    0  0.73875501481E+01 -0.21591549300E+02 -0.24241586230E+02  0.33293023313E+02  0.00000000000E+00 0.  1.
</event>
<event>
 7    1  0.1284777E-011  0.5930187E+02  0.7816164E-02  0.1266605E+00
        -11   -1    0    0    0    0  0.00000000000E+00  0.00000000000E+00  0.45593999997E+02  0.45594000000E+02  0.51100000000E-03 0. -1.
         11   -1    0    0    0    0 -0.00000000000E+00 -0.00000000000E+00 -0.45593999997E+02  0.45594000000E+02  0.51100000000E-03 0.  1.
    9900012    2    1    2    0    0  0.30910423430E+02 -0.74206991803E+01 -0.24908347127E+01  0.59301869621E+02  0.49999864301E+02 0.  0.
        -12    1    1    2    0    0 -0.30910423430E+02  0.74206991803E+01  0.24908347127E+01  0.31886130379E+02  0.00000000000E+00 0.  1.
         11    1    3    3    0    0 -0.42376057573E-01 -0.18605494038E+01 -0.13277747386E+02  0.13407535781E+02  0.51100000000E-03 0. -1.
        -11    1    3    3    0    0  0.20625791586E+02 -0.97798591941E+01 -0.78792754694E+01  0.24148538395E+02  0.51100000000E-03 0.  1.
         12    1    3    3    0    0  0.10327007901E+02  0.42197094175E+01  0.18666188143E+02  0.21745795445E+02  0.00000000000E+00 0. -1.
</event>
<event>
 7    1  0.1284777E-011  0.5930194E+02  0.7816164E-02  0.1266605E+00
        -11   -1    0    0    0    0  0.00000000000E+00  0.00000000000E+00  0.45593999997E+02  0.45594000000E+02  0.51100000000E-03 0. -1.
         11   -1    0    0    0    0 -0.00000000000E+00 -0.00000000000E+00 -0.45593999997E+02  0.45594000000E+02  0.51100000000E-03 0.  1.
    9900012    2    1    2    0    0  0.37737795700E+01  0.28211369854E+02  0.14373514419E+02  0.59301941635E+02  0.49999995636E+02 0.  0.
        -12    1    1    2    0    0 -0.37737795700E+01 -0.28211369854E+02 -0.14373514419E+02  0.31886058365E+02  0.00000000000E+00 0.  1.
         11    1    3    3    0    0  0.11012814942E+02  0.21914110912E+01  0.22645069321E+02  0.25276145678E+02  0.51100000000E-03 0. -1.
        -11    1    3    3    0    0  0.40317918164E+00  0.40018624749E+01 -0.98763640748E+01  0.10663959130E+02  0.51100000000E-03 0.  1.
        -12    1    3    3    0    0 -0.76422145536E+01  0.22018096288E+02  0.16048091725E+01  0.23361836827E+02  0.00000000000E+00 0.  1.
</event>
<event>
 7    1  0.1284777E-011  0.5930192E+02  0.7816164E-02  0.1266605E+00
        -11   -1    0    0    0    0  0.00000000000E+00  0.00000000000E+00  0.45593999997E+02  0.45594000000E+02  0.51100000000E-03 0. -1.
         11   -1    0    0    0    0 -0.00000000000E+00 -0.00000000000E+00 -0.45593999997E+02  0.45594000000E+02  0.51100000000E-03 0.  1.
    9900012    2    1    2    0    0  0.10559751970E+02  0.25865594761E+02  0.15368293761E+02  0.59301924558E+02  0.49999964491E+02 0.  0.
        -12    1    1    2    0    0 -0.10559751970E+02 -0.25865594761E+02 -0.15368293761E+02  0.31886075442E+02  0.00000000000E+00 0.  1.
         11    1    3    3    0    0  0.12729787382E+02  0.53280204903E+01  0.83360157446E+01  0.16122172555E+02  0.51100000000E-03 0. -1.
        -11    1    3    3    0    0  0.77445147496E+01  0.27958774661E+02  0.95482053346E+01  0.30542410099E+02  0.51100000000E-03 0.  1.
         12    1    3    3    0    0 -0.99145501611E+01 -0.74212003905E+01 -0.25159273186E+01  0.12637341904E+02  0.00000000000E+00 0. -1.
</event>
<event>
 7    1  0.1284777E-011  0.5930192E+02  0.7816164E-02  0.1266605E+00
        -11   -1    0    0    0    0  0.00000000000E+00  0.00000000000E+00  0.45593999997E+02  0.45594000000E+02  0.51100000000E-03 0.  1.
         11   -1    0    0    0    0 -0.00000000000E+00 -0.00000000000E+00 -0.45593999997E+02  0.45594000000E+02  0.51100000000E-03 0. -1.
    9900012    2    1    2    0    0  0.18919480461E+02 -0.22522062865E+02 -0.12309841908E+02  0.59301917387E+02  0.49999951413E+02 0.  0.
        -12    1    1    2    0    0 -0.18919480461E+02  0.22522062865E+02  0.12309841908E+02  0.31886082613E+02  0.00000000000E+00 0.  1.
         11    1    3    3    0    0  0.27020891513E+02 -0.27614723359E+02 -0.17093316860E+02  0.42247875756E+02  0.51100000000E-03 0. -1.
        -11    1    3    3    0    0  0.17871966135E+01  0.59491454719E+01  0.32500777324E+01  0.70106639563E+01  0.51100000000E-03 0.  1.
        -12    1    3    3    0    0 -0.98886076653E+01 -0.85648497795E+00  0.15333972193E+01  0.10043377674E+02  0.00000000000E+00 0.  1.
</event>
<event>
 7    1  0.1284777E-011  0.5930195E+02  0.7816164E-02  0.1266605E+00
        -11   -1    0    0    0    0  0.00000000000E+00  0.00000000000E+00  0.45593999997E+02  0.45594000000E+02  0.51100000000E-03 0.  1.
         11   -1    0    0    0    0 -0.00000000000E+00 -0.00000000000E+00 -0.45593999997E+02  0.45594000000E+02  0.51100000000E-03 0. -1.
    9900012    2    1    2    0    0 -0.10527947023E+02  0.11019090470E+02 -0.28008247216E+02  0.59301953908E+02  0.50000018019E+02 0.  0.
        -12    1    1    2    0    0  0.10527947023E+02 -0.11019090470E+02  0.28008247216E+02  0.31886046092E+02  0.00000000000E+00 0.  1.
         11    1    3    3    0    0 -0.42613206493E+00  0.13988198497E+01  0.56458782724E+01  0.58321717427E+01  0.51100000000E-03 0. -1.
        -11    1    3    3    0    0  0.26613076683E+01  0.82398886754E+01  0.68112521270E+01  0.11016872500E+02  0.51100000000E-03 0.  1.
         12    1    3    3    0    0 -0.12763122626E+02  0.13803819450E+01 -0.40465377615E+02  0.42452909665E+02  0.00000000000E+00 0. -1.
</event>
<event>
 7    1  0.1284777E-011  0.5930193E+02  0.7816164E-02  0.1266605E+00
        -11   -1    0    0    0    0  0.00000000000E+00  0.00000000000E+00  0.45593999997E+02  0.45594000000E+02  0.51100000000E-03 0.  1.
         11   -1    0    0    0    0 -0.00000000000E+00 -0.00000000000E+00 -0.45593999997E+02  0.45594000000E+02  0.51100000000E-03 0. -1.
    9900012    2    1    2    0    0 -0.22146446207E+02 -0.54967368074E+01 -0.22272010001E+02  0.59301927419E+02  0.49999969710E+02 0.  0.
        -12    1    1    2    0    0  0.22146446207E+02  0.54967368074E+01  0.22272010001E+02  0.31886072581E+02  0.00000000000E+00 0.  1.
         11    1    3    3    0    0 -0.76695981022E+01  0.10035604997E+02 -0.21469008383E+02  0.24908922577E+02  0.51100000000E-03 0. -1.
        -11    1    3    3    0    0  0.47721688633E+01 -0.14122091544E+02 -0.20759263522E+01  0.15050466296E+02  0.51100000000E-03 0.  1.
        -12    1    3    3    0    0 -0.19249016969E+02 -0.14102502599E+01  0.12729247348E+01  0.19342538547E+02  0.00000000000E+00 0.  1.
</event>
<event>
 7    1  0.1284777E-011  0.5930186E+02  0.7816164E-02  0.1266605E+00
        -11   -1    0    0    0    0  0.00000000000E+00  0.00000000000E+00  0.45593999997E+02  0.45594000000E+02  0.51100000000E-03 0.  1.
         11   -1    0    0    0    0 -0.00000000000E+00 -0.00000000000E+00 -0.45593999997E+02  0.45594000000E+02  0.51100000000E-03 0. -1.
    9900012    2    1    2    0    0 -0.53256232673E+01 -0.31259736593E+02 -0.33455434205E+01  0.59301857934E+02  0.49999842986E+02 0.  0.
        -12    1    1    2    0    0  0.53256232673E+01  0.31259736593E+02  0.33455434205E+01  0.31886142066E+02  0.00000000000E+00 0.  1.
         11    1    3    3    0    0  0.15338990727E+02 -0.11147552123E+02 -0.20139123794E+01  0.19068518510E+02  0.51100000000E-03 0. -1.
        -11    1    3    3    0    0 -0.54095546948E+01 -0.58595379458E+01  0.12758844501E+02  0.15046115119E+02  0.51100000000E-03 0.  1.
        -12    1    3    3    0    0 -0.15255059299E+02 -0.14252646525E+02 -0.14090475542E+02  0.25187224305E+02  0.00000000000E+00 0.  1.
</event>
<event>
 7    1  0.1284777E-011  0.5930201E+02  0.7816164E-02  0.1266605E+00
        -11   -1    0    0    0    0  0.00000000000E+00  0.00000000000E+00  0.45593999997E+02  0.45594000000E+02  0.51100000000E-03 0. -1.
         11   -1    0    0    0    0 -0.00000000000E+00 -0.00000000000E+00 -0.45593999997E+02  0.45594000000E+02  0.51100000000E-03 0.  1.
    9900012    2    1    2    0    0  0.18539828423E+02 -0.97401056507E+01  0.24044154248E+02  0.59302011705E+02  0.50000123426E+02 0.  0.
        -12    1    1    2    0    0 -0.18539828423E+02  0.97401056507E+01 -0.24044154248E+02  0.31885988295E+02  0.00000000000E+00 0.  1.
         11    1    3    3    0    0  0.57195511063E+01  0.14501746317E+02 -0.66526144114E+00  0.15603092134E+02  0.51100000000E-03 0. -1.
        -11    1    3    3    0    0 -0.31016246041E+01  0.22642230330E+01 -0.40859957661E+00  0.38618305249E+01  0.51100000000E-03 0.  1.
         12    1    3    3    0    0  0.15921901921E+02 -0.26506075001E+02  0.25118015266E+02  0.39837089046E+02  0.00000000000E+00 0. -1.
</event>
<event>
 7    1  0.1284777E-011  0.5930196E+02  0.7816164E-02  0.1266605E+00
        -11   -1    0    0    0    0  0.00000000000E+00  0.00000000000E+00  0.45593999997E+02  0.45594000000E+02  0.51100000000E-03 0. -1.
         11   -1    0    0    0    0 -0.00000000000E+00 -0.00000000000E+00 -0.45593999997E+02  0.45594000000E+02  0.51100000000E-03 0.  1.
    9900012    2    1    2    0    0  0.25195322580E+02  0.56181329610E+01  0.18717684291E+02  0.59301962254E+02  0.50000033241E+02 0.  0.
        -12    1    1    2    0    0 -0.25195322580E+02 -0.56181329610E+01 -0.18717684291E+02  0.31886037746E+02  0.00000000000E+00 0.  1.
         11    1    3    3    0    0  0.13937536436E+02  0.25351863419E+01  0.36606761080E+01  0.14631563195E+02  0.51100000000E-03 0. -1.
        -11    1    3    3    0    0  0.76791403345E+01  0.57629374911E+01 -0.13054847457E+02  0.16205236413E+02  0.51100000000E-03 0.  1.
         12    1    3    3    0    0  0.35786458094E+01 -0.26799908719E+01  0.28111855641E+02  0.28465162646E+02  0.00000000000E+00 0. -1.
</event>
<event>
 7    1  0.1284777E-011  0.5930196E+02  0.7816164E-02  0.1266605E+00
        -11   -1    0    0    0    0  0.00000000000E+00  0.00000000000E+00  0.45593999997E+02  0.45594000000E+02  0.51100000000E-03 0. -1.
         11   -1    0    0    0    0 -0.00000000000E+00 -0.00000000000E+00 -0.45593999997E+02  0.45594000000E+02  0.51100000000E-03 0.  1.
    9900012    2    1    2    0    0  0.17934475743E+02  0.13031454587E+02  0.22918442571E+02  0.59301964832E+02  0.50000037942E+02 0.  0.
        -12    1    1    2    0    0 -0.17934475743E+02 -0.13031454587E+02 -0.22918442571E+02  0.31886035168E+02  0.00000000000E+00 0.  1.
         11    1    3    3    0    0  0.14081192587E+02 -0.64220769190E+01  0.23161283575E+02  0.27856204223E+02  0.51100000000E-03 0. -1.
        -11    1    3    3    0    0  0.26619699083E+01 -0.49631939525E+01  0.36223222902E+01  0.66963121969E+01  0.51100000000E-03 0.  1.
         12    1    3    3    0    0  0.11913132476E+01  0.24416725459E+02 -0.38651632936E+01  0.24749448412E+02  0.00000000000E+00 0. -1.
</event>
<event>
 7    1  0.1284777E-011  0.5930193E+02  0.7816164E-02  0.1266605E+00
        -11   -1    0    0    0    0  0.00000000000E+00  0.00000000000E+00  0.45593999997E+02  0.45594000000E+02  0.51100000000E-03 0. -1.
         11   -1    0    0    0    0 -0.00000000000E+00 -0.00000000000E+00 -0.45593999997E+02  0.45594000000E+02  0.51100000000E-03 0.  1.
    9900012    2    1    2    0    0 -0.36532413146E+01 -0.22236193236E+02  0.22559408844E+02  0.59301931112E+02  0.49999976444E+02 0.  0.
        -12    1    1    2    0    0  0.36532413146E+01  0.22236193236E+02 -0.22559408844E+02  0.31886068888E+02  0.00000000000E+00 0.  1.
         11    1    3    3    0    0  0.43672953343E+01 -0.14552596419E+02  0.25973959945E+02  0.30091492594E+02  0.51100000000E-03 0. -1.
        -11    1    3    3    0    0 -0.39184116524E+01  0.10031255056E+02 -0.21578764189E+01  0.10983462969E+02  0.51100000000E-03 0.  1.
         12    1    3    3    0    0 -0.41021249965E+01 -0.17714851874E+02 -0.12566746817E+01  0.18226975549E+02  0.00000000000E+00 0. -1.
</event>
<event>
 7    1  0.1284777E-011  0.5930196E+02  0.7816164E-02  0.1266605E+00
        -11   -1    0    0    0    0  0.00000000000E+00  0.00000000000E+00  0.45593999997E+02  0.45594000000E+02  0.51100000000E-03 0. -1.
         11   -1    0    0    0    0 -0.00000000000E+00 -0.00000000000E+00 -0.45593999997E+02  0.45594000000E+02  0.51100000000E-03 0.  1.
    9900012    2    1    2    0    0  0.24087271152E+02 -0.20843788554E+02  0.14351580649E+01  0.59301955537E+02  0.50000020991E+02 0.  0.
        -12    1    1    2    0    0 -0.24087271152E+02  0.20843788554E+02 -0.14351580649E+01  0.31886044463E+02  0.00000000000E+00 0.  1.
         11    1    3    3    0    0 -0.68198126406E+01  0.18716670069E+01  0.34126409025E-01  0.70720680646E+01  0.51100000000E-03 0. -1.
        -11    1    3    3    0    0 -0.65860329552E+01 -0.52117124524E+01  0.63890446368E+01  0.10552614292E+02  0.51100000000E-03 0.  1.
        -12    1    3    3    0    0  0.37493116748E+02 -0.17503743108E+02 -0.49880129809E+01  0.41677273180E+02  0.00000000000E+00 0.  1.
</event>
<event>
 7    1  0.1284777E-011  0.5930195E+02  0.7816164E-02  0.1266605E+00
        -11   -1    0    0    0    0  0.00000000000E+00  0.00000000000E+00  0.45593999997E+02  0.45594000000E+02  0.51100000000E-03 0. -1.
         11   -1    0    0    0    0 -0.00000000000E+00 -0.00000000000E+00 -0.45593999997E+02  0.45594000000E+02  0.51100000000E-03 0.  1.
    9900012    2    1    2    0    0 -0.85135178739E+01 -0.30377548129E+01  0.30577974633E+02  0.59301945469E+02  0.50000002628E+02 0.  0.
        -12    1    1    2    0    0  0.85135178739E+01  0.30377548129E+01 -0.30577974633E+02  0.31886054531E+02  0.00000000000E+00 0.  1.
         11    1    3    3    0    0 -0.13985573401E+02  0.14214596924E+02 -0.15602946478E+00  0.19941799681E+02  0.51100000000E-03 0. -1.
        -11    1    3    3    0    0 -0.25539889185E+01  0.79893448300E+00 -0.17006842886E+00  0.26814323105E+01  0.51100000000E-03 0.  1.
        -12    1    3    3    0    0  0.80260444453E+01 -0.18051286220E+02  0.30904072527E+02  0.36678713478E+02  0.00000000000E+00 0.  1.
</event>
<event>
 7    1  0.1284777E-011  0.5930185E+02  0.7816164E-02  0.1266605E+00
        -11   -1    0    0    0    0  0.00000000000E+00  0.00000000000E+00  0.45593999997E+02  0.45594000000E+02  0.51100000000E-03 0.  1.
         11   -1    0    0    0    0 -0.00000000000E+00 -0.00000000000E+00 -0.45593999997E+02  0.45594000000E+02  0.51100000000E-03 0. -1.
    9900012    2    1    2    0    0 -0.24713520418E+02  0.12050281632E+02 -0.16148045534E+02  0.59301846995E+02  0.49999823035E+02 0.  0.
        -12    1    1    2    0    0  0.24713520418E+02 -0.12050281632E+02  0.16148045534E+02  0.31886153005E+02  0.00000000000E+00 0.  1.
         11    1    3    3    0    0  0.36207168697E+01  0.19758267828E+01 -0.86178732264E+01  0.95541206468E+01  0.51100000000E-03 0. -1.
        -11    1    3    3    0    0 -0.10648799119E+02  0.75216215053E+01  0.15720982483E+02  0.20423540419E+02  0.51100000000E-03 0.  1.
         12    1    3    3    0    0 -0.17685438169E+02  0.25528333442E+01 -0.23251154791E+02  0.29324185929E+02  0.00000000000E+00 0. -1.
</event>
<event>
 7    1  0.1284777E-011  0.5930195E+02  0.7816164E-02  0.1266605E+00
        -11   -1    0    0    0    0  0.00000000000E+00  0.00000000000E+00  0.45593999997E+02  0.45594000000E+02  0.51100000000E-03 0. -1.
         11   -1    0    0    0    0 -0.00000000000E+00 -0.00000000000E+00 -0.45593999997E+02  0.45594000000E+02  0.51100000000E-03 0.  1.
    9900012    2    1    2    0    0  0.23516154820E+02  0.20481978765E+02 -0.66482590567E+01  0.59301947561E+02  0.50000006444E+02 0.  0.
        -12    1    1    2    0    0 -0.23516154820E+02 -0.20481978765E+02  0.66482590567E+01  0.31886052439E+02  0.00000000000E+00 0.  1.
         11    1    3    3    0    0  0.77075951733E+01  0.20094783958E+02 -0.37331384395E+01  0.21843618943E+02  0.51100000000E-03 0. -1.
        -11    1    3    3    0    0  0.75859023195E+01  0.13488946439E+02  0.90274359035E+01  0.17916254890E+02  0.51100000000E-03 0.  1.
        -12    1    3    3    0    0  0.82226573271E+01 -0.13101751632E+02 -0.11942556521E+02  0.19542073728E+02  0.00000000000E+00 0.  1.
</event>
<event>
 7    1  0.1284777E-011  0.5930205E+02  0.7816164E-02  0.1266604E+00
        -11   -1    0    0    0    0  0.00000000000E+00  0.00000000000E+00  0.45593999997E+02  0.45594000000E+02  0.51100000000E-03 0. -1.
         11   -1    0    0    0    0 -0.00000000000E+00 -0.00000000000E+00 -0.45593999997E+02  0.45594000000E+02  0.51100000000E-03 0.  1.
    9900012    2    1    2    0    0 -0.24228895488E+02  0.11720901803E+02  0.17096628370E+02  0.59302052982E+02  0.50000198706E+02 0.  0.
        -12    1    1    2    0    0  0.24228895488E+02 -0.11720901803E+02 -0.17096628370E+02  0.31885947018E+02  0.00000000000E+00 0.  1.
         11    1    3    3    0    0  0.33353152904E+01  0.60574848714E+01  0.12690786860E+01  0.70305058158E+01  0.51100000000E-03 0. -1.
        -11    1    3    3    0    0 -0.31062859671E+01 -0.69413985976E+01 -0.11307742375E+02  0.13627071031E+02  0.51100000000E-03 0.  1.
         12    1    3    3    0    0 -0.24457924811E+02  0.12604815529E+02  0.27135292059E+02  0.38644476135E+02  0.00000000000E+00 0. -1.
</event>
<event>
 7    1  0.1284777E-011  0.5930195E+02  0.7816164E-02  0.1266605E+00
        -11   -1    0    0    0    0  0.00000000000E+00  0.00000000000E+00  0.45593999997E+02  0.45594000000E+02  0.51100000000E-03 0.  1.
         11   -1    0    0    0    0 -0.00000000000E+00 -0.00000000000E+00 -0.45593999997E+02  0.45594000000E+02  0.51100000000E-03 0. -1.
    9900012    2    1    2    0    0  0.15149976008E+02  0.27459984481E+02  0.57574066262E+01  0.59301948946E+02  0.50000008970E+02 0.  0.
        -12    1    1    2    0    0 -0.15149976008E+02 -0.27459984481E+02 -0.57574066262E+01  0.31886051054E+02  0.00000000000E+00 0.  1.
         11    1    3    3    0    0  0.32056876786E+01  0.15813563456E+02 -0.15262630973E+02  0.22210203221E+02  0.51100000000E-03 0. -1.
        -11    1    3    3    0    0  0.31375165673E+01  0.18585153810E+02  0.98557788008E+01  0.21269422380E+02  0.51100000000E-03 0.  1.
         12    1    3    3    0    0  0.88067717624E+01 -0.69387327847E+01  0.11164258798E+02  0.15822323345E+02  0.00000000000E+00 0. -1.
</event>
<event>
 7    1  0.1284777E-011  0.5930194E+02  0.7816164E-02  0.1266605E+00
        -11   -1    0    0    0    0  0.00000000000E+00  0.00000000000E+00  0.45593999997E+02  0.45594000000E+02  0.51100000000E-03 0.  1.
         11   -1    0    0    0    0 -0.00000000000E+00 -0.00000000000E+00 -0.45593999997E+02  0.45594000000E+02  0.51100000000E-03 0. -1.
    9900012    2    1    2    0    0  0.89107942029E+01  0.96691455031E+01 -0.29048684954E+02  0.59301941516E+02  0.49999995419E+02 0.  0.
        -12    1    1    2    0    0 -0.89107942029E+01 -0.96691455031E+01  0.29048684954E+02  0.31886058484E+02  0.00000000000E+00 0.  1.
         11    1    3    3    0    0  0.92644521846E+01  0.22132379152E+02 -0.69802844483E+01  0.24987930135E+02  0.51100000000E-03 0. -1.
        -11    1    3    3    0    0  0.18356181098E+01 -0.19391373443E+01  0.47346957559E+01  0.54357236544E+01  0.51100000000E-03 0.  1.
         12    1    3    3    0    0 -0.21892760916E+01 -0.10524096304E+02 -0.26803096261E+02  0.28878287727E+02  0.00000000000E+00 0. -1.
</event>
<event>
 7    1  0.1284777E-011  0.5930194E+02  0.7816164E-02  0.1266605E+00
        -11   -1    0    0    0    0  0.00000000000E+00  0.00000000000E+00  0.45593999997E+02  0.45594000000E+02  0.51100000000E-03 0.  1.
         11   -1    0    0    0    0 -0.00000000000E+00 -0.00000000000E+00 -0.45593999997E+02  0.45594000000E+02  0.51100000000E-03 0. -1.
    9900012    2    1    2    0    0  0.20902624779E+02  0.12684310508E+02 -0.20467269765E+02  0.59301943685E+02  0.49999999375E+02 0.  0.
        -12    1    1    2    0    0 -0.20902624779E+02 -0.12684310508E+02  0.20467269765E+02  0.31886056315E+02  0.00000000000E+00 0.  1.
         11    1    3    3    0    0  0.37790051997E+01  0.29362619747E+01 -0.10534023944E+02  0.11570141546E+02  0.51100000000E-03 0. -1.
        -11    1    3    3    0    0 -0.18648495492E+01  0.23006948843E+02 -0.16715018961E+01  0.23142845066E+02  0.51100000000E-03 0.  1.
         12    1    3    3    0    0  0.18988469128E+02 -0.13258900310E+02 -0.82617439249E+01  0.24588957073E+02  0.00000000000E+00 0. -1.
</event>
<event>
 7    1  0.1284777E-011  0.5930194E+02  0.7816164E-02  0.1266605E+00
        -11   -1    0    0    0    0  0.00000000000E+00  0.00000000000E+00  0.45593999997E+02  0.45594000000E+02  0.51100000000E-03 0.  1.
         11   -1    0    0    0    0 -0.00000000000E+00 -0.00000000000E+00 -0.45593999997E+02  0.45594000000E+02  0.51100000000E-03 0. -1.
    9900012    2    1    2    0    0  0.60401334955E+01 -0.29647370683E+02 -0.10063354196E+02  0.59301938801E+02  0.49999990468E+02 0.  0.
        -12    1    1    2    0    0 -0.60401334955E+01  0.29647370683E+02  0.10063354196E+02  0.31886061199E+02  0.00000000000E+00 0.  1.
         11    1    3    3    0    0 -0.68722118631E+01 -0.96049158768E+01  0.27463055271E+01  0.12125341199E+02  0.51100000000E-03 0. -1.
        -11    1    3    3    0    0 -0.90435518734E+01 -0.10222335976E+02  0.76091156524E+01  0.15626279934E+02  0.51100000000E-03 0.  1.
         12    1    3    3    0    0  0.21955897232E+02 -0.98201188303E+01 -0.20418775376E+02  0.31550317668E+02  0.00000000000E+00 0. -1.
</event>
<event>
 7    1  0.1284777E-011  0.5930194E+02  0.7816164E-02  0.1266605E+00
        -11   -1    0    0    0    0  0.00000000000E+00  0.00000000000E+00  0.45593999997E+02  0.45594000000E+02  0.51100000000E-03 0.  1.
         11   -1    0    0    0    0 -0.00000000000E+00 -0.00000000000E+00 -0.45593999997E+02  0.45594000000E+02  0.51100000000E-03 0. -1.
    9900012    2    1    2    0    0 -0.23652025096E+01 -0.23042012627E+02 -0.21913283700E+02  0.59301944563E+02  0.50000000976E+02 0.  0.
        -12    1    1    2    0    0  0.23652025096E+01  0.23042012627E+02  0.21913283700E+02  0.31886055437E+02  0.00000000000E+00 0.  1.
         11    1    3    3    0    0  0.37882673853E+01  0.75189701875E+01 -0.16130667147E+02  0.18195722171E+02  0.51100000000E-03 0. -1.
        -11    1    3    3    0    0 -0.15068556194E+02 -0.17141251089E+02 -0.92501382129E+01  0.24626183867E+02  0.51100000000E-03 0.  1.
         12    1    3    3    0    0  0.89150862991E+01 -0.13419731726E+02  0.34675216594E+01  0.16480038525E+02  0.00000000000E+00 0. -1.
</event>
<event>
 7    1  0.1284777E-011  0.5930192E+02  0.7816164E-02  0.1266605E+00
        -11   -1    0    0    0    0  0.00000000000E+00  0.00000000000E+00  0.45593999997E+02  0.45594000000E+02  0.51100000000E-03 0.  1.
         11   -1    0    0    0    0 -0.00000000000E+00 -0.00000000000E+00 -0.45593999997E+02  0.45594000000E+02  0.51100000000E-03 0. -1.
    9900012    2    1    2    0    0 -0.21285368182E+02  0.14575443638E+02 -0.18740636205E+02  0.59301923081E+02  0.49999961798E+02 0.  0.
        -12    1    1    2    0    0  0.21285368182E+02 -0.14575443638E+02  0.18740636205E+02  0.31886076919E+02  0.00000000000E+00 0.  1.
         11    1    3    3    0    0 -0.81511515946E+01  0.51897337714E+01 -0.18018616124E+02  0.20446152113E+02  0.51100000000E-03 0. -1.
        -11    1    3    3    0    0 -0.14504455475E+02 -0.11131785844E+02 -0.13807205254E+00  0.18284281470E+02  0.51100000000E-03 0.  1.
        -12    1    3    3    0    0  0.13702388879E+01  0.20517495711E+02 -0.58394802883E+00  0.20571489498E+02  0.00000000000E+00 0.  1.
</event>
<event>
 7    1  0.1284777E-011  0.5930196E+02  0.7816164E-02  0.1266605E+00
        -11   -1    0    0    0    0  0.00000000000E+00  0.00000000000E+00  0.45593999997E+02  0.45594000000E+02  0.51100000000E-03 0. -1.
         11   -1    0    0    0    0 -0.00000000000E+00 -0.00000000000E+00 -0.45593999997E+02  0.45594000000E+02  0.51100000000E-03 0.  1.
    9900012    2    1    2    0    0  0.84634548905E+00  0.31562772447E+02  0.44491457310E+01  0.59301955984E+02  0.50000021806E+02 0.  0.
        -12    1    1    2    0    0 -0.84634548905E+00 -0.31562772447E+02 -0.44491457310E+01  0.31886044016E+02  0.00000000000E+00 0.  1.
         11    1    3    3    0    0  0.14360936561E+02  0.96804415682E+01  0.91683046199E+01  0.19596052096E+02  0.51100000000E-03 0.  1.
        -11    1    3    3    0    0  0.13331939614E+01  0.19019103063E+02 -0.12402225204E+02  0.22744645034E+02  0.51100000000E-03 0. -1.
         12    1    3    3    0    0 -0.14847785034E+02  0.28632278163E+01  0.76830663152E+01  0.16961258855E+02  0.00000000000E+00 0. -1.
</event>
<event>
 7    1  0.1284777E-011  0.5930193E+02  0.7816164E-02  0.1266605E+00
        -11   -1    0    0    0    0  0.00000000000E+00  0.00000000000E+00  0.45593999997E+02  0.45594000000E+02  0.51100000000E-03 0. -1.
         11   -1    0    0    0    0 -0.00000000000E+00 -0.00000000000E+00 -0.45593999997E+02  0.45594000000E+02  0.51100000000E-03 0.  1.
    9900012    2    1    2    0    0  0.31823875946E+02  0.15215218152E+01 -0.12834088730E+01  0.59301933337E+02  0.49999980503E+02 0.  0.
        -12    1    1    2    0    0 -0.31823875946E+02 -0.15215218152E+01  0.12834088730E+01  0.31886066663E+02  0.00000000000E+00 0.  1.
         11    1    3    3    0    0  0.93889096484E+01  0.59908488558E+01  0.68592017513E+01  0.13080158383E+02  0.51100000000E-03 0. -1.
        -11    1    3    3    0    0 -0.63673094065E+01 -0.11017918381E+02  0.52803610672E+01  0.13777494975E+02  0.51100000000E-03 0.  1.
         12    1    3    3    0    0  0.28802275705E+02  0.65485913407E+01 -0.13422971692E+02  0.32444279979E+02  0.00000000000E+00 0. -1.
</event>
<event>
 7    1  0.1284777E-011  0.5930193E+02  0.7816164E-02  0.1266605E+00
        -11   -1    0    0    0    0  0.00000000000E+00  0.00000000000E+00  0.45593999997E+02  0.45594000000E+02  0.51100000000E-03 0. -1.
         11   -1    0    0    0    0 -0.00000000000E+00 -0.00000000000E+00 -0.45593999997E+02  0.45594000000E+02  0.51100000000E-03 0.  1.
    9900012    2    1    2    0    0 -0.23017878382E+01 -0.31304032422E+02 -0.56107483976E+01  0.59301934537E+02  0.49999982692E+02 0.  0.
        -12    1    1    2    0    0  0.23017878382E+01  0.31304032422E+02  0.56107483976E+01  0.31886065463E+02  0.00000000000E+00 0.  1.
         11    1    3    3    0    0 -0.78222563463E+01 -0.10874134282E+02  0.96573730568E+01  0.16513610912E+02  0.51100000000E-03 0. -1.
        -11    1    3    3    0    0  0.11625414907E+02 -0.24589768650E+02 -0.15937868261E+01  0.27246048350E+02  0.51100000000E-03 0.  1.
         12    1    3    3    0    0 -0.61049463991E+01  0.41598705098E+01 -0.13674334628E+02  0.15542275275E+02  0.00000000000E+00 0. -1.
</event>
<event>
 7    1  0.1284777E-011  0.5930195E+02  0.7816164E-02  0.1266605E+00
        -11   -1    0    0    0    0  0.00000000000E+00  0.00000000000E+00  0.45593999997E+02  0.45594000000E+02  0.51100000000E-03 0.  1.
         11   -1    0    0    0    0 -0.00000000000E+00 -0.00000000000E+00 -0.45593999997E+02  0.45594000000E+02  0.51100000000E-03 0. -1.
    9900012    2    1    2    0    0 -0.77361187439E+01  0.16423036322E+02 -0.26213672137E+02  0.59301948784E+02  0.50000008674E+02 0.  0.
        -12    1    1    2    0    0  0.77361187439E+01 -0.16423036322E+02  0.26213672137E+02  0.31886051216E+02  0.00000000000E+00 0.  1.
         11    1    3    3    0    0 -0.13686837302E+02  0.90839462608E+01 -0.14071712721E+02  0.21630087706E+02  0.51100000000E-03 0. -1.
        -11    1    3    3    0    0 -0.28027623407E+01 -0.13032855933E+02 -0.28580518297E+01  0.13633754840E+02  0.51100000000E-03 0.  1.
         12    1    3    3    0    0  0.87534808988E+01  0.20371945994E+02 -0.92839075866E+01  0.24038106238E+02  0.00000000000E+00 0. -1.
</event>
<event>
 7    1  0.1284777E-011  0.5930196E+02  0.7816164E-02  0.1266605E+00
        -11   -1    0    0    0    0  0.00000000000E+00  0.00000000000E+00  0.45593999997E+02  0.45594000000E+02  0.51100000000E-03 0.  1.
         11   -1    0    0    0    0 -0.00000000000E+00 -0.00000000000E+00 -0.45593999997E+02  0.45594000000E+02  0.51100000000E-03 0. -1.
    9900012    2    1    2    0    0 -0.20312352045E+00  0.31882290722E+02  0.44510145362E+00  0.59301955464E+02  0.50000020856E+02 0.  0.
        -12    1    1    2    0    0  0.20312352045E+00 -0.31882290722E+02 -0.44510145362E+00  0.31886044536E+02  0.00000000000E+00 0.  1.
         11    1    3    3    0    0 -0.55775930131E+01 -0.24202836818E+01  0.80215507840E+01  0.10065415747E+02  0.51100000000E-03 0. -1.
        -11    1    3    3    0    0  0.94013708364E+01 -0.39305794568E+01 -0.10825184133E+01  0.10247295977E+02  0.51100000000E-03 0.  1.
         12    1    3    3    0    0 -0.40269013438E+01  0.38233153861E+02 -0.64939309171E+01  0.38989243739E+02  0.00000000000E+00 0. -1.
</event>
<event>
 7    1  0.1284777E-011  0.5930191E+02  0.7816164E-02  0.1266605E+00
        -11   -1    0    0    0    0  0.00000000000E+00  0.00000000000E+00  0.45593999997E+02  0.45594000000E+02  0.51100000000E-03 0.  1.
         11   -1    0    0    0    0 -0.00000000000E+00 -0.00000000000E+00 -0.45593999997E+02  0.45594000000E+02  0.51100000000E-03 0. -1.
    9900012    2    1    2    0    0  0.16455252542E+02 -0.69503642875E+01 -0.26412869279E+02  0.59301912698E+02  0.49999942861E+02 0.  0.
        -12    1    1    2    0    0 -0.16455252542E+02  0.69503642875E+01  0.26412869279E+02  0.31886087302E+02  0.00000000000E+00 0.  1.
         11    1    3    3    0    0  0.13391745951E+02 -0.10758860883E+01 -0.42735317902E+01  0.14098207855E+02  0.51100000000E-03 0. -1.
        -11    1    3    3    0    0  0.92126471068E+01  0.14010989563E+02 -0.32181749203E+01  0.17074464715E+02  0.51100000000E-03 0.  1.
         12    1    3    3    0    0 -0.61491405167E+01 -0.19885467762E+02 -0.18921162568E+02  0.28129240127E+02  0.00000000000E+00 0. -1.
</event>
<event>
 7    1  0.1284777E-011  0.5930194E+02  0.7816164E-02  0.1266605E+00
        -11   -1    0    0    0    0  0.00000000000E+00  0.00000000000E+00  0.45593999997E+02  0.45594000000E+02  0.51100000000E-03 0. -1.
         11   -1    0    0    0    0 -0.00000000000E+00 -0.00000000000E+00 -0.45593999997E+02  0.45594000000E+02  0.51100000000E-03 0.  1.
    9900012    2    1    2    0    0 -0.12016034883E+01  0.27773133876E+02  0.15618257529E+02  0.59301940593E+02  0.49999993736E+02 0.  0.
        -12    1    1    2    0    0  0.12016034883E+01 -0.27773133876E+02 -0.15618257529E+02  0.31886059407E+02  0.00000000000E+00 0.  1.
         11    1    3    3    0    0  0.60889237345E+01  0.71949241567E+01 -0.33156984901E+01  0.99917857565E+01  0.51100000000E-03 0. -1.
        -11    1    3    3    0    0 -0.18711788898E+02  0.18775973178E+02 -0.70831018277E+00  0.26517351227E+02  0.51100000000E-03 0.  1.
         12    1    3    3    0    0  0.11421261675E+02  0.18022365420E+01  0.19642266202E+02  0.22792803609E+02  0.00000000000E+00 0. -1.
</event>
<event>
 7    1  0.1284777E-011  0.5930196E+02  0.7816164E-02  0.1266605E+00
        -11   -1    0    0    0    0  0.00000000000E+00  0.00000000000E+00  0.45593999997E+02  0.45594000000E+02  0.51100000000E-03 0.  1.
         11   -1    0    0    0    0 -0.00000000000E+00 -0.00000000000E+00 -0.45593999997E+02  0.45594000000E+02  0.51100000000E-03 0. -1.
    9900012    2    1    2    0    0 -0.12299892276E+01  0.30241843877E+02 -0.10031812843E+02  0.59301964444E+02  0.50000037234E+02 0.  0.
        -12    1    1    2    0    0  0.12299892276E+01 -0.30241843877E+02  0.10031812843E+02  0.31886035556E+02  0.00000000000E+00 0.  1.
         11    1    3    3    0    0  0.27636749899E+01  0.86154140424E+01 -0.31495760303E+01  0.95803490544E+01  0.51100000000E-03 0. -1.
        -11    1    3    3    0    0  0.97463454125E+01 -0.10109544417E+02  0.15440111182E+01  0.14127211608E+02  0.51100000000E-03 0.  1.
         12    1    3    3    0    0 -0.13740009630E+02  0.31735974252E+02 -0.84262479310E+01  0.35594403781E+02  0.00000000000E+00 0. -1.
</event>
<event>
 7    1  0.1284777E-011  0.5930185E+02  0.7816164E-02  0.1266605E+00
        -11   -1    0    0    0    0  0.00000000000E+00  0.00000000000E+00  0.45593999997E+02  0.45594000000E+02  0.51100000000E-03 0.  1.
         11   -1    0    0    0    0 -0.00000000000E+00 -0.00000000000E+00 -0.45593999997E+02  0.45594000000E+02  0.51100000000E-03 0. -1.
    9900012    2    1    2    0    0  0.13026212778E+01 -0.33987200558E+00 -0.31857721577E+02  0.59301846905E+02  0.49999822870E+02 0.  0.
        -12    1    1    2    0    0 -0.13026212778E+01  0.33987200558E+00  0.31857721577E+02  0.31886153095E+02  0.00000000000E+00 0.  1.
         11    1    3    3    0    0  0.24991169712E+01 -0.21914086751E+01 -0.60134344456E+01  0.68708989011E+01  0.51100000000E-03 0. -1.
        -11    1    3    3    0    0  0.50498106076E-01 -0.21125316620E+02 -0.19029309080E+02  0.28432308324E+02  0.51100000000E-03 0.  1.
         12    1    3    3    0    0 -0.12469937994E+01  0.22976853289E+02 -0.68149780513E+01  0.23998639679E+02  0.00000000000E+00 0. -1.
</event>
<event>
 7    1  0.1284777E-011  0.5930192E+02  0.7816164E-02  0.1266605E+00
        -11   -1    0    0    0    0  0.00000000000E+00  0.00000000000E+00  0.45593999997E+02  0.45594000000E+02  0.51100000000E-03 0.  1.
         11   -1    0    0    0    0 -0.00000000000E+00 -0.00000000000E+00 -0.45593999997E+02  0.45594000000E+02  0.51100000000E-03 0. -1.
    9900012    2    1    2    0    0 -0.87957794652E+01  0.23739436529E+02 -0.19385445273E+02  0.59301920411E+02  0.49999956929E+02 0.  0.
        -12    1    1    2    0    0  0.87957794652E+01 -0.23739436529E+02  0.19385445273E+02  0.31886079589E+02  0.00000000000E+00 0.  1.
         11    1    3    3    0    0  0.64937628912E+01 -0.13910708968E+01 -0.95557081018E+01  0.11636820541E+02  0.51100000000E-03 0. -1.
        -11    1    3    3    0    0 -0.14939580476E+02  0.25659873828E+02  0.72574198037E+01  0.30566163189E+02  0.51100000000E-03 0.  1.
         12    1    3    3    0    0 -0.34996188017E+00 -0.52936640217E+00 -0.17087156975E+02  0.17098936680E+02  0.00000000000E+00 0. -1.
</event>
<event>
 7    1  0.1284777E-011  0.5930193E+02  0.7816164E-02  0.1266605E+00
        -11   -1    0    0    0    0  0.00000000000E+00  0.00000000000E+00  0.45593999997E+02  0.45594000000E+02  0.51100000000E-03 0.  1.
         11   -1    0    0    0    0 -0.00000000000E+00 -0.00000000000E+00 -0.45593999997E+02  0.45594000000E+02  0.51100000000E-03 0. -1.
    9900012    2    1    2    0    0  0.83226441413E+00  0.28126566576E+02  0.14997511878E+02  0.59301925078E+02  0.49999965441E+02 0.  0.
        -12    1    1    2    0    0 -0.83226441413E+00 -0.28126566576E+02 -0.14997511878E+02  0.31886074922E+02  0.00000000000E+00 0.  1.
         11    1    3    3    0    0 -0.39630147169E+01  0.17362321496E+02  0.12217765879E+02  0.21596978879E+02  0.51100000000E-03 0.  1.
        -11    1    3    3    0    0  0.48102227014E+00  0.22769817807E+02 -0.42064003119E+01  0.23160090441E+02  0.51100000000E-03 0. -1.
         12    1    3    3    0    0  0.43142568609E+01 -0.12005572727E+02  0.69861463106E+01  0.14544855758E+02  0.00000000000E+00 0. -1.
</event>
<event>
 7    1  0.1284777E-011  0.5930194E+02  0.7816164E-02  0.1266605E+00
        -11   -1    0    0    0    0  0.00000000000E+00  0.00000000000E+00  0.45593999997E+02  0.45594000000E+02  0.51100000000E-03 0. -1.
         11   -1    0    0    0    0 -0.00000000000E+00 -0.00000000000E+00 -0.45593999997E+02  0.45594000000E+02  0.51100000000E-03 0.  1.
    9900012    2    1    2    0    0 -0.17023431994E+01 -0.31349231398E+02  0.55721416883E+01  0.59301936515E+02  0.49999986298E+02 0.  0.
        -12    1    1    2    0    0  0.17023431994E+01  0.31349231398E+02 -0.55721416883E+01  0.31886063485E+02  0.00000000000E+00 0.  1.
         11    1    3    3    0    0 -0.30130837354E+01 -0.20804129372E+01  0.92135801965E+01  0.99144768841E+01  0.51100000000E-03 0. -1.
        -11    1    3    3    0    0  0.14053334675E+00  0.18489770692E+01  0.13645626769E+02  0.13771041936E+02  0.51100000000E-03 0.  1.
        -12    1    3    3    0    0  0.11702071893E+01 -0.31117795530E+02 -0.17287065277E+02  0.35616417695E+02  0.00000000000E+00 0.  1.
</event>
<event>
 7    1  0.1284777E-011  0.5930198E+02  0.7816164E-02  0.1266605E+00
        -11   -1    0    0    0    0  0.00000000000E+00  0.00000000000E+00  0.45593999997E+02  0.45594000000E+02  0.51100000000E-03 0.  1.
         11   -1    0    0    0    0 -0.00000000000E+00 -0.00000000000E+00 -0.45593999997E+02  0.45594000000E+02  0.51100000000E-03 0. -1.
    9900012    2    1    2    0    0 -0.27608430133E+02 -0.12429818599E+02 -0.99996387863E+01  0.59301975151E+02  0.50000056761E+02 0.  0.
        -12    1    1    2    0    0  0.27608430133E+02  0.12429818599E+02  0.99996387863E+01  0.31886024849E+02  0.00000000000E+00 0.  1.
         11    1    3    3    0    0 -0.13068165062E+02 -0.18260813505E+02 -0.45525127334E+01  0.22911997303E+02  0.51100000000E-03 0. -1.
        -11    1    3    3    0    0 -0.13927184730E+02 -0.11248075992E+02  0.14497568506E+01  0.17960720565E+02  0.51100000000E-03 0.  1.
        -12    1    3    3    0    0 -0.61308034074E+00  0.17079070898E+02 -0.68968829036E+01  0.18429257283E+02  0.00000000000E+00 0.  1.
</event>
<event>
 7    1  0.1284777E-011  0.5930196E+02  0.7816164E-02  0.1266605E+00
        -11   -1    0    0    0    0  0.00000000000E+00  0.00000000000E+00  0.45593999997E+02  0.45594000000E+02  0.51100000000E-03 0.  1.
         11   -1    0    0    0    0 -0.00000000000E+00 -0.00000000000E+00 -0.45593999997E+02  0.45594000000E+02  0.51100000000E-03 0. -1.
    9900012    2    1    2    0    0  0.44457526999E+01 -0.23252896140E+02 -0.21360192793E+02  0.59301957095E+02  0.50000023832E+02 0.  0.
        -12    1    1    2    0    0 -0.44457526999E+01  0.23252896140E+02  0.21360192793E+02  0.31886042905E+02  0.00000000000E+00 0.  1.
         11    1    3    3    0    0 -0.57927815962E+01 -0.24993118745E+01  0.38760050857E+01  0.74044779797E+01  0.51100000000E-03 0.  1.
        -11    1    3    3    0    0  0.32757437152E+01 -0.94956508351E+01 -0.34374711658E+02  0.35812270013E+02  0.51100000000E-03 0. -1.
         12    1    3    3    0    0  0.69627905809E+01 -0.11257933430E+02  0.91385137784E+01  0.16085209103E+02  0.00000000000E+00 0. -1.
</event>
<event>
 7    1  0.1284777E-011  0.5930194E+02  0.7816164E-02  0.1266605E+00
        -11   -1    0    0    0    0  0.00000000000E+00  0.00000000000E+00  0.45593999997E+02  0.45594000000E+02  0.51100000000E-03 0.  1.
         11   -1    0    0    0    0 -0.00000000000E+00 -0.00000000000E+00 -0.45593999997E+02  0.45594000000E+02  0.51100000000E-03 0. -1.
    9900012    2    1    2    0    0  0.17955341029E+02 -0.75337472988E+01 -0.25250135916E+02  0.59301937471E+02  0.49999988042E+02 0.  0.
        -12    1    1    2    0    0 -0.17955341029E+02  0.75337472988E+01  0.25250135916E+02  0.31886062529E+02  0.00000000000E+00 0.  1.
         11    1    3    3    0    0 -0.32647779790E+01  0.12192462371E+02  0.86152760857E+00  0.12651369255E+02  0.51100000000E-03 0. -1.
        -11    1    3    3    0    0  0.19590741811E+02 -0.79809210733E+01 -0.39551953677E+01  0.21520590989E+02  0.51100000000E-03 0.  1.
        -12    1    3    3    0    0  0.16293771974E+01 -0.11745288597E+02 -0.22156468157E+02  0.25129977228E+02  0.00000000000E+00 0.  1.
</event>
<event>
 7    1  0.1284777E-011  0.5930200E+02  0.7816164E-02  0.1266605E+00
        -11   -1    0    0    0    0  0.00000000000E+00  0.00000000000E+00  0.45593999997E+02  0.45594000000E+02  0.51100000000E-03 0.  1.
         11   -1    0    0    0    0 -0.00000000000E+00 -0.00000000000E+00 -0.45593999997E+02  0.45594000000E+02  0.51100000000E-03 0. -1.
    9900012    2    1    2    0    0  0.26526845988E+02 -0.53736017938E+01 -0.16857272935E+02  0.59302002993E+02  0.50000107539E+02 0.  0.
        -12    1    1    2    0    0 -0.26526845988E+02  0.53736017938E+01  0.16857272935E+02  0.31885997007E+02  0.00000000000E+00 0.  1.
         11    1    3    3    0    0  0.95371981040E+01 -0.12001247104E+01  0.83706399804E+01  0.12746217515E+02  0.51100000000E-03 0. -1.
        -11    1    3    3    0    0 -0.58619067446E+00  0.36197746626E+00  0.83538957725E+01  0.83822563807E+01  0.51100000000E-03 0.  1.
        -12    1    3    3    0    0  0.17575838558E+02 -0.45354545497E+01 -0.33581808688E+02  0.38173529098E+02  0.00000000000E+00 0.  1.
</event>
<event>
 7    1  0.1284777E-011  0.5930194E+02  0.7816164E-02  0.1266605E+00
        -11   -1    0    0    0    0  0.00000000000E+00  0.00000000000E+00  0.45593999997E+02  0.45594000000E+02  0.51100000000E-03 0. -1.
         11   -1    0    0    0    0 -0.00000000000E+00 -0.00000000000E+00 -0.45593999997E+02  0.45594000000E+02  0.51100000000E-03 0.  1.
    9900012    2    1    2    0    0  0.16274061268E+02  0.24706503508E+02  0.11893890466E+02  0.59301936961E+02  0.49999987112E+02 0.  0.
        -12    1    1    2    0    0 -0.16274061268E+02 -0.24706503508E+02 -0.11893890466E+02  0.31886063039E+02  0.00000000000E+00 0.  1.
         11    1    3    3    0    0  0.17522412185E+01  0.10264298376E+02  0.17972296462E+02  0.20770883728E+02  0.51100000000E-03 0. -1.
        -11    1    3    3    0    0 -0.94050468196E+01  0.86571468125E+01 -0.54787099099E+01  0.13907456962E+02  0.51100000000E-03 0.  1.
        -12    1    3    3    0    0  0.23926866869E+02  0.57850583187E+01 -0.59969608677E+00  0.24623596271E+02  0.00000000000E+00 0.  1.
</event>
<event>
 7    1  0.1284777E-011  0.5930194E+02  0.7816164E-02  0.1266605E+00
        -11   -1    0    0    0    0  0.00000000000E+00  0.00000000000E+00  0.45593999997E+02  0.45594000000E+02  0.51100000000E-03 0.  1.
         11   -1    0    0    0    0 -0.00000000000E+00 -0.00000000000E+00 -0.45593999997E+02  0.45594000000E+02  0.51100000000E-03 0. -1.
    9900012    2    1    2    0    0  0.31973388130E+01 -0.31725314336E+02 -0.48638361060E-01  0.59301938611E+02  0.49999990122E+02 0.  0.
        -12    1    1    2    0    0 -0.31973388130E+01  0.31725314336E+02  0.48638361060E-01  0.31886061389E+02  0.00000000000E+00 0.  1.
         11    1    3    3    0    0  0.79129711751E+01 -0.26355147186E+02  0.11676334428E+01  0.27542190619E+02  0.51100000000E-03 0. -1.
        -11    1    3    3    0    0  0.27923353351E+01 -0.17316018526E+02 -0.18445890560E+01  0.17636443612E+02  0.51100000000E-03 0.  1.
        -12    1    3    3    0    0 -0.75079676971E+01  0.11945851376E+02  0.62831725218E+00  0.14123304380E+02  0.00000000000E+00 0.  1.
</event>
<event>
 7    1  0.1284777E-011  0.5930196E+02  0.7816164E-02  0.1266605E+00
        -11   -1    0    0    0    0  0.00000000000E+00  0.00000000000E+00  0.45593999997E+02  0.45594000000E+02  0.51100000000E-03 0. -1.
         11   -1    0    0    0    0 -0.00000000000E+00 -0.00000000000E+00 -0.45593999997E+02  0.45594000000E+02  0.51100000000E-03 0.  1.
    9900012    2    1    2    0    0 -0.29673830931E+02 -0.10142006525E+02 -0.57725962081E+01  0.59301962218E+02  0.50000033175E+02 0.  0.
        -12    1    1    2    0    0  0.29673830931E+02  0.10142006525E+02  0.57725962081E+01  0.31886037782E+02  0.00000000000E+00 0.  1.
         11    1    3    3    0    0 -0.92611617795E+01 -0.55335491339E+01 -0.18977147952E+02  0.21829370769E+02  0.51100000000E-03 0. -1.
        -11    1    3    3    0    0 -0.12758840012E+02 -0.35380302485E+01 -0.76087039280E+01  0.15270822905E+02  0.51100000000E-03 0.  1.
         12    1    3    3    0    0 -0.76538291395E+01 -0.10704271424E+01  0.20813255672E+02  0.22201768543E+02  0.00000000000E+00 0. -1.
</event>
<event>
 7    1  0.1284777E-011  0.5930195E+02  0.7816164E-02  0.1266605E+00
        -11   -1    0    0    0    0  0.00000000000E+00  0.00000000000E+00  0.45593999997E+02  0.45594000000E+02  0.51100000000E-03 0.  1.
         11   -1    0    0    0    0 -0.00000000000E+00 -0.00000000000E+00 -0.45593999997E+02  0.45594000000E+02  0.51100000000E-03 0. -1.
    9900012    2    1    2    0    0 -0.31573282651E+02 -0.28549955008E+01 -0.34201274708E+01  0.59301945860E+02  0.50000003343E+02 0.  0.
        -12    1    1    2    0    0  0.31573282651E+02  0.28549955008E+01  0.34201274708E+01  0.31886054140E+02  0.00000000000E+00 0.  1.
         11    1    3    3    0    0  0.75959624405E+01 -0.29350137803E+00  0.70713292016E+01  0.10382123357E+02  0.51100000000E-03 0. -1.
        -11    1    3    3    0    0  0.26772651341E+01  0.45686539065E+00 -0.61716086746E+01  0.67427908522E+01  0.51100000000E-03 0.  1.
        -12    1    3    3    0    0 -0.41846510226E+02 -0.30183595134E+01 -0.43198479978E+01  0.42177031652E+02  0.00000000000E+00 0.  1.
</event>
<event>
 7    1  0.1284777E-011  0.5930195E+02  0.7816164E-02  0.1266605E+00
        -11   -1    0    0    0    0  0.00000000000E+00  0.00000000000E+00  0.45593999997E+02  0.45594000000E+02  0.51100000000E-03 0. -1.
         11   -1    0    0    0    0 -0.00000000000E+00 -0.00000000000E+00 -0.45593999997E+02  0.45594000000E+02  0.51100000000E-03 0.  1.
    9900012    2    1    2    0    0  0.30703695521E+02  0.65129239620E+01  0.56200663052E+01  0.59301949092E+02  0.50000009237E+02 0.  0.
        -12    1    1    2    0    0 -0.30703695521E+02 -0.65129239620E+01 -0.56200663052E+01  0.31886050908E+02  0.00000000000E+00 0.  1.
         11    1    3    3    0    0  0.38851932464E+00  0.74319132564E+01  0.19063938186E+01  0.76823576829E+01  0.51100000000E-03 0.  1.
        -11    1    3    3    0    0  0.73094216669E+01 -0.52125691886E+01 -0.17732923391E+02  0.19875992929E+02  0.51100000000E-03 0. -1.
         12    1    3    3    0    0  0.23005754530E+02  0.42935798942E+01  0.21446595877E+02  0.31743598481E+02  0.00000000000E+00 0. -1.
</event>
<event>
 7    1  0.1284777E-011  0.5930186E+02  0.7816164E-02  0.1266605E+00
        -11   -1    0    0    0    0  0.00000000000E+00  0.00000000000E+00  0.45593999997E+02  0.45594000000E+02  0.51100000000E-03 0. -1.
         11   -1    0    0    0    0 -0.00000000000E+00 -0.00000000000E+00 -0.45593999997E+02  0.45594000000E+02  0.51100000000E-03 0.  1.
    9900012    2    1    2    0    0 -0.18444739867E+02 -0.24677483508E+01  0.25892619866E+02  0.59301859214E+02  0.49999845319E+02 0.  0.
        -12    1    1    2    0    0  0.18444739867E+02  0.24677483508E+01 -0.25892619866E+02  0.31886140786E+02  0.00000000000E+00 0.  1.
         11    1    3    3    0    0 -0.14160481536E+01 -0.12508259201E+02  0.11660990945E+02  0.17159267196E+02  0.51100000000E-03 0. -1.
        -11    1    3    3    0    0 -0.24878510276E+02  0.27141451953E+01  0.17929699295E+02  0.30786051627E+02  0.51100000000E-03 0.  1.
        -12    1    3    3    0    0  0.78498185623E+01  0.73263656549E+01 -0.36980703734E+01  0.11356540391E+02  0.00000000000E+00 0.  1.
</event>
<event>
 7    1  0.1284777E-011  0.5930194E+02  0.7816164E-02  0.1266605E+00
        -11   -1    0    0    0    0  0.00000000000E+00  0.00000000000E+00  0.45593999997E+02  0.45594000000E+02  0.51100000000E-03 0.  1.
         11   -1    0    0    0    0 -0.00000000000E+00 -0.00000000000E+00 -0.45593999997E+02  0.45594000000E+02  0.51100000000E-03 0. -1.
    9900012    2    1    2    0    0  0.12865072580E+02 -0.26350307389E+02 -0.12524862032E+02  0.59301937827E+02  0.49999988691E+02 0.  0.
        -12    1    1    2    0    0 -0.12865072580E+02  0.26350307389E+02  0.12524862032E+02  0.31886062173E+02  0.00000000000E+00 0.  1.
         11    1    3    3    0    0  0.86067679636E+01  0.26657353213E+01 -0.35440734662E+00  0.90171062105E+01  0.51100000000E-03 0. -1.
        -11    1    3    3    0    0  0.21344181174E+02 -0.19583041857E+02 -0.10015667798E+02  0.30649358885E+02  0.51100000000E-03 0.  1.
         12    1    3    3    0    0 -0.17085876558E+02 -0.94330008535E+01 -0.21547868874E+01  0.19635472732E+02  0.00000000000E+00 0. -1.
</event>
<event>
 7    1  0.1284777E-011  0.5930196E+02  0.7816164E-02  0.1266605E+00
        -11   -1    0    0    0    0  0.00000000000E+00  0.00000000000E+00  0.45593999997E+02  0.45594000000E+02  0.51100000000E-03 0.  1.
         11   -1    0    0    0    0 -0.00000000000E+00 -0.00000000000E+00 -0.45593999997E+02  0.45594000000E+02  0.51100000000E-03 0. -1.
    9900012    2    1    2    0    0 -0.15720116046E+02  0.24205972815E+02 -0.13552439599E+02  0.59301956226E+02  0.50000022248E+02 0.  0.
        -12    1    1    2    0    0  0.15720116046E+02 -0.24205972815E+02  0.13552439599E+02  0.31886043774E+02  0.00000000000E+00 0.  1.
         11    1    3    3    0    0 -0.10824692069E+02  0.26711464513E+02 -0.80910475264E+01  0.29935620006E+02  0.51100000000E-03 0. -1.
        -11    1    3    3    0    0 -0.45766769648E+01  0.12211943163E+02  0.14162665824E+01  0.13118053939E+02  0.51100000000E-03 0.  1.
         12    1    3    3    0    0 -0.31874701202E+00 -0.14717434860E+02 -0.68776586549E+01  0.16248282281E+02  0.00000000000E+00 0. -1.
</event>
<event>
 7    1  0.1284777E-011  0.5930196E+02  0.7816164E-02  0.1266605E+00
        -11   -1    0    0    0    0  0.00000000000E+00  0.00000000000E+00  0.45593999997E+02  0.45594000000E+02  0.51100000000E-03 0.  1.
         11   -1    0    0    0    0 -0.00000000000E+00 -0.00000000000E+00 -0.45593999997E+02  0.45594000000E+02  0.51100000000E-03 0. -1.
    9900012    2    1    2    0    0 -0.46842764467E+01  0.21299607627E+02 -0.23261641051E+02  0.59301957987E+02  0.50000025458E+02 0.  0.
        -12    1    1    2    0    0  0.46842764467E+01 -0.21299607627E+02  0.23261641051E+02  0.31886042013E+02  0.00000000000E+00 0.  1.
         11    1    3    3    0    0 -0.11993161002E+02  0.28954380774E+01 -0.23044076807E+02  0.26139031134E+02  0.51100000000E-03 0. -1.
        -11    1    3    3    0    0 -0.14565887958E+01 -0.65307420000E+01  0.61239670484E+00  0.67191719710E+01  0.51100000000E-03 0.  1.
        -12    1    3    3    0    0  0.87654733508E+01  0.24934911550E+02 -0.82996094835E+00  0.26443754881E+02  0.00000000000E+00 0.  1.
</event>
<event>
 7    1  0.1284777E-011  0.5930195E+02  0.7816164E-02  0.1266605E+00
        -11   -1    0    0    0    0  0.00000000000E+00  0.00000000000E+00  0.45593999997E+02  0.45594000000E+02  0.51100000000E-03 0.  1.
         11   -1    0    0    0    0 -0.00000000000E+00 -0.00000000000E+00 -0.45593999997E+02  0.45594000000E+02  0.51100000000E-03 0. -1.
    9900012    2    1    2    0    0 -0.25118148633E+02  0.11603359803E+02 -0.15848050903E+02  0.59301951846E+02  0.50000014259E+02 0.  0.
        -12    1    1    2    0    0  0.25118148633E+02 -0.11603359803E+02  0.15848050903E+02  0.31886048154E+02  0.00000000000E+00 0.  1.
         11    1    3    3    0    0 -0.23895909521E+02  0.99333353427E+01 -0.15241728191E+02  0.30033246934E+02  0.51100000000E-03 0. -1.
        -11    1    3    3    0    0 -0.10497556871E+02 -0.70344674540E+01  0.70020735020E+01  0.14446849699E+02  0.51100000000E-03 0.  1.
        -12    1    3    3    0    0  0.92753177598E+01  0.87044919142E+01 -0.76083962138E+01  0.14821855214E+02  0.00000000000E+00 0.  1.
</event>
<event>
 7    1  0.1284777E-011  0.5930195E+02  0.7816164E-02  0.1266605E+00
        -11   -1    0    0    0    0  0.00000000000E+00  0.00000000000E+00  0.45593999997E+02  0.45594000000E+02  0.51100000000E-03 0.  1.
         11   -1    0    0    0    0 -0.00000000000E+00 -0.00000000000E+00 -0.45593999997E+02  0.45594000000E+02  0.51100000000E-03 0. -1.
    9900012    2    1    2    0    0 -0.25075349073E+02 -0.11461099517E+02 -0.16018444296E+02  0.59301945197E+02  0.50000002132E+02 0.  0.
        -12    1    1    2    0    0  0.25075349073E+02  0.11461099517E+02  0.16018444296E+02  0.31886054803E+02  0.00000000000E+00 0.  1.
         11    1    3    3    0    0  0.16873728179E+01  0.10609532014E+02  0.36572549180E+01  0.11348343949E+02  0.51100000000E-03 0. -1.
        -11    1    3    3    0    0 -0.21180179115E+01  0.58348037328E+01 -0.95018402156E+00  0.62796325060E+01  0.51100000000E-03 0.  1.
         12    1    3    3    0    0 -0.24644703979E+02 -0.27905435264E+02 -0.18725515192E+02  0.41673968742E+02  0.00000000000E+00 0. -1.
</event>
<event>
 7    1  0.1284777E-011  0.5930189E+02  0.7816164E-02  0.1266605E+00
        -11   -1    0    0    0    0  0.00000000000E+00  0.00000000000E+00  0.45593999997E+02  0.45594000000E+02  0.51100000000E-03 0.  1.
         11   -1    0    0    0    0 -0.00000000000E+00 -0.00000000000E+00 -0.45593999997E+02  0.45594000000E+02  0.51100000000E-03 0. -1.
    9900012    2    1    2    0    0 -0.93431930515E+01 -0.27764942964E+02 -0.12591134176E+02  0.59301890578E+02  0.49999902521E+02 0.  0.
        -12    1    1    2    0    0  0.93431930515E+01  0.27764942964E+02  0.12591134176E+02  0.31886109422E+02  0.00000000000E+00 0.  1.
         11    1    3    3    0    0 -0.83246508996E+01 -0.17709937188E+02 -0.94899075043E+01  0.21748563918E+02  0.51100000000E-03 0. -1.
        -11    1    3    3    0    0 -0.16575891691E+02 -0.12039795140E+02 -0.65240864234E+01  0.21500710600E+02  0.51100000000E-03 0.  1.
         12    1    3    3    0    0  0.15557349539E+02  0.19847893639E+01  0.34228597517E+01  0.16052616060E+02  0.00000000000E+00 0. -1.
</event>
<event>
 7    1  0.1284777E-011  0.5930195E+02  0.7816164E-02  0.1266605E+00
        -11   -1    0    0    0    0  0.00000000000E+00  0.00000000000E+00  0.45593999997E+02  0.45594000000E+02  0.51100000000E-03 0. -1.
         11   -1    0    0    0    0 -0.00000000000E+00 -0.00000000000E+00 -0.45593999997E+02  0.45594000000E+02  0.51100000000E-03 0.  1.
    9900012    2    1    2    0    0  0.21328918985E+02 -0.23391467936E+02  0.38258088851E+01  0.59301947079E+02  0.50000005565E+02 0.  0.
        -12    1    1    2    0    0 -0.21328918985E+02  0.23391467936E+02 -0.38258088851E+01  0.31886052921E+02  0.00000000000E+00 0.  1.
         11    1    3    3    0    0  0.86045642787E+01  0.26477547627E+01 -0.28094491342E+01  0.94309138692E+01  0.51100000000E-03 0. -1.
        -11    1    3    3    0    0  0.20618453479E+02 -0.32794513575E+02  0.29611290833E+01  0.38850598840E+02  0.51100000000E-03 0.  1.
         12    1    3    3    0    0 -0.78940987727E+01  0.67552908769E+01  0.36741289360E+01  0.11020434370E+02  0.00000000000E+00 0. -1.
</event>
<event>
 7    1  0.1284777E-011  0.5930201E+02  0.7816164E-02  0.1266605E+00
        -11   -1    0    0    0    0  0.00000000000E+00  0.00000000000E+00  0.45593999997E+02  0.45594000000E+02  0.51100000000E-03 0.  1.
         11   -1    0    0    0    0 -0.00000000000E+00 -0.00000000000E+00 -0.45593999997E+02  0.45594000000E+02  0.51100000000E-03 0. -1.
    9900012    2    1    2    0    0  0.20192017906E+02  0.24363646698E+02 -0.39257080310E+01  0.59302014817E+02  0.50000129103E+02 0.  0.
        -12    1    1    2    0    0 -0.20192017906E+02 -0.24363646698E+02  0.39257080310E+01  0.31885985183E+02  0.00000000000E+00 0.  1.
         11    1    3    3    0    0  0.48342061892E+01 -0.33973877607E+01 -0.11874390644E+02  0.13263217803E+02  0.51100000000E-03 0. -1.
        -11    1    3    3    0    0  0.99426697832E+01  0.26115346986E+02 -0.80402549595E+01  0.29077718802E+02  0.51100000000E-03 0.  1.
        -12    1    3    3    0    0  0.54151419340E+01  0.16456874720E+01  0.15988937572E+02  0.16961078212E+02  0.00000000000E+00 0.  1.
</event>
<event>
 7    1  0.1284777E-011  0.5930194E+02  0.7816164E-02  0.1266605E+00
        -11   -1    0    0    0    0  0.00000000000E+00  0.00000000000E+00  0.45593999997E+02  0.45594000000E+02  0.51100000000E-03 0.  1.
         11   -1    0    0    0    0 -0.00000000000E+00 -0.00000000000E+00 -0.45593999997E+02  0.45594000000E+02  0.51100000000E-03 0. -1.
    9900012    2    1    2    0    0 -0.23743390148E+02 -0.73746082761E+01 -0.19964650429E+02  0.59301942080E+02  0.49999996448E+02 0.  0.
        -12    1    1    2    0    0  0.23743390148E+02  0.73746082761E+01  0.19964650429E+02  0.31886057920E+02  0.00000000000E+00 0.  1.
         11    1    3    3    0    0 -0.21380836180E+02 -0.16553464732E+02  0.14660036893E+01  0.27079632890E+02  0.51100000000E-03 0. -1.
        -11    1    3    3    0    0  0.34770427778E+01 -0.37953238925E+01  0.13882475651E+01  0.53311857490E+01  0.51100000000E-03 0.  1.
         12    1    3    3    0    0 -0.58395967460E+01  0.12974180349E+02 -0.22818901683E+02  0.26891123441E+02  0.00000000000E+00 0. -1.
</event>
<event>
 7    1  0.1284777E-011  0.5930208E+02  0.7816164E-02  0.1266604E+00
        -11   -1    0    0    0    0  0.00000000000E+00  0.00000000000E+00  0.45593999997E+02  0.45594000000E+02  0.51100000000E-03 0. -1.
         11   -1    0    0    0    0 -0.00000000000E+00 -0.00000000000E+00 -0.45593999997E+02  0.45594000000E+02  0.51100000000E-03 0.  1.
    9900012    2    1    2    0    0 -0.35923022681E+00 -0.26064336867E+02  0.18363908565E+02  0.59302080844E+02  0.50000249519E+02 0.  0.
        -12    1    1    2    0    0  0.35923022681E+00  0.26064336867E+02 -0.18363908565E+02  0.31885919156E+02  0.00000000000E+00 0.  1.
         11    1    3    3    0    0  0.26453560183E+01  0.39488462228E+01 -0.87790031129E+01  0.99830952551E+01  0.51100000000E-03 0. -1.
        -11    1    3    3    0    0  0.52589869019E+01  0.25642726615E+01 -0.40167948820E+00  0.58646214020E+01  0.51100000000E-03 0.  1.
         12    1    3    3    0    0 -0.82635731470E+01 -0.32577455751E+02  0.27544591166E+02  0.43454364187E+02  0.00000000000E+00 0. -1.
</event>
<event>
 7    1  0.1284777E-011  0.5930193E+02  0.7816164E-02  0.1266605E+00
        -11   -1    0    0    0    0  0.00000000000E+00  0.00000000000E+00  0.45593999997E+02  0.45594000000E+02  0.51100000000E-03 0.  1.
         11   -1    0    0    0    0 -0.00000000000E+00 -0.00000000000E+00 -0.45593999997E+02  0.45594000000E+02  0.51100000000E-03 0. -1.
    9900012    2    1    2    0    0 -0.65563105873E-01 -0.25056758228E+02  0.19719943824E+02  0.59301927557E+02  0.49999969962E+02 0.  0.
        -12    1    1    2    0    0  0.65563105873E-01  0.25056758228E+02 -0.19719943824E+02  0.31886072443E+02  0.00000000000E+00 0.  1.
         11    1    3    3    0    0  0.27793310640E+01  0.11066928149E+02  0.31382001896E+01  0.11834267215E+02  0.51100000000E-03 0. -1.
        -11    1    3    3    0    0  0.48877340246E+01  0.74695399344E+00 -0.21538129871E+01  0.53932174820E+01  0.51100000000E-03 0.  1.
         12    1    3    3    0    0 -0.77326281945E+01 -0.36870640370E+02  0.18735556621E+02  0.42074442861E+02  0.00000000000E+00 0. -1.
</event>
<event>
 7    1  0.1284777E-011  0.5930195E+02  0.7816164E-02  0.1266605E+00
        -11   -1    0    0    0    0  0.00000000000E+00  0.00000000000E+00  0.45593999997E+02  0.45594000000E+02  0.51100000000E-03 0.  1.
         11   -1    0    0    0    0 -0.00000000000E+00 -0.00000000000E+00 -0.45593999997E+02  0.45594000000E+02  0.51100000000E-03 0. -1.
    9900012    2    1    2    0    0 -0.35329444584E+01 -0.26026169640E+02 -0.18079741926E+02  0.59301948649E+02  0.50000008428E+02 0.  0.
        -12    1    1    2    0    0  0.35329444584E+01  0.26026169640E+02  0.18079741926E+02  0.31886051351E+02  0.00000000000E+00 0.  1.
         11    1    3    3    0    0 -0.49117431810E+01 -0.61408512110E+01  0.17326741943E+01  0.80521695708E+01  0.51100000000E-03 0.  1.
        -11    1    3    3    0    0 -0.82208423669E+01 -0.19338424025E+02  0.74864786332E+01  0.22307044976E+02  0.51100000000E-03 0. -1.
         12    1    3    3    0    0  0.95996410895E+01 -0.54689440408E+00 -0.27298894753E+02  0.28942734102E+02  0.00000000000E+00 0. -1.
</event>
<event>
 7    1  0.1284777E-011  0.5930195E+02  0.7816164E-02  0.1266605E+00
        -11   -1    0    0    0    0  0.00000000000E+00  0.00000000000E+00  0.45593999997E+02  0.45594000000E+02  0.51100000000E-03 0.  1.
         11   -1    0    0    0    0 -0.00000000000E+00 -0.00000000000E+00 -0.45593999997E+02  0.45594000000E+02  0.51100000000E-03 0. -1.
    9900012    2    1    2    0    0  0.22353541925E+02 -0.66701062294E+01 -0.21738192959E+02  0.59301949965E+02  0.50000010828E+02 0.  0.
        -12    1    1    2    0    0 -0.22353541925E+02  0.66701062294E+01  0.21738192959E+02  0.31886050035E+02  0.00000000000E+00 0.  1.
         11    1    3    3    0    0  0.25131315173E+02 -0.12242113321E+02 -0.84765393484E+00  0.27967317682E+02  0.51100000000E-03 0. -1.
        -11    1    3    3    0    0 -0.23408580320E+01  0.85795356749E+01  0.12552398971E+01  0.89812959078E+01  0.51100000000E-03 0.  1.
        -12    1    3    3    0    0 -0.43691521540E+00 -0.30075285831E+01 -0.22145778921E+02  0.22353336375E+02  0.00000000000E+00 0.  1.
</event>
<event>
 7    1  0.1284777E-011  0.5930195E+02  0.7816164E-02  0.1266605E+00
        -11   -1    0    0    0    0  0.00000000000E+00  0.00000000000E+00  0.45593999997E+02  0.45594000000E+02  0.51100000000E-03 0.  1.
         11   -1    0    0    0    0 -0.00000000000E+00 -0.00000000000E+00 -0.45593999997E+02  0.45594000000E+02  0.51100000000E-03 0. -1.
    9900012    2    1    2    0    0 -0.72171679701E+01 -0.24852933034E+02 -0.18626984296E+02  0.59301947596E+02  0.50000006508E+02 0.  0.
        -12    1    1    2    0    0  0.72171679701E+01  0.24852933034E+02  0.18626984296E+02  0.31886052404E+02  0.00000000000E+00 0.  1.
         11    1    3    3    0    0 -0.81027394528E+01  0.61469292513E+01  0.62135086559E+00  0.10189465296E+02  0.51100000000E-03 0. -1.
        -11    1    3    3    0    0  0.13286188471E+00 -0.19692474508E+02  0.66967724558E+01  0.20800431873E+02  0.51100000000E-03 0.  1.
         12    1    3    3    0    0  0.75270959801E+00 -0.11307387778E+02 -0.25945107618E+02  0.28312050427E+02  0.00000000000E+00 0. -1.
</event>
<event>
 7    1  0.1284777E-011  0.5930195E+02  0.7816164E-02  0.1266605E+00
        -11   -1    0    0    0    0  0.00000000000E+00  0.00000000000E+00  0.45593999997E+02  0.45594000000E+02  0.51100000000E-03 0. -1.
         11   -1    0    0    0    0 -0.00000000000E+00 -0.00000000000E+00 -0.45593999997E+02  0.45594000000E+02  0.51100000000E-03 0.  1.
    9900012    2    1    2    0    0 -0.11142802113E+02  0.19733341452E+02  0.22431085377E+02  0.59301946701E+02  0.50000004876E+02 0.  0.
        -12    1    1    2    0    0  0.11142802113E+02 -0.19733341452E+02 -0.22431085377E+02  0.31886053299E+02  0.00000000000E+00 0.  1.
         11    1    3    3    0    0  0.97710100385E+01  0.57955612937E+00  0.74905659383E+01  0.12325465542E+02  0.51100000000E-03 0.  1.
        -11    1    3    3    0    0  0.57217507849E+01 -0.48319721437E+00  0.12546711170E+02  0.13798256160E+02  0.51100000000E-03 0. -1.
         12    1    3    3    0    0 -0.26635562937E+02  0.19636982537E+02  0.23938082677E+01  0.33178225000E+02  0.00000000000E+00 0. -1.
</event>
<event>
 7    1  0.1284777E-011  0.5930196E+02  0.7816164E-02  0.1266605E+00
        -11   -1    0    0    0    0  0.00000000000E+00  0.00000000000E+00  0.45593999997E+02  0.45594000000E+02  0.51100000000E-03 0. -1.
         11   -1    0    0    0    0 -0.00000000000E+00 -0.00000000000E+00 -0.45593999997E+02  0.45594000000E+02  0.51100000000E-03 0.  1.
    9900012    2    1    2    0    0  0.20487214571E+02  0.19716781640E+02  0.14430602883E+02  0.59301956992E+02  0.50000023644E+02 0.  0.
        -12    1    1    2    0    0 -0.20487214571E+02 -0.19716781640E+02 -0.14430602883E+02  0.31886043008E+02  0.00000000000E+00 0.  1.
         11    1    3    3    0    0  0.16944576191E+02  0.82844099025E+01  0.14311448221E+02  0.23676310104E+02  0.51100000000E-03 0. -1.
        -11    1    3    3    0    0 -0.60155221510E+01  0.69576207444E+01  0.14872114566E+02  0.17486417160E+02  0.51100000000E-03 0.  1.
        -12    1    3    3    0    0  0.95581605317E+01  0.44747509928E+01 -0.14752959904E+02  0.18139229728E+02  0.00000000000E+00 0.  1.
</event>
<event>
 7    1  0.1284777E-011  0.5930192E+02  0.7816164E-02  0.1266605E+00
        -11   -1    0    0    0    0  0.00000000000E+00  0.00000000000E+00  0.45593999997E+02  0.45594000000E+02  0.51100000000E-03 0.  1.
         11   -1    0    0    0    0 -0.00000000000E+00 -0.00000000000E+00 -0.45593999997E+02  0.45594000000E+02  0.51100000000E-03 0. -1.
    9900012    2    1    2    0    0 -0.25443341100E+02  0.18375948291E+02 -0.56287821027E+01  0.59301917301E+02  0.49999951257E+02 0.  0.
        -12    1    1    2    0    0  0.25443341100E+02 -0.18375948291E+02  0.56287821027E+01  0.31886082699E+02  0.00000000000E+00 0.  1.
         11    1    3    3    0    0 -0.40322694466E+01  0.14275811450E+02  0.69312584060E+01  0.16373769657E+02  0.51100000000E-03 0. -1.
        -11    1    3    3    0    0  0.77767015597E+01  0.82796329965E+01 -0.54430991156E+01  0.12595901633E+02  0.51100000000E-03 0.  1.
         12    1    3    3    0    0 -0.29187773213E+02 -0.41794961556E+01 -0.71169413930E+01  0.30332246011E+02  0.00000000000E+00 0. -1.
</event>
<event>
 7    1  0.1284777E-011  0.5930193E+02  0.7816164E-02  0.1266605E+00
        -11   -1    0    0    0    0  0.00000000000E+00  0.00000000000E+00  0.45593999997E+02  0.45594000000E+02  0.51100000000E-03 0.  1.
         11   -1    0    0    0    0 -0.00000000000E+00 -0.00000000000E+00 -0.45593999997E+02  0.45594000000E+02  0.51100000000E-03 0. -1.
    9900012    2    1    2    0    0  0.30110398605E+02  0.94921096331E+01 -0.44704474376E+01  0.59301934866E+02  0.49999983292E+02 0.  0.
        -12    1    1    2    0    0 -0.30110398605E+02 -0.94921096331E+01  0.44704474376E+01  0.31886065134E+02  0.00000000000E+00 0.  1.
         11    1    3    3    0    0  0.19313184974E+02 -0.49159227199E+01  0.13317697844E+02  0.23969282137E+02  0.51100000000E-03 0.  1.
        -11    1    3    3    0    0 -0.21156685136E+01 -0.31028732814E+01  0.33245723029E+01  0.50156412470E+01  0.51100000000E-03 0. -1.
         12    1    3    3    0    0  0.12912882144E+02  0.17510905634E+02 -0.21112717585E+02  0.30317011482E+02  0.00000000000E+00 0. -1.
</event>
<event>
 7    1  0.1284777E-011  0.5930193E+02  0.7816164E-02  0.1266605E+00
        -11   -1    0    0    0    0  0.00000000000E+00  0.00000000000E+00  0.45593999997E+02  0.45594000000E+02  0.51100000000E-03 0. -1.
         11   -1    0    0    0    0 -0.00000000000E+00 -0.00000000000E+00 -0.45593999997E+02  0.45594000000E+02  0.51100000000E-03 0.  1.
    9900012    2    1    2    0    0  0.17934945633E+02  0.19603898500E+02 -0.17628002515E+02  0.59301928057E+02  0.49999970873E+02 0.  0.
        -12    1    1    2    0    0 -0.17934945633E+02 -0.19603898500E+02  0.17628002515E+02  0.31886071943E+02  0.00000000000E+00 0.  1.
         11    1    3    3    0    0 -0.39762150685E+01 -0.57441845505E+01  0.42296284544E+01  0.81667435092E+01  0.51100000000E-03 0. -1.
        -11    1    3    3    0    0 -0.83595486699E+01  0.48494886113E+01 -0.48957896307E+01  0.10833667437E+02  0.51100000000E-03 0.  1.
        -12    1    3    3    0    0  0.30270709372E+02  0.20498594440E+02 -0.16961841338E+02  0.40301517111E+02  0.00000000000E+00 0.  1.
</event>
<event>
 7    1  0.1284777E-011  0.5930192E+02  0.7816164E-02  0.1266605E+00
        -11   -1    0    0    0    0  0.00000000000E+00  0.00000000000E+00  0.45593999997E+02  0.45594000000E+02  0.51100000000E-03 0.  1.
         11   -1    0    0    0    0 -0.00000000000E+00 -0.00000000000E+00 -0.45593999997E+02  0.45594000000E+02  0.51100000000E-03 0. -1.
    9900012    2    1    2    0    0  0.95877701103E+01  0.59234617243E+01 -0.29827996157E+02  0.59301920134E+02  0.49999956424E+02 0.  0.
        -12    1    1    2    0    0 -0.95877701103E+01 -0.59234617243E+01  0.29827996157E+02  0.31886079866E+02  0.00000000000E+00 0.  1.
         11    1    3    3    0    0  0.69748370159E+01 -0.69098958331E+01 -0.24374497409E+02  0.26277578580E+02  0.51100000000E-03 0. -1.
        -11    1    3    3    0    0 -0.38918439238E+01  0.14020404498E+01  0.11120968675E+02  0.11865416600E+02  0.51100000000E-03 0.  1.
         12    1    3    3    0    0  0.65047770182E+01  0.11431317108E+02 -0.16574467423E+02  0.21158924955E+02  0.00000000000E+00 0. -1.
</event>
<event>
 7    1  0.1284777E-011  0.5930225E+02  0.7816164E-02  0.1266604E+00
        -11   -1    0    0    0    0  0.00000000000E+00  0.00000000000E+00  0.45593999997E+02  0.45594000000E+02  0.51100000000E-03 0. -1.
         11   -1    0    0    0    0 -0.00000000000E+00 -0.00000000000E+00 -0.45593999997E+02  0.45594000000E+02  0.51100000000E-03 0.  1.
    9900012    2    1    2    0    0 -0.24679910908E+02  0.11748026904E+02  0.16419098576E+02  0.59302251826E+02  0.50000561347E+02 0.  0.
        -12    1    1    2    0    0  0.24679910908E+02 -0.11748026904E+02 -0.16419098576E+02  0.31885748174E+02  0.00000000000E+00 0.  1.
         11    1    3    3    0    0 -0.17999728187E+01  0.10856448351E+02  0.21894565619E+02  0.24504578691E+02  0.51100000000E-03 0. -1.
        -11    1    3    3    0    0 -0.16864161732E+01  0.10493109661E+02 -0.44095541089E+01  0.11506238202E+02  0.51100000000E-03 0.  1.
        -12    1    3    3    0    0 -0.21193521917E+02 -0.96015311078E+01 -0.10659129339E+01  0.23291434933E+02  0.00000000000E+00 0.  1.
</event>
<event>
 7    1  0.1284777E-011  0.5930183E+02  0.7816164E-02  0.1266605E+00
        -11   -1    0    0    0    0  0.00000000000E+00  0.00000000000E+00  0.45593999997E+02  0.45594000000E+02  0.51100000000E-03 0. -1.
         11   -1    0    0    0    0 -0.00000000000E+00 -0.00000000000E+00 -0.45593999997E+02  0.45594000000E+02  0.51100000000E-03 0.  1.
    9900012    2    1    2    0    0 -0.24593724811E+02 -0.59041016590E+01  0.19416952337E+02  0.59301831297E+02  0.49999794406E+02 0.  0.
        -12    1    1    2    0    0  0.24593724811E+02  0.59041016590E+01 -0.19416952337E+02  0.31886168703E+02  0.00000000000E+00 0.  1.
         11    1    3    3    0    0 -0.73865897389E+01 -0.88989649962E+01  0.21581767469E+02  0.24485219487E+02  0.51100000000E-03 0. -1.
        -11    1    3    3    0    0 -0.22157773369E+01 -0.11083388276E+02 -0.75070636003E+01  0.13568609694E+02  0.51100000000E-03 0.  1.
        -12    1    3    3    0    0 -0.14991357735E+02  0.14078251613E+02  0.53422484683E+01  0.21248002116E+02  0.00000000000E+00 0.  1.
</event>
<event>
 7    1  0.1284777E-011  0.5930194E+02  0.7816164E-02  0.1266605E+00
        -11   -1    0    0    0    0  0.00000000000E+00  0.00000000000E+00  0.45593999997E+02  0.45594000000E+02  0.51100000000E-03 0. -1.
         11   -1    0    0    0    0 -0.00000000000E+00 -0.00000000000E+00 -0.45593999997E+02  0.45594000000E+02  0.51100000000E-03 0.  1.
    9900012    2    1    2    0    0  0.70877355189E+01  0.90388773297E+01  0.29745307221E+02  0.59301943489E+02  0.49999999017E+02 0.  0.
        -12    1    1    2    0    0 -0.70877355189E+01 -0.90388773297E+01 -0.29745307221E+02  0.31886056511E+02  0.00000000000E+00 0.  1.
         11    1    3    3    0    0  0.15888188157E+02 -0.11463886457E+02  0.92426268807E+01  0.21662903026E+02  0.51100000000E-03 0. -1.
        -11    1    3    3    0    0  0.71992793148E-02 -0.37649533748E+00 -0.41422512771E+01  0.41593324551E+01  0.51100000000E-03 0.  1.
         12    1    3    3    0    0 -0.88076519170E+01  0.20879259124E+02  0.24644931617E+02  0.33479708008E+02  0.00000000000E+00 0. -1.
</event>
<event>
 7    1  0.1284777E-011  0.5930194E+02  0.7816164E-02  0.1266605E+00
        -11   -1    0    0    0    0  0.00000000000E+00  0.00000000000E+00  0.45593999997E+02  0.45594000000E+02  0.51100000000E-03 0. -1.
         11   -1    0    0    0    0 -0.00000000000E+00 -0.00000000000E+00 -0.45593999997E+02  0.45594000000E+02  0.51100000000E-03 0.  1.
    9900012    2    1    2    0    0  0.29274902088E+02 -0.11608009514E+02  0.49955084367E+01  0.59301939069E+02  0.49999990957E+02 0.  0.
        -12    1    1    2    0    0 -0.29274902088E+02  0.11608009514E+02 -0.49955084367E+01  0.31886060931E+02  0.00000000000E+00 0.  1.
         11    1    3    3    0    0 -0.93710608181E+01 -0.73384060942E+01  0.78247237203E+01  0.14244131649E+02  0.51100000000E-03 0. -1.
        -11    1    3    3    0    0  0.56008920883E+01 -0.77450612987E+01 -0.66027384596E+01  0.11616889521E+02  0.51100000000E-03 0.  1.
        -12    1    3    3    0    0  0.33045070818E+02  0.34754578792E+01  0.37735231760E+01  0.33440917900E+02  0.00000000000E+00 0.  1.
</event>
<event>
 7    1  0.1284777E-011  0.5930193E+02  0.7816164E-02  0.1266605E+00
        -11   -1    0    0    0    0  0.00000000000E+00  0.00000000000E+00  0.45593999997E+02  0.45594000000E+02  0.51100000000E-03 0. -1.
         11   -1    0    0    0    0 -0.00000000000E+00 -0.00000000000E+00 -0.45593999997E+02  0.45594000000E+02  0.51100000000E-03 0.  1.
    9900012    2    1    2    0    0 -0.13806166696E+02  0.28463013977E+02 -0.39960297201E+01  0.59301926912E+02  0.49999968784E+02 0.  0.
        -12    1    1    2    0    0  0.13806166696E+02 -0.28463013977E+02  0.39960297201E+01  0.31886073088E+02  0.00000000000E+00 0.  1.
         11    1    3    3    0    0  0.33492569225E+01  0.18604219592E+02 -0.13043320823E+01  0.18948239786E+02  0.51100000000E-03 0. -1.
        -11    1    3    3    0    0 -0.14537962536E+02  0.16913154773E+02  0.10895846708E+02  0.24821898292E+02  0.51100000000E-03 0.  1.
        -12    1    3    3    0    0 -0.26174610822E+01 -0.70543603880E+01 -0.13587544346E+02  0.15531788833E+02  0.00000000000E+00 0.  1.
</event>
<event>
 7    1  0.1284777E-011  0.5930195E+02  0.7816164E-02  0.1266605E+00
        -11   -1    0    0    0    0  0.00000000000E+00  0.00000000000E+00  0.45593999997E+02  0.45594000000E+02  0.51100000000E-03 0. -1.
         11   -1    0    0    0    0 -0.00000000000E+00 -0.00000000000E+00 -0.45593999997E+02  0.45594000000E+02  0.51100000000E-03 0.  1.
    9900012    2    1    2    0    0  0.28733189447E+02 -0.81716453620E+01 -0.11151156722E+02  0.59301948819E+02  0.50000008737E+02 0.  0.
        -12    1    1    2    0    0 -0.28733189447E+02  0.81716453620E+01  0.11151156722E+02  0.31886051181E+02  0.00000000000E+00 0.  1.
         11    1    3    3    0    0  0.55595796136E+01 -0.45642720496E+01  0.92349602588E+01  0.11705810355E+02  0.51100000000E-03 0. -1.
        -11    1    3    3    0    0  0.21356639616E+01  0.14492058608E+02 -0.33320985464E+01  0.15022772855E+02  0.51100000000E-03 0.  1.
        -12    1    3    3    0    0  0.21037945872E+02 -0.18099431920E+02 -0.17054018434E+02  0.32573365609E+02  0.00000000000E+00 0.  1.
</event>
<event>
 7    1  0.1284777E-011  0.5930189E+02  0.7816164E-02  0.1266605E+00
        -11   -1    0    0    0    0  0.00000000000E+00  0.00000000000E+00  0.45593999997E+02  0.45594000000E+02  0.51100000000E-03 0.  1.
         11   -1    0    0    0    0 -0.00000000000E+00 -0.00000000000E+00 -0.45593999997E+02  0.45594000000E+02  0.51100000000E-03 0. -1.
    9900012    2    1    2    0    0 -0.19708928535E+01  0.12842991474E+02 -0.29118671329E+02  0.59301892231E+02  0.49999905536E+02 0.  0.
        -12    1    1    2    0    0  0.19708928535E+01 -0.12842991474E+02  0.29118671329E+02  0.31886107769E+02  0.00000000000E+00 0.  1.
         11    1    3    3    0    0 -0.48024815092E+00 -0.13868997046E+01 -0.19304117753E+02  0.19359831910E+02  0.51100000000E-03 0. -1.
        -11    1    3    3    0    0 -0.10932557507E+02 -0.63483979102E+01 -0.11696474973E+02  0.17222964226E+02  0.51100000000E-03 0.  1.
         12    1    3    3    0    0  0.94419128049E+01  0.20578289089E+02  0.18819213976E+01  0.22719096095E+02  0.00000000000E+00 0. -1.
</event>
<event>
 7    1  0.1284777E-011  0.5930191E+02  0.7816164E-02  0.1266605E+00
        -11   -1    0    0    0    0  0.00000000000E+00  0.00000000000E+00  0.45593999997E+02  0.45594000000E+02  0.51100000000E-03 0. -1.
         11   -1    0    0    0    0 -0.00000000000E+00 -0.00000000000E+00 -0.45593999997E+02  0.45594000000E+02  0.51100000000E-03 0.  1.
    9900012    2    1    2    0    0  0.74199646363E+01  0.26001188529E+02  0.16899850843E+02  0.59301911519E+02  0.49999940712E+02 0.  0.
        -12    1    1    2    0    0 -0.74199646363E+01 -0.26001188529E+02 -0.16899850843E+02  0.31886088481E+02  0.00000000000E+00 0.  1.
         11    1    3    3    0    0  0.10915335046E+02  0.12147415736E+02  0.56817008675E+01  0.17291210867E+02  0.51100000000E-03 0.  1.
        -11    1    3    3    0    0 -0.18268849651E+02  0.63632609403E+01  0.15628702780E+02  0.24869626218E+02  0.51100000000E-03 0. -1.
         12    1    3    3    0    0  0.14773479242E+02  0.74905118524E+01 -0.44105528049E+01  0.17141074434E+02  0.00000000000E+00 0. -1.
</event>
<event>
 7    1  0.1284777E-011  0.5930195E+02  0.7816164E-02  0.1266605E+00
        -11   -1    0    0    0    0  0.00000000000E+00  0.00000000000E+00  0.45593999997E+02  0.45594000000E+02  0.51100000000E-03 0.  1.
         11   -1    0    0    0    0 -0.00000000000E+00 -0.00000000000E+00 -0.45593999997E+02  0.45594000000E+02  0.51100000000E-03 0. -1.
    9900012    2    1    2    0    0  0.96223768265E+01 -0.66271630395E+01 -0.29668345542E+02  0.59301950497E+02  0.50000011798E+02 0.  0.
        -12    1    1    2    0    0 -0.96223768265E+01  0.66271630395E+01  0.29668345542E+02  0.31886049503E+02  0.00000000000E+00 0.  1.
         11    1    3    3    0    0 -0.41917946424E+01  0.34634343101E+01 -0.42743474655E+00  0.54542845789E+01  0.51100000000E-03 0. -1.
        -11    1    3    3    0    0 -0.14455941528E+02  0.16733848241E+01 -0.10540378046E+02  0.17968695886E+02  0.51100000000E-03 0.  1.
         12    1    3    3    0    0  0.28270112997E+02 -0.11763982174E+02 -0.18700532749E+02  0.35878970032E+02  0.00000000000E+00 0. -1.
</event>
<event>
 7    1  0.2188653E-011  0.5930194E+02  0.7816164E-02  0.1266605E+00
        -11   -1    0    0    0    0  0.00000000000E+00  0.00000000000E+00  0.45593999997E+02  0.45594000000E+02  0.51100000000E-03 0. -1.
         11   -1    0    0    0    0 -0.00000000000E+00 -0.00000000000E+00 -0.45593999997E+02  0.45594000000E+02  0.51100000000E-03 0.  1.
    9900012    2    1    2    0    0 -0.12156693941E+02 -0.58205946179E+01  0.28897345848E+02  0.59301935233E+02  0.49999983960E+02 0.  0.
        -12    1    1    2    0    0  0.12156693941E+02  0.58205946179E+01 -0.28897345848E+02  0.31886064767E+02  0.00000000000E+00 0.  1.
         11    1    3    3    0    0 -0.26775806471E+01  0.25104759246E+01 -0.68004680336E+00  0.37328797738E+01  0.51100000000E-03 0. -1.
        -11    1    3    3    0    0  0.73322426324E+01  0.10597681033E+02 -0.40216715010E+01  0.13499869156E+02  0.51100000000E-03 0.  1.
         12    1    3    3    0    0 -0.16811355927E+02 -0.18928751575E+02  0.33599064153E+02  0.42069186303E+02  0.00000000000E+00 0. -1.
</event>
<event>
 7    1  0.1284777E-011  0.5930213E+02  0.7816164E-02  0.1266604E+00
        -11   -1    0    0    0    0  0.00000000000E+00  0.00000000000E+00  0.45593999997E+02  0.45594000000E+02  0.51100000000E-03 0.  1.
         11   -1    0    0    0    0 -0.00000000000E+00 -0.00000000000E+00 -0.45593999997E+02  0.45594000000E+02  0.51100000000E-03 0. -1.
    9900012    2    1    2    0    0  0.20412426162E+02  0.53622750723E-02 -0.24495743475E+02  0.59302131359E+02  0.50000341646E+02 0.  0.
        -12    1    1    2    0    0 -0.20412426162E+02 -0.53622750723E-02  0.24495743475E+02  0.31885868641E+02  0.00000000000E+00 0.  1.
         11    1    3    3    0    0  0.94337790979E+01  0.62421827373E+01 -0.13809526181E+02  0.17851163743E+02  0.51100000000E-03 0. -1.
        -11    1    3    3    0    0  0.25089184971E+02 -0.52824137268E+01 -0.91586030003E+01  0.27225927100E+02  0.51100000000E-03 0.  1.
        -12    1    3    3    0    0 -0.14110537907E+02 -0.95440673541E+00 -0.15276142946E+01  0.14225040516E+02  0.00000000000E+00 0.  1.
</event>
<event>
 7    1  0.1284777E-011  0.5930185E+02  0.7816164E-02  0.1266605E+00
        -11   -1    0    0    0    0  0.00000000000E+00  0.00000000000E+00  0.45593999997E+02  0.45594000000E+02  0.51100000000E-03 0. -1.
         11   -1    0    0    0    0 -0.00000000000E+00 -0.00000000000E+00 -0.45593999997E+02  0.45594000000E+02  0.51100000000E-03 0.  1.
    9900012    2    1    2    0    0  0.37033949791E+01  0.31655437589E+02  0.97205258751E+00  0.59301847056E+02  0.49999823147E+02 0.  0.
        -12    1    1    2    0    0 -0.37033949791E+01 -0.31655437589E+02 -0.97205258751E+00  0.31886152944E+02  0.00000000000E+00 0.  1.
         11    1    3    3    0    0  0.57435891915E+01  0.34009973682E+01 -0.29392113168E+01  0.72934603122E+01  0.51100000000E-03 0. -1.
        -11    1    3    3    0    0  0.11181493559E+02  0.24673760669E+02 -0.13163579123E+02  0.30118102187E+02  0.51100000000E-03 0.  1.
         12    1    3    3    0    0 -0.13221687771E+02  0.35806795523E+01  0.17074843027E+02  0.21890284557E+02  0.00000000000E+00 0. -1.
</event>
<event>
 7    1  0.1284777E-011  0.5930194E+02  0.7816164E-02  0.1266605E+00
        -11   -1    0    0    0    0  0.00000000000E+00  0.00000000000E+00  0.45593999997E+02  0.45594000000E+02  0.51100000000E-03 0.  1.
         11   -1    0    0    0    0 -0.00000000000E+00 -0.00000000000E+00 -0.45593999997E+02  0.45594000000E+02  0.51100000000E-03 0. -1.
    9900012    2    1    2    0    0 -0.27841288018E+02  0.15298075846E+02  0.27481214032E+01  0.59301943262E+02  0.49999998603E+02 0.  0.
        -12    1    1    2    0    0  0.27841288018E+02 -0.15298075846E+02 -0.27481214032E+01  0.31886056738E+02  0.00000000000E+00 0.  1.
         11    1    3    3    0    0 -0.65438348980E+01  0.18312393988E+01  0.11392196958E+02  0.13264892185E+02  0.51100000000E-03 0. -1.
        -11    1    3    3    0    0 -0.18114375713E+02  0.75415397289E+01  0.12890145969E+02  0.23476824579E+02  0.51100000000E-03 0.  1.
         12    1    3    3    0    0 -0.31830774065E+01  0.59252967187E+01 -0.21534221523E+02  0.22560226497E+02  0.00000000000E+00 0. -1.
</event>
<event>
 7    1  0.1284777E-011  0.5930194E+02  0.7816164E-02  0.1266605E+00
        -11   -1    0    0    0    0  0.00000000000E+00  0.00000000000E+00  0.45593999997E+02  0.45594000000E+02  0.51100000000E-03 0. -1.
         11   -1    0    0    0    0 -0.00000000000E+00 -0.00000000000E+00 -0.45593999997E+02  0.45594000000E+02  0.51100000000E-03 0.  1.
    9900012    2    1    2    0    0  0.21645831128E+02  0.22044268347E+02 -0.78885548396E+01  0.59301936122E+02  0.49999985583E+02 0.  0.
        -12    1    1    2    0    0 -0.21645831128E+02 -0.22044268347E+02  0.78885548396E+01  0.31886063878E+02  0.00000000000E+00 0.  1.
         11    1    3    3    0    0  0.36285591677E+01 -0.10431157373E+02  0.80098040170E+01  0.13643036554E+02  0.51100000000E-03 0. -1.
        -11    1    3    3    0    0  0.53883463590E+01 -0.19661323394E+01 -0.15095316436E+00  0.57378340844E+01  0.51100000000E-03 0.  1.
        -12    1    3    3    0    0  0.12628925601E+02  0.34441558059E+02 -0.15747405692E+02  0.39921065484E+02  0.00000000000E+00 0.  1.
</event>
<event>
 7    1  0.1284777E-011  0.5930195E+02  0.7816164E-02  0.1266605E+00
        -11   -1    0    0    0    0  0.00000000000E+00  0.00000000000E+00  0.45593999997E+02  0.45594000000E+02  0.51100000000E-03 0.  1.
         11   -1    0    0    0    0 -0.00000000000E+00 -0.00000000000E+00 -0.45593999997E+02  0.45594000000E+02  0.51100000000E-03 0. -1.
    9900012    2    1    2    0    0 -0.52144989814E+00  0.70565193449E+01 -0.31091052724E+02  0.59301953918E+02  0.50000018037E+02 0.  0.
        -12    1    1    2    0    0  0.52144989814E+00 -0.70565193449E+01  0.31091052724E+02  0.31886046082E+02  0.00000000000E+00 0.  1.
         11    1    3    3    0    0  0.87643294907E+01  0.66232428185E+00 -0.44472902410E+01  0.98504078913E+01  0.51100000000E-03 0. -1.
        -11    1    3    3    0    0  0.12606707160E+02 -0.66367449155E+01 -0.27234747890E+01  0.14504922050E+02  0.51100000000E-03 0.  1.
        -12    1    3    3    0    0 -0.21892486548E+02  0.13030939979E+02 -0.23920287694E+02  0.34946623977E+02  0.00000000000E+00 0.  1.
</event>
<event>
 7    1  0.1284777E-011  0.5930195E+02  0.7816164E-02  0.1266605E+00
        -11   -1    0    0    0    0  0.00000000000E+00  0.00000000000E+00  0.45593999997E+02  0.45594000000E+02  0.51100000000E-03 0.  1.
         11   -1    0    0    0    0 -0.00000000000E+00 -0.00000000000E+00 -0.45593999997E+02  0.45594000000E+02  0.51100000000E-03 0. -1.
    9900012    2    1    2    0    0  0.30396615838E+02 -0.68947425288E+01 -0.67252112461E+01  0.59301949833E+02  0.50000010587E+02 0.  0.
        -12    1    1    2    0    0 -0.30396615838E+02  0.68947425288E+01  0.67252112461E+01  0.31886050167E+02  0.00000000000E+00 0.  1.
         11    1    3    3    0    0  0.82285426343E+01  0.81273968197E+01 -0.70307485495E+01  0.13534951732E+02  0.51100000000E-03 0. -1.
        -11    1    3    3    0    0 -0.97224379545E+01 -0.30644566804E+01 -0.49040702060E+01  0.11312232290E+02  0.51100000000E-03 0.  1.
        -12    1    3    3    0    0  0.31890511158E+02 -0.11957682668E+02  0.52096075095E+01  0.34454765812E+02  0.00000000000E+00 0.  1.
</event>
<event>
 7    1  0.1284777E-011  0.5930192E+02  0.7816164E-02  0.1266605E+00
        -11   -1    0    0    0    0  0.00000000000E+00  0.00000000000E+00  0.45593999997E+02  0.45594000000E+02  0.51100000000E-03 0.  1.
         11   -1    0    0    0    0 -0.00000000000E+00 -0.00000000000E+00 -0.45593999997E+02  0.45594000000E+02  0.51100000000E-03 0. -1.
    9900012    2    1    2    0    0 -0.20911487610E+02 -0.46923137150E+01  0.23609611494E+02  0.59301923462E+02  0.49999962494E+02 0.  0.
        -12    1    1    2    0    0  0.20911487610E+02  0.46923137150E+01 -0.23609611494E+02  0.31886076538E+02  0.00000000000E+00 0.  1.
         11    1    3    3    0    0  0.18320579054E+01  0.45981349069E+01 -0.86882128707E+01  0.99992161662E+01  0.51100000000E-03 0. -1.
        -11    1    3    3    0    0 -0.15383259937E+02 -0.12267874200E+02  0.42194280010E+01  0.20123344568E+02  0.51100000000E-03 0.  1.
        -12    1    3    3    0    0 -0.73602855784E+01  0.29774255786E+01  0.28078396364E+02  0.29179362728E+02  0.00000000000E+00 0.  1.
</event>
<event>
 7    1  0.1284777E-011  0.5930193E+02  0.7816164E-02  0.1266605E+00
        -11   -1    0    0    0    0  0.00000000000E+00  0.00000000000E+00  0.45593999997E+02  0.45594000000E+02  0.51100000000E-03 0.  1.
         11   -1    0    0    0    0 -0.00000000000E+00 -0.00000000000E+00 -0.45593999997E+02  0.45594000000E+02  0.51100000000E-03 0. -1.
    9900012    2    1    2    0    0  0.14098635317E+02 -0.13297009320E+02 -0.25320727753E+02  0.59301933629E+02  0.49999981035E+02 0.  0.
        -12    1    1    2    0    0 -0.14098635317E+02  0.13297009320E+02  0.25320727753E+02  0.31886066371E+02  0.00000000000E+00 0.  1.
         11    1    3    3    0    0  0.39352772308E+01 -0.16045995620E+01 -0.13705746347E+02  0.14349516711E+02  0.51100000000E-03 0. -1.
        -11    1    3    3    0    0  0.43156720536E+01 -0.52194963585E+01 -0.26689777795E+02  0.27535657001E+02  0.51100000000E-03 0.  1.
        -12    1    3    3    0    0  0.58476860330E+01 -0.64729133997E+01  0.15074796389E+02  0.17416759916E+02  0.00000000000E+00 0.  1.
</event>
<event>
 7    1  0.1284777E-011  0.5930194E+02  0.7816164E-02  0.1266605E+00
        -11   -1    0    0    0    0  0.00000000000E+00  0.00000000000E+00  0.45593999997E+02  0.45594000000E+02  0.51100000000E-03 0.  1.
         11   -1    0    0    0    0 -0.00000000000E+00 -0.00000000000E+00 -0.45593999997E+02  0.45594000000E+02  0.51100000000E-03 0. -1.
    9900012    2    1    2    0    0 -0.30640924388E+02  0.23838642426E+01  0.84953879383E+01  0.59301942353E+02  0.49999996945E+02 0.  0.
        -12    1    1    2    0    0  0.30640924388E+02 -0.23838642426E+01 -0.84953879383E+01  0.31886057647E+02  0.00000000000E+00 0.  1.
         11    1    3    3    0    0 -0.52770305888E+01 -0.24656876374E+01  0.11472812674E+02  0.12866705028E+02  0.51100000000E-03 0. -1.
        -11    1    3    3    0    0 -0.13910974815E+02  0.39773947664E+01  0.17651930252E+02  0.22823793097E+02  0.51100000000E-03 0.  1.
         12    1    3    3    0    0 -0.11452918984E+02  0.87215711360E+00 -0.20629354988E+02  0.23611444228E+02  0.00000000000E+00 0. -1.
</event>
<event>
 7    1  0.1284777E-011  0.5930195E+02  0.7816164E-02  0.1266605E+00
        -11   -1    0    0    0    0  0.00000000000E+00  0.00000000000E+00  0.45593999997E+02  0.45594000000E+02  0.51100000000E-03 0.  1.
         11   -1    0    0    0    0 -0.00000000000E+00 -0.00000000000E+00 -0.45593999997E+02  0.45594000000E+02  0.51100000000E-03 0. -1.
    9900012    2    1    2    0    0 -0.14961676917E+00 -0.21902788216E+02  0.23172520445E+02  0.59301949436E+02  0.50000009863E+02 0.  0.
        -12    1    1    2    0    0  0.14961676917E+00  0.21902788216E+02 -0.23172520445E+02  0.31886050564E+02  0.00000000000E+00 0.  1.
         11    1    3    3    0    0 -0.38377605690E+01 -0.79516062273E+00 -0.61207118327E+01  0.72679983627E+01  0.51100000000E-03 0. -1.
        -11    1    3    3    0    0 -0.16555719430E+02 -0.57896833135E+01  0.10418145969E+02  0.20399755989E+02  0.51100000000E-03 0.  1.
        -12    1    3    3    0    0  0.20243863230E+02 -0.15317944280E+02  0.18875086308E+02  0.31634195084E+02  0.00000000000E+00 0.  1.
</event>
<event>
 7    1  0.1284777E-011  0.5930193E+02  0.7816164E-02  0.1266605E+00
        -11   -1    0    0    0    0  0.00000000000E+00  0.00000000000E+00  0.45593999997E+02  0.45594000000E+02  0.51100000000E-03 0.  1.
         11   -1    0    0    0    0 -0.00000000000E+00 -0.00000000000E+00 -0.45593999997E+02  0.45594000000E+02  0.51100000000E-03 0. -1.
    9900012    2    1    2    0    0 -0.26894701411E+02 -0.12430870874E+02 -0.11784299617E+02  0.59301933574E+02  0.49999980935E+02 0.  0.
        -12    1    1    2    0    0  0.26894701411E+02  0.12430870874E+02  0.11784299617E+02  0.31886066426E+02  0.00000000000E+00 0.  1.
         11    1    3    3    0    0 -0.16492989053E+02 -0.44638593948E+01 -0.13595356888E+02  0.21835257218E+02  0.51100000000E-03 0. -1.
        -11    1    3    3    0    0 -0.15319556083E+02  0.10315257216E+02  0.25195030347E+00  0.18470430672E+02  0.51100000000E-03 0.  1.
        -12    1    3    3    0    0  0.49178437251E+01 -0.18282268695E+02  0.15591069674E+01  0.18996245684E+02  0.00000000000E+00 0.  1.
</event>
<event>
 7    1  0.1284777E-011  0.5930195E+02  0.7816164E-02  0.1266605E+00
        -11   -1    0    0    0    0  0.00000000000E+00  0.00000000000E+00  0.45593999997E+02  0.45594000000E+02  0.51100000000E-03 0.  1.
         11   -1    0    0    0    0 -0.00000000000E+00 -0.00000000000E+00 -0.45593999997E+02  0.45594000000E+02  0.51100000000E-03 0. -1.
    9900012    2    1    2    0    0 -0.17508011388E+02  0.14177693810E+02 -0.22565078027E+02  0.59301949588E+02  0.50000010140E+02 0.  0.
        -12    1    1    2    0    0  0.17508011388E+02 -0.14177693810E+02  0.22565078027E+02  0.31886050412E+02  0.00000000000E+00 0.  1.
         11    1    3    3    0    0 -0.13866200324E+02  0.83606731839E+01 -0.32412486909E+01  0.16512966447E+02  0.51100000000E-03 0. -1.
        -11    1    3    3    0    0 -0.20617695534E+02  0.16099272310E+01 -0.10882097366E+02  0.23368809943E+02  0.51100000000E-03 0.  1.
        -12    1    3    3    0    0  0.16975884471E+02  0.42070933951E+01 -0.84417319705E+01  0.19420173198E+02  0.00000000000E+00 0.  1.
</event>
<event>
 7    1  0.1284777E-011  0.5930198E+02  0.7816164E-02  0.1266605E+00
        -11   -1    0    0    0    0  0.00000000000E+00  0.00000000000E+00  0.45593999997E+02  0.45594000000E+02  0.51100000000E-03 0. -1.
         11   -1    0    0    0    0 -0.00000000000E+00 -0.00000000000E+00 -0.45593999997E+02  0.45594000000E+02  0.51100000000E-03 0.  1.
    9900012    2    1    2    0    0 -0.31370175039E+02  0.40361676745E+01  0.40422823625E+01  0.59301975190E+02  0.50000056833E+02 0.  0.
        -12    1    1    2    0    0  0.31370175039E+02 -0.40361676745E+01 -0.40422823625E+01  0.31886024810E+02  0.00000000000E+00 0.  1.
         11    1    3    3    0    0 -0.13422970985E+01  0.95872355773E+01 -0.63394818433E+01  0.11571770730E+02  0.51100000000E-03 0.  1.
        -11    1    3    3    0    0 -0.19375046523E+02 -0.17214327053E+02  0.16573813613E+02  0.30763887622E+02  0.51100000000E-03 0. -1.
         12    1    3    3    0    0 -0.10652831418E+02  0.11663259150E+02 -0.61920494074E+01  0.16966316839E+02  0.00000000000E+00 0. -1.
</event>
<event>
 7    1  0.1284777E-011  0.5930188E+02  0.7816164E-02  0.1266605E+00
        -11   -1    0    0    0    0  0.00000000000E+00  0.00000000000E+00  0.45593999997E+02  0.45594000000E+02  0.51100000000E-03 0.  1.
         11   -1    0    0    0    0 -0.00000000000E+00 -0.00000000000E+00 -0.45593999997E+02  0.45594000000E+02  0.51100000000E-03 0. -1.
    9900012    2    1    2    0    0 -0.29038108969E+02  0.95082430262E+01 -0.91162538579E+01  0.59301881667E+02  0.49999886268E+02 0.  0.
        -12    1    1    2    0    0  0.29038108969E+02 -0.95082430262E+01  0.91162538579E+01  0.31886118333E+02  0.00000000000E+00 0.  1.
         11    1    3    3    0    0 -0.20847562781E+02  0.75863513650E+01 -0.12652708240E+02  0.25539471941E+02  0.51100000000E-03 0. -1.
        -11    1    3    3    0    0 -0.12424059690E+02 -0.26307345527E+01 -0.11724257817E+02  0.17283988113E+02  0.51100000000E-03 0.  1.
         12    1    3    3    0    0  0.42335135016E+01  0.45526262140E+01  0.15260712199E+02  0.16478421613E+02  0.00000000000E+00 0. -1.
</event>
<event>
 7    1  0.1284777E-011  0.5930194E+02  0.7816164E-02  0.1266605E+00
        -11   -1    0    0    0    0  0.00000000000E+00  0.00000000000E+00  0.45593999997E+02  0.45594000000E+02  0.51100000000E-03 0. -1.
         11   -1    0    0    0    0 -0.00000000000E+00 -0.00000000000E+00 -0.45593999997E+02  0.45594000000E+02  0.51100000000E-03 0.  1.
    9900012    2    1    2    0    0 -0.23849516538E+02 -0.18632643032E+02 -0.10037227734E+02  0.59301940883E+02  0.49999994264E+02 0.  0.
        -12    1    1    2    0    0  0.23849516538E+02  0.18632643032E+02  0.10037227734E+02  0.31886059117E+02  0.00000000000E+00 0.  1.
         11    1    3    3    0    0 -0.17405787288E+02  0.41733740477E+01  0.50198374059E+01  0.18589708171E+02  0.51100000000E-03 0. -1.
        -11    1    3    3    0    0 -0.15307360794E+02 -0.77432539034E+01  0.71683051428E+00  0.17169365793E+02  0.51100000000E-03 0.  1.
        -12    1    3    3    0    0  0.88636315433E+01 -0.15062763176E+02 -0.15773895654E+02  0.23542866918E+02  0.00000000000E+00 0.  1.
</event>
<event>
 7    1  0.1284777E-011  0.5930193E+02  0.7816164E-02  0.1266605E+00
        -11   -1    0    0    0    0  0.00000000000E+00  0.00000000000E+00  0.45593999997E+02  0.45594000000E+02  0.51100000000E-03 0.  1.
         11   -1    0    0    0    0 -0.00000000000E+00 -0.00000000000E+00 -0.45593999997E+02  0.45594000000E+02  0.51100000000E-03 0. -1.
    9900012    2    1    2    0    0 -0.21321359198E+02 -0.91899238793E+00 -0.23691282294E+02  0.59301925268E+02  0.49999965786E+02 0.  0.
        -12    1    1    2    0    0  0.21321359198E+02  0.91899238793E+00  0.23691282294E+02  0.31886074732E+02  0.00000000000E+00 0.  1.
         11    1    3    3    0    0 -0.90468783443E+00  0.25343524313E+01 -0.18664114442E+02  0.18857109283E+02  0.51100000000E-03 0. -1.
        -11    1    3    3    0    0 -0.88931285117E+01 -0.11477948165E+02 -0.16739285259E+02  0.22159302788E+02  0.51100000000E-03 0.  1.
        -12    1    3    3    0    0 -0.11523542852E+02  0.80246033457E+01  0.11712117407E+02  0.18285513197E+02  0.00000000000E+00 0.  1.
</event>
<event>
 7    1  0.1284777E-011  0.5930201E+02  0.7816164E-02  0.1266605E+00
        -11   -1    0    0    0    0  0.00000000000E+00  0.00000000000E+00  0.45593999997E+02  0.45594000000E+02  0.51100000000E-03 0. -1.
         11   -1    0    0    0    0 -0.00000000000E+00 -0.00000000000E+00 -0.45593999997E+02  0.45594000000E+02  0.51100000000E-03 0.  1.
    9900012    2    1    2    0    0  0.29922550984E+02  0.10012318371E+02 -0.45946531521E+01  0.59302009124E+02  0.50000118721E+02 0.  0.
        -12    1    1    2    0    0 -0.29922550984E+02 -0.10012318371E+02  0.45946531521E+01  0.31885990876E+02  0.00000000000E+00 0.  1.
         11    1    3    3    0    0  0.18053778099E+02 -0.80116081585E+00 -0.13184976780E+02  0.22370167081E+02  0.51100000000E-03 0. -1.
        -11    1    3    3    0    0 -0.34179843564E+01  0.15593698916E+02 -0.41173245986E+01  0.16486310231E+02  0.51100000000E-03 0.  1.
         12    1    3    3    0    0  0.15286757241E+02 -0.47802197286E+01  0.12707648227E+02  0.20445531812E+02  0.00000000000E+00 0. -1.
</event>
<event>
 7    1  0.1284777E-011  0.5930197E+02  0.7816164E-02  0.1266605E+00
        -11   -1    0    0    0    0  0.00000000000E+00  0.00000000000E+00  0.45593999997E+02  0.45594000000E+02  0.51100000000E-03 0. -1.
         11   -1    0    0    0    0 -0.00000000000E+00 -0.00000000000E+00 -0.45593999997E+02  0.45594000000E+02  0.51100000000E-03 0.  1.
    9900012    2    1    2    0    0 -0.12766721104E+02  0.20837759094E+02  0.20482120102E+02  0.59301974602E+02  0.50000055760E+02 0.  0.
        -12    1    1    2    0    0  0.12766721104E+02 -0.20837759094E+02 -0.20482120102E+02  0.31886025398E+02  0.00000000000E+00 0.  1.
         11    1    3    3    0    0  0.25302308412E+01  0.11134627513E+02  0.20496210677E+01  0.11600988956E+02  0.51100000000E-03 0. -1.
        -11    1    3    3    0    0  0.11689141881E+02 -0.22066285475E+01 -0.16596930644E+01  0.12010821320E+02  0.51100000000E-03 0.  1.
        -12    1    3    3    0    0 -0.26986093826E+02  0.11909760129E+02  0.20092192098E+02  0.35690164326E+02  0.00000000000E+00 0.  1.
</event>
<event>
 7    1  0.1284777E-011  0.5930197E+02  0.7816164E-02  0.1266605E+00
        -11   -1    0    0    0    0  0.00000000000E+00  0.00000000000E+00  0.45593999997E+02  0.45594000000E+02  0.51100000000E-03 0.  1.
         11   -1    0    0    0    0 -0.00000000000E+00 -0.00000000000E+00 -0.45593999997E+02  0.45594000000E+02  0.51100000000E-03 0. -1.
    9900012    2    1    2    0    0  0.13213820340E+02  0.21697505865E+02 -0.19269983405E+02  0.59301967490E+02  0.50000042790E+02 0.  0.
        -12    1    1    2    0    0 -0.13213820340E+02 -0.21697505865E+02  0.19269983405E+02  0.31886032510E+02  0.00000000000E+00 0.  1.
         11    1    3    3    0    0 -0.97279282591E+01  0.14075108209E+01  0.34397388762E+00  0.98352424079E+01  0.51100000000E-03 0. -1.
        -11    1    3    3    0    0 -0.35012937203E+01 -0.57505502208E+01  0.13147034650E+01  0.68597617320E+01  0.51100000000E-03 0.  1.
         12    1    3    3    0    0  0.26443042320E+02  0.26040545265E+02 -0.20928660758E+02  0.42606963351E+02  0.00000000000E+00 0. -1.
</event>
<event>
 7    1  0.1284777E-011  0.5930194E+02  0.7816164E-02  0.1266605E+00
        -11   -1    0    0    0    0  0.00000000000E+00  0.00000000000E+00  0.45593999997E+02  0.45594000000E+02  0.51100000000E-03 0.  1.
         11   -1    0    0    0    0 -0.00000000000E+00 -0.00000000000E+00 -0.45593999997E+02  0.45594000000E+02  0.51100000000E-03 0. -1.
    9900012    2    1    2    0    0 -0.22075024229E+02 -0.22883952940E+02 -0.23955554534E+01  0.59301942188E+02  0.49999996645E+02 0.  0.
        -12    1    1    2    0    0  0.22075024229E+02  0.22883952940E+02  0.23955554534E+01  0.31886057812E+02  0.00000000000E+00 0.  1.
         11    1    3    3    0    0 -0.35636690354E+01  0.27289202974E+01  0.35170100573E+01  0.57022892760E+01  0.51100000000E-03 0.  1.
        -11    1    3    3    0    0 -0.18093619250E+02 -0.28094573738E+02  0.12003803686E+02  0.35507399711E+02  0.51100000000E-03 0. -1.
         12    1    3    3    0    0 -0.41773594338E+00  0.24817005007E+01 -0.17916369197E+02  0.18092253201E+02  0.00000000000E+00 0. -1.
</event>
<event>
 7    1  0.1284777E-011  0.5930194E+02  0.7816164E-02  0.1266605E+00
        -11   -1    0    0    0    0  0.00000000000E+00  0.00000000000E+00  0.45593999997E+02  0.45594000000E+02  0.51100000000E-03 0.  1.
         11   -1    0    0    0    0 -0.00000000000E+00 -0.00000000000E+00 -0.45593999997E+02  0.45594000000E+02  0.51100000000E-03 0. -1.
    9900012    2    1    2    0    0 -0.24173007951E+02  0.19181040583E+02  0.80295691346E+01  0.59301943303E+02  0.49999998677E+02 0.  0.
        -12    1    1    2    0    0  0.24173007951E+02 -0.19181040583E+02 -0.80295691346E+01  0.31886056697E+02  0.00000000000E+00 0.  1.
         11    1    3    3    0    0  0.71835574169E+00  0.72759357426E+01 -0.89609342954E+01  0.11565189995E+02  0.51100000000E-03 0. -1.
        -11    1    3    3    0    0  0.48914794827E+01  0.24166326275E+01  0.15512581578E+02  0.16444052793E+02  0.51100000000E-03 0.  1.
         12    1    3    3    0    0 -0.29782843175E+02  0.94884722124E+01  0.14779218521E+01  0.31292700515E+02  0.00000000000E+00 0. -1.
</event>
<event>
 7    1  0.1284777E-011  0.5930186E+02  0.7816164E-02  0.1266605E+00
        -11   -1    0    0    0    0  0.00000000000E+00  0.00000000000E+00  0.45593999997E+02  0.45594000000E+02  0.51100000000E-03 0.  1.
         11   -1    0    0    0    0 -0.00000000000E+00 -0.00000000000E+00 -0.45593999997E+02  0.45594000000E+02  0.51100000000E-03 0. -1.
    9900012    2    1    2    0    0 -0.19818251387E+02  0.69003036759E+01 -0.24007258867E+02  0.59301862617E+02  0.49999851527E+02 0.  0.
        -12    1    1    2    0    0  0.19818251387E+02 -0.69003036759E+01  0.24007258867E+02  0.31886137383E+02  0.00000000000E+00 0.  1.
         11    1    3    3    0    0  0.46581088547E+01  0.11910643342E+02 -0.11609522991E+02  0.17272591794E+02  0.51100000000E-03 0. -1.
        -11    1    3    3    0    0  0.64355676044E+01  0.92277514503E+00 -0.79034078540E+01  0.10233860480E+02  0.51100000000E-03 0.  1.
        -12    1    3    3    0    0 -0.30911927846E+02 -0.59331148116E+01 -0.44943280219E+01  0.31795410343E+02  0.00000000000E+00 0.  1.
</event>
<event>
 7    1  0.1284777E-011  0.5930194E+02  0.7816164E-02  0.1266605E+00
        -11   -1    0    0    0    0  0.00000000000E+00  0.00000000000E+00  0.45593999997E+02  0.45594000000E+02  0.51100000000E-03 0.  1.
         11   -1    0    0    0    0 -0.00000000000E+00 -0.00000000000E+00 -0.45593999997E+02  0.45594000000E+02  0.51100000000E-03 0. -1.
    9900012    2    1    2    0    0  0.20324477369E+01  0.16228399042E+02 -0.27372051313E+02  0.59301937647E+02  0.49999988363E+02 0.  0.
        -12    1    1    2    0    0 -0.20324477369E+01 -0.16228399042E+02  0.27372051313E+02  0.31886062353E+02  0.00000000000E+00 0.  1.
         11    1    3    3    0    0  0.11352828083E+02 -0.46656564074E+01 -0.10608027753E+02  0.16222987032E+02  0.51100000000E-03 0. -1.
        -11    1    3    3    0    0 -0.10973267399E+02  0.16064090602E+01  0.64681303651E+01  0.12838608109E+02  0.51100000000E-03 0.  1.
         12    1    3    3    0    0  0.16528870536E+01  0.19287646389E+02 -0.23232153926E+02  0.30240342506E+02  0.00000000000E+00 0. -1.
</event>
<event>
 7    1  0.1284777E-011  0.5930199E+02  0.7816164E-02  0.1266605E+00
        -11   -1    0    0    0    0  0.00000000000E+00  0.00000000000E+00  0.45593999997E+02  0.45594000000E+02  0.51100000000E-03 0.  1.
         11   -1    0    0    0    0 -0.00000000000E+00 -0.00000000000E+00 -0.45593999997E+02  0.45594000000E+02  0.51100000000E-03 0. -1.
    9900012    2    1    2    0    0 -0.28189684493E+02 -0.91713621387E+01 -0.11745030616E+02  0.59301985206E+02  0.50000075099E+02 0.  0.
        -12    1    1    2    0    0  0.28189684493E+02  0.91713621387E+01  0.11745030616E+02  0.31886014794E+02  0.00000000000E+00 0.  1.
         11    1    3    3    0    0 -0.75302623737E+01 -0.21355558551E+01  0.47425261175E+01  0.91518852956E+01  0.51100000000E-03 0. -1.
        -11    1    3    3    0    0 -0.25944243830E+02  0.88454682056E+01 -0.11291834858E+01  0.27433941593E+02  0.51100000000E-03 0.  1.
         12    1    3    3    0    0  0.52848217111E+01 -0.15881274489E+02 -0.15358373247E+02  0.22716158318E+02  0.00000000000E+00 0. -1.
</event>
<event>
 7    1  0.1284777E-011  0.5930200E+02  0.7816164E-02  0.1266605E+00
        -11   -1    0    0    0    0  0.00000000000E+00  0.00000000000E+00  0.45593999997E+02  0.45594000000E+02  0.51100000000E-03 0.  1.
         11   -1    0    0    0    0 -0.00000000000E+00 -0.00000000000E+00 -0.45593999997E+02  0.45594000000E+02  0.51100000000E-03 0. -1.
    9900012    2    1    2    0    0  0.31291244434E+02  0.56081303047E+01 -0.24747020685E+01  0.59301995954E+02  0.50000094700E+02 0.  0.
        -12    1    1    2    0    0 -0.31291244434E+02 -0.56081303047E+01  0.24747020685E+01  0.31886004046E+02  0.00000000000E+00 0.  1.
         11    1    3    3    0    0 -0.47379173383E+01  0.24822528916E+01 -0.75393883566E+01  0.92440152085E+01  0.51100000000E-03 0. -1.
        -11    1    3    3    0    0  0.14813561615E+02  0.48078238032E+01  0.19039305725E+02  0.24597803564E+02  0.51100000000E-03 0.  1.
        -12    1    3    3    0    0  0.21215600157E+02 -0.16819463901E+01 -0.13974619437E+02  0.25460177181E+02  0.00000000000E+00 0.  1.
</event>
<event>
 7    1  0.1284777E-011  0.5930198E+02  0.7816164E-02  0.1266605E+00
        -11   -1    0    0    0    0  0.00000000000E+00  0.00000000000E+00  0.45593999997E+02  0.45594000000E+02  0.51100000000E-03 0.  1.
         11   -1    0    0    0    0 -0.00000000000E+00 -0.00000000000E+00 -0.45593999997E+02  0.45594000000E+02  0.51100000000E-03 0. -1.
    9900012    2    1    2    0    0 -0.17230660868E+02  0.96040519865E+00 -0.26812317242E+02  0.59301977858E+02  0.50000061699E+02 0.  0.
        -12    1    1    2    0    0  0.17230660868E+02 -0.96040519865E+00  0.26812317242E+02  0.31886022142E+02  0.00000000000E+00 0.  1.
         11    1    3    3    0    0 -0.18209695618E+02 -0.98803164910E+01 -0.10635700623E+02  0.23288018303E+02  0.51100000000E-03 0. -1.
        -11    1    3    3    0    0 -0.13258627030E+02  0.58042182041E+01 -0.15033841790E+02  0.20868553829E+02  0.51100000000E-03 0.  1.
        -12    1    3    3    0    0  0.14237661779E+02  0.50365034855E+01 -0.11427748287E+01  0.15145405726E+02  0.00000000000E+00 0.  1.
</event>
<event>
 7    1  0.1284777E-011  0.5930193E+02  0.7816164E-02  0.1266605E+00
        -11   -1    0    0    0    0  0.00000000000E+00  0.00000000000E+00  0.45593999997E+02  0.45594000000E+02  0.51100000000E-03 0.  1.
         11   -1    0    0    0    0 -0.00000000000E+00 -0.00000000000E+00 -0.45593999997E+02  0.45594000000E+02  0.51100000000E-03 0. -1.
    9900012    2    1    2    0    0  0.13556773594E+02  0.93444140494E+01 -0.27305988313E+02  0.59301934361E+02  0.49999982370E+02 0.  0.
        -12    1    1    2    0    0 -0.13556773594E+02 -0.93444140494E+01  0.27305988313E+02  0.31886065639E+02  0.00000000000E+00 0.  1.
         11    1    3    3    0    0 -0.19777147315E+01 -0.83515352682E+01 -0.22217866505E+02  0.23817915299E+02  0.51100000000E-03 0. -1.
        -11    1    3    3    0    0 -0.77322664225E+00 -0.22908424466E+01 -0.90665686564E+01  0.93834165429E+01  0.51100000000E-03 0.  1.
        -12    1    3    3    0    0  0.16307714968E+02  0.19986791764E+02  0.39784468488E+01  0.26100602519E+02  0.00000000000E+00 0.  1.
</event>
<event>
 7    1  0.1284777E-011  0.5930193E+02  0.7816164E-02  0.1266605E+00
        -11   -1    0    0    0    0  0.00000000000E+00  0.00000000000E+00  0.45593999997E+02  0.45594000000E+02  0.51100000000E-03 0.  1.
         11   -1    0    0    0    0 -0.00000000000E+00 -0.00000000000E+00 -0.45593999997E+02  0.45594000000E+02  0.51100000000E-03 0. -1.
    9900012    2    1    2    0    0 -0.16544604842E+02  0.77822219650E+01 -0.26123451725E+02  0.59301926894E+02  0.49999968752E+02 0.  0.
        -12    1    1    2    0    0  0.16544604842E+02 -0.77822219650E+01  0.26123451725E+02  0.31886073106E+02  0.00000000000E+00 0.  1.
         11    1    3    3    0    0 -0.79908268794E+01  0.34338889939E+01 -0.14160804684E+02  0.16618462546E+02  0.51100000000E-03 0. -1.
        -11    1    3    3    0    0  0.15492563061E+02 -0.26180144260E+01 -0.68052779886E+01  0.17122655124E+02  0.51100000000E-03 0.  1.
         12    1    3    3    0    0 -0.24046341023E+02  0.69663473972E+01 -0.51573690532E+01  0.25560809224E+02  0.00000000000E+00 0. -1.
</event>
<event>
 7    1  0.1284777E-011  0.5930194E+02  0.7816164E-02  0.1266605E+00
        -11   -1    0    0    0    0  0.00000000000E+00  0.00000000000E+00  0.45593999997E+02  0.45594000000E+02  0.51100000000E-03 0.  1.
         11   -1    0    0    0    0 -0.00000000000E+00 -0.00000000000E+00 -0.45593999997E+02  0.45594000000E+02  0.51100000000E-03 0. -1.
    9900012    2    1    2    0    0  0.22002806892E+02  0.12276113941E+02 -0.19542112918E+02  0.59301942516E+02  0.49999997242E+02 0.  0.
        -12    1    1    2    0    0 -0.22002806892E+02 -0.12276113941E+02  0.19542112918E+02  0.31886057484E+02  0.00000000000E+00 0.  1.
         11    1    3    3    0    0  0.45094469425E+01  0.97943907170E+01 -0.29217357556E+02  0.31143525556E+02  0.51100000000E-03 0. -1.
        -11    1    3    3    0    0  0.83442168480E+01  0.53415992381E+01 -0.46320091551E+01  0.10936825239E+02  0.51100000000E-03 0.  1.
        -12    1    3    3    0    0  0.91491431010E+01 -0.28598760140E+01  0.14307253793E+02  0.17221591721E+02  0.00000000000E+00 0.  1.
</event>
<event>
 7    1  0.1284777E-011  0.5930198E+02  0.7816164E-02  0.1266605E+00
        -11   -1    0    0    0    0  0.00000000000E+00  0.00000000000E+00  0.45593999997E+02  0.45594000000E+02  0.51100000000E-03 0.  1.
         11   -1    0    0    0    0 -0.00000000000E+00 -0.00000000000E+00 -0.45593999997E+02  0.45594000000E+02  0.51100000000E-03 0. -1.
    9900012    2    1    2    0    0  0.12363332458E+02  0.12655679787E+02 -0.26527339339E+02  0.59301984997E+02  0.50000074719E+02 0.  0.
        -12    1    1    2    0    0 -0.12363332458E+02 -0.12655679787E+02  0.26527339339E+02  0.31886015003E+02  0.00000000000E+00 0.  1.
         11    1    3    3    0    0  0.22711604798E+01 -0.16277691658E+02 -0.11723606950E+02  0.20188223692E+02  0.51100000000E-03 0. -1.
        -11    1    3    3    0    0  0.78292071089E+01  0.77260976335E+00 -0.43530289352E+01  0.89912330062E+01  0.51100000000E-03 0.  1.
         12    1    3    3    0    0  0.22629648695E+01  0.28160761682E+02 -0.10450703453E+02  0.30122528300E+02  0.00000000000E+00 0. -1.
</event>
<event>
 7    1  0.1284777E-011  0.5930194E+02  0.7816164E-02  0.1266605E+00
        -11   -1    0    0    0    0  0.00000000000E+00  0.00000000000E+00  0.45593999997E+02  0.45594000000E+02  0.51100000000E-03 0. -1.
         11   -1    0    0    0    0 -0.00000000000E+00 -0.00000000000E+00 -0.45593999997E+02  0.45594000000E+02  0.51100000000E-03 0.  1.
    9900012    2    1    2    0    0 -0.11241507909E+02 -0.64791720455E+01  0.29126784284E+02  0.59301941398E+02  0.49999995204E+02 0.  0.
        -12    1    1    2    0    0  0.11241507909E+02  0.64791720455E+01 -0.29126784284E+02  0.31886058602E+02  0.00000000000E+00 0.  1.
         11    1    3    3    0    0  0.71460277574E+01 -0.19745839417E+02  0.22272237005E+02  0.30610724076E+02  0.51100000000E-03 0. -1.
        -11    1    3    3    0    0  0.20251499051E+01  0.41465852519E+01 -0.14563977276E+01  0.48390594119E+01  0.51100000000E-03 0.  1.
        -12    1    3    3    0    0 -0.20412685571E+02  0.91200821193E+01  0.83109450060E+01  0.23852157910E+02  0.00000000000E+00 0.  1.
</event>
<event>
 7    1  0.1284777E-011  0.5930200E+02  0.7816164E-02  0.1266605E+00
        -11   -1    0    0    0    0  0.00000000000E+00  0.00000000000E+00  0.45593999997E+02  0.45594000000E+02  0.51100000000E-03 0.  1.
         11   -1    0    0    0    0 -0.00000000000E+00 -0.00000000000E+00 -0.45593999997E+02  0.45594000000E+02  0.51100000000E-03 0. -1.
    9900012    2    1    2    0    0 -0.19242804897E+02 -0.18847205406E+02 -0.17064996637E+02  0.59302003040E+02  0.50000107625E+02 0.  0.
        -12    1    1    2    0    0  0.19242804897E+02  0.18847205406E+02  0.17064996637E+02  0.31885996960E+02  0.00000000000E+00 0.  1.
         11    1    3    3    0    0 -0.14636423242E+02  0.14409447720E+02 -0.10985371078E+01  0.20568516061E+02  0.51100000000E-03 0. -1.
        -11    1    3    3    0    0 -0.15233847593E+01 -0.70343361386E+00  0.93919472562E+00  0.19229162665E+01  0.51100000000E-03 0.  1.
         12    1    3    3    0    0 -0.30829968953E+01 -0.32553219512E+02 -0.16905654255E+02  0.36810570713E+02  0.00000000000E+00 0. -1.
</event>
<event>
 7    1  0.1284777E-011  0.5930193E+02  0.7816164E-02  0.1266605E+00
        -11   -1    0    0    0    0  0.00000000000E+00  0.00000000000E+00  0.45593999997E+02  0.45594000000E+02  0.51100000000E-03 0. -1.
         11   -1    0    0    0    0 -0.00000000000E+00 -0.00000000000E+00 -0.45593999997E+02  0.45594000000E+02  0.51100000000E-03 0.  1.
    9900012    2    1    2    0    0  0.26520746306E+02 -0.17340521047E+02 -0.35605586572E+01  0.59301933564E+02  0.49999980917E+02 0.  0.
        -12    1    1    2    0    0 -0.26520746306E+02  0.17340521047E+02  0.35605586572E+01  0.31886066436E+02  0.00000000000E+00 0.  1.
         11    1    3    3    0    0  0.24288903128E+02  0.46495831329E+01 -0.12940877705E+02  0.27911211986E+02  0.51100000000E-03 0. -1.
        -11    1    3    3    0    0 -0.28355459243E+01 -0.39284365251E+00 -0.44190306088E+01  0.52652140134E+01  0.51100000000E-03 0.  1.
         12    1    3    3    0    0  0.50673891015E+01 -0.21597260527E+02  0.13799349657E+02  0.26125507565E+02  0.00000000000E+00 0. -1.
</event>
<event>
 7    1  0.1284777E-011  0.5930195E+02  0.7816164E-02  0.1266605E+00
        -11   -1    0    0    0    0  0.00000000000E+00  0.00000000000E+00  0.45593999997E+02  0.45594000000E+02  0.51100000000E-03 0.  1.
         11   -1    0    0    0    0 -0.00000000000E+00 -0.00000000000E+00 -0.45593999997E+02  0.45594000000E+02  0.51100000000E-03 0. -1.
    9900012    2    1    2    0    0 -0.15868715961E+02  0.27654529247E+02  0.36182238811E+00  0.59301952118E+02  0.50000014754E+02 0.  0.
        -12    1    1    2    0    0  0.15868715961E+02 -0.27654529247E+02 -0.36182238811E+00  0.31886047882E+02  0.00000000000E+00 0.  1.
         11    1    3    3    0    0 -0.57847071457E+01  0.22358048941E+02  0.14935198655E+01  0.23142510474E+02  0.51100000000E-03 0. -1.
        -11    1    3    3    0    0  0.25048687212E+01  0.44225823645E+01 -0.15924176661E+02  0.16715651488E+02  0.51100000000E-03 0.  1.
        -12    1    3    3    0    0 -0.12588877537E+02  0.87389794155E+00  0.14792479183E+02  0.19443790156E+02  0.00000000000E+00 0.  1.
</event>
<event>
 7    1  0.1284777E-011  0.5930194E+02  0.7816164E-02  0.1266605E+00
        -11   -1    0    0    0    0  0.00000000000E+00  0.00000000000E+00  0.45593999997E+02  0.45594000000E+02  0.51100000000E-03 0. -1.
         11   -1    0    0    0    0 -0.00000000000E+00 -0.00000000000E+00 -0.45593999997E+02  0.45594000000E+02  0.51100000000E-03 0.  1.
    9900012    2    1    2    0    0 -0.15932816273E+02  0.10354846734E+02  0.25605535761E+02  0.59301938047E+02  0.49999989092E+02 0.  0.
        -12    1    1    2    0    0  0.15932816273E+02 -0.10354846734E+02 -0.25605535761E+02  0.31886061953E+02  0.00000000000E+00 0.  1.
         11    1    3    3    0    0 -0.43142786473E+01  0.98319253399E+00  0.32387723134E+02  0.32688595532E+02  0.51100000000E-03 0. -1.
        -11    1    3    3    0    0 -0.38536069224E+00 -0.53167448658E+01 -0.61116064643E+01  0.81097480026E+01  0.51100000000E-03 0.  1.
        -12    1    3    3    0    0 -0.11233176933E+02  0.14688399066E+02 -0.67058090819E+00  0.18503594512E+02  0.00000000000E+00 0.  1.
</event>
<event>
 7    1  0.1284777E-011  0.5930193E+02  0.7816164E-02  0.1266605E+00
        -11   -1    0    0    0    0  0.00000000000E+00  0.00000000000E+00  0.45593999997E+02  0.45594000000E+02  0.51100000000E-03 0. -1.
         11   -1    0    0    0    0 -0.00000000000E+00 -0.00000000000E+00 -0.45593999997E+02  0.45594000000E+02  0.51100000000E-03 0.  1.
    9900012    2    1    2    0    0 -0.42648092868E+00 -0.27742068705E+02  0.15713590758E+02  0.59301934132E+02  0.49999981952E+02 0.  0.
        -12    1    1    2    0    0  0.42648092868E+00  0.27742068705E+02 -0.15713590758E+02  0.31886065868E+02  0.00000000000E+00 0.  1.
         11    1    3    3    0    0 -0.63847185576E+01 -0.26074476887E+02  0.97091507713E+01  0.28546638768E+02  0.51100000000E-03 0. -1.
        -11    1    3    3    0    0 -0.34659088186E+01 -0.33896231507E+01 -0.10560195936E+02  0.11619802387E+02  0.51100000000E-03 0.  1.
        -12    1    3    3    0    0  0.94241464475E+01  0.17220313326E+01  0.16564635923E+02  0.19135492976E+02  0.00000000000E+00 0.  1.
</event>
<event>
 7    1  0.1630293E-011  0.5930192E+02  0.7816164E-02  0.1266605E+00
        -11   -1    0    0    0    0  0.00000000000E+00  0.00000000000E+00  0.45593999997E+02  0.45594000000E+02  0.51100000000E-03 0. -1.
         11   -1    0    0    0    0 -0.00000000000E+00 -0.00000000000E+00 -0.45593999997E+02  0.45594000000E+02  0.51100000000E-03 0.  1.
    9900012    2    1    2    0    0 -0.16105764929E+02 -0.15275077517E+02  0.22891017149E+02  0.59301916465E+02  0.49999949733E+02 0.  0.
        -12    1    1    2    0    0  0.16105764929E+02  0.15275077517E+02 -0.22891017149E+02  0.31886083535E+02  0.00000000000E+00 0.  1.
         11    1    3    3    0    0 -0.52175175270E+01 -0.20213009667E+01  0.11435905290E+02  0.12731381575E+02  0.51100000000E-03 0. -1.
        -11    1    3    3    0    0  0.12268004840E+02  0.23488675278E+01  0.13722806271E+02  0.18556307112E+02  0.51100000000E-03 0.  1.
         12    1    3    3    0    0 -0.23156252242E+02 -0.15602644078E+02 -0.22676944127E+01  0.28014227779E+02  0.00000000000E+00 0. -1.
</event>
<event>
 7    1  0.1284777E-011  0.5930194E+02  0.7816164E-02  0.1266605E+00
        -11   -1    0    0    0    0  0.00000000000E+00  0.00000000000E+00  0.45593999997E+02  0.45594000000E+02  0.51100000000E-03 0.  1.
         11   -1    0    0    0    0 -0.00000000000E+00 -0.00000000000E+00 -0.45593999997E+02  0.45594000000E+02  0.51100000000E-03 0. -1.
    9900012    2    1    2    0    0 -0.22201821576E+02  0.38024242197E+01 -0.22568588977E+02  0.59301944746E+02  0.50000001311E+02 0.  0.
        -12    1    1    2    0    0  0.22201821576E+02 -0.38024242197E+01  0.22568588977E+02  0.31886055254E+02  0.00000000000E+00 0.  1.
         11    1    3    3    0    0 -0.11552928169E+02  0.87176360635E+01  0.27083813109E+01  0.14724220095E+02  0.51100000000E-03 0. -1.
        -11    1    3    3    0    0 -0.44746217041E+01  0.54228648536E+01  0.71255168389E+01  0.10010129525E+02  0.51100000000E-03 0.  1.
         12    1    3    3    0    0 -0.61742717028E+01 -0.10338076698E+02 -0.32402487127E+02  0.34567595127E+02  0.00000000000E+00 0. -1.
</event>
<event>
 7    1  0.1284777E-011  0.5930195E+02  0.7816164E-02  0.1266605E+00
        -11   -1    0    0    0    0  0.00000000000E+00  0.00000000000E+00  0.45593999997E+02  0.45594000000E+02  0.51100000000E-03 0.  1.
         11   -1    0    0    0    0 -0.00000000000E+00 -0.00000000000E+00 -0.45593999997E+02  0.45594000000E+02  0.51100000000E-03 0. -1.
    9900012    2    1    2    0    0  0.30769593716E+02  0.28700162885E+01 -0.78558970636E+01  0.59301952744E+02  0.50000015897E+02 0.  0.
        -12    1    1    2    0    0 -0.30769593716E+02 -0.28700162885E+01  0.78558970636E+01  0.31886047256E+02  0.00000000000E+00 0.  1.
         11    1    3    3    0    0  0.25693995456E+02  0.11220287456E+02 -0.10314208970E+02  0.29874054965E+02  0.51100000000E-03 0. -1.
        -11    1    3    3    0    0  0.12256113325E+02 -0.10367629226E+02 -0.68896634754E+01  0.17469044412E+02  0.51100000000E-03 0.  1.
        -12    1    3    3    0    0 -0.71805150649E+01  0.20173580577E+01  0.93479753821E+01  0.11958853368E+02  0.00000000000E+00 0.  1.
</event>
<event>
 7    1  0.1284777E-011  0.5930193E+02  0.7816164E-02  0.1266605E+00
        -11   -1    0    0    0    0  0.00000000000E+00  0.00000000000E+00  0.45593999997E+02  0.45594000000E+02  0.51100000000E-03 0.  1.
         11   -1    0    0    0    0 -0.00000000000E+00 -0.00000000000E+00 -0.45593999997E+02  0.45594000000E+02  0.51100000000E-03 0. -1.
    9900012    2    1    2    0    0 -0.49429332932E+01 -0.19154473151E+02 -0.25007898680E+02  0.59301930508E+02  0.49999975344E+02 0.  0.
        -12    1    1    2    0    0  0.49429332932E+01  0.19154473151E+02  0.25007898680E+02  0.31886069492E+02  0.00000000000E+00 0.  1.
         11    1    3    3    0    0  0.67752019599E+01 -0.55913363238E+01 -0.22393253487E+02  0.24054608820E+02  0.51100000000E-03 0. -1.
        -11    1    3    3    0    0  0.42447021397E+01  0.44614762020E+01  0.69986115094E+01  0.93221687110E+01  0.51100000000E-03 0.  1.
         12    1    3    3    0    0 -0.15962837393E+02 -0.18024613029E+02 -0.96132567030E+01  0.25925152978E+02  0.00000000000E+00 0. -1.
</event>
<event>
 7    1  0.1284777E-011  0.5930196E+02  0.7816164E-02  0.1266605E+00
        -11   -1    0    0    0    0  0.00000000000E+00  0.00000000000E+00  0.45593999997E+02  0.45594000000E+02  0.51100000000E-03 0.  1.
         11   -1    0    0    0    0 -0.00000000000E+00 -0.00000000000E+00 -0.45593999997E+02  0.45594000000E+02  0.51100000000E-03 0. -1.
    9900012    2    1    2    0    0  0.23518077208E+02  0.10906119729E+02 -0.18565450093E+02  0.59301963239E+02  0.50000035038E+02 0.  0.
        -12    1    1    2    0    0 -0.23518077208E+02 -0.10906119729E+02  0.18565450093E+02  0.31886036761E+02  0.00000000000E+00 0.  1.
         11    1    3    3    0    0  0.14316824218E+02 -0.14683667359E+01  0.31142813130E+01  0.14725023087E+02  0.51100000000E-03 0.  1.
        -11    1    3    3    0    0 -0.53476267699E+01 -0.96269310924E+01 -0.99577309342E+00  0.11057417359E+02  0.51100000000E-03 0. -1.
         12    1    3    3    0    0  0.14548879760E+02  0.22001417557E+02 -0.20683958313E+02  0.33519522793E+02  0.00000000000E+00 0. -1.
</event>
<event>
 7    1  0.1284777E-011  0.5930195E+02  0.7816164E-02  0.1266605E+00
        -11   -1    0    0    0    0  0.00000000000E+00  0.00000000000E+00  0.45593999997E+02  0.45594000000E+02  0.51100000000E-03 0.  1.
         11   -1    0    0    0    0 -0.00000000000E+00 -0.00000000000E+00 -0.45593999997E+02  0.45594000000E+02  0.51100000000E-03 0. -1.
    9900012    2    1    2    0    0  0.60860883502E+01  0.28088434674E+02  0.13810114049E+02  0.59301954716E+02  0.50000019493E+02 0.  0.
        -12    1    1    2    0    0 -0.60860883502E+01 -0.28088434674E+02 -0.13810114049E+02  0.31886045284E+02  0.00000000000E+00 0.  1.
         11    1    3    3    0    0 -0.13951002334E+02  0.33286192614E+01  0.19471757579E+01  0.14474172377E+02  0.51100000000E-03 0. -1.
        -11    1    3    3    0    0  0.84722359355E+00  0.14999617942E+02  0.17007044937E+02  0.22692419527E+02  0.51100000000E-03 0.  1.
        -12    1    3    3    0    0  0.19189867091E+02  0.97601974702E+01 -0.51441066464E+01  0.22135362812E+02  0.00000000000E+00 0.  1.
</event>
<event>
 7    1  0.1284777E-011  0.5930194E+02  0.7816164E-02  0.1266605E+00
        -11   -1    0    0    0    0  0.00000000000E+00  0.00000000000E+00  0.45593999997E+02  0.45594000000E+02  0.51100000000E-03 0.  1.
         11   -1    0    0    0    0 -0.00000000000E+00 -0.00000000000E+00 -0.45593999997E+02  0.45594000000E+02  0.51100000000E-03 0. -1.
    9900012    2    1    2    0    0 -0.90187409558E+01 -0.18328987118E+02 -0.24483284143E+02  0.59301942551E+02  0.49999997307E+02 0.  0.
        -12    1    1    2    0    0  0.90187409558E+01  0.18328987118E+02  0.24483284143E+02  0.31886057449E+02  0.00000000000E+00 0.  1.
         11    1    3    3    0    0  0.43215674417E+01 -0.10037336929E+02 -0.39409368487E+01  0.11617016024E+02  0.51100000000E-03 0. -1.
        -11    1    3    3    0    0  0.73559581699E+01 -0.18475537263E+02 -0.10972506565E+02  0.22712364437E+02  0.51100000000E-03 0.  1.
         12    1    3    3    0    0 -0.20696266567E+02  0.10183887074E+02 -0.95698407294E+01  0.24972562090E+02  0.00000000000E+00 0. -1.
</event>
<event>
 7    1  0.1284777E-011  0.5930192E+02  0.7816164E-02  0.1266605E+00
        -11   -1    0    0    0    0  0.00000000000E+00  0.00000000000E+00  0.45593999997E+02  0.45594000000E+02  0.51100000000E-03 0.  1.
         11   -1    0    0    0    0 -0.00000000000E+00 -0.00000000000E+00 -0.45593999997E+02  0.45594000000E+02  0.51100000000E-03 0. -1.
    9900012    2    1    2    0    0  0.81678329681E+01 -0.85098448534E+01 -0.29624163443E+02  0.59301921306E+02  0.49999958560E+02 0.  0.
        -12    1    1    2    0    0 -0.81678329681E+01  0.85098448534E+01  0.29624163443E+02  0.31886078694E+02  0.00000000000E+00 0.  1.
         11    1    3    3    0    0  0.37440792449E+01 -0.16680421551E+02 -0.23462400505E+02  0.29029964351E+02  0.51100000000E-03 0. -1.
        -11    1    3    3    0    0 -0.39110530062E+01 -0.78571981610E+01 -0.83008009221E+01  0.12080364016E+02  0.51100000000E-03 0.  1.
        -12    1    3    3    0    0  0.83348067294E+01  0.16027774859E+02  0.21390379845E+01  0.18191592938E+02  0.00000000000E+00 0.  1.
</event>
<event>
 7    1  0.1284777E-011  0.5930192E+02  0.7816164E-02  0.1266605E+00
        -11   -1    0    0    0    0  0.00000000000E+00  0.00000000000E+00  0.45593999997E+02  0.45594000000E+02  0.51100000000E-03 0.  1.
         11   -1    0    0    0    0 -0.00000000000E+00 -0.00000000000E+00 -0.45593999997E+02  0.45594000000E+02  0.51100000000E-03 0. -1.
    9900012    2    1    2    0    0  0.22680853935E+02  0.23482399702E+01 -0.22288717197E+02  0.59301917135E+02  0.49999950954E+02 0.  0.
        -12    1    1    2    0    0 -0.22680853935E+02 -0.23482399702E+01  0.22288717197E+02  0.31886082865E+02  0.00000000000E+00 0.  1.
         11    1    3    3    0    0  0.32505979528E+01 -0.34072912130E+01 -0.31444135093E+01  0.56624515043E+01  0.51100000000E-03 0. -1.
        -11    1    3    3    0    0  0.16151797980E+02 -0.11947156327E+02  0.75324941900E+01  0.21455852145E+02  0.51100000000E-03 0.  1.
         12    1    3    3    0    0  0.32784580023E+01  0.17702687510E+02 -0.26676797878E+02  0.32183613485E+02  0.00000000000E+00 0. -1.
</event>
<event>
 7    1  0.1284777E-011  0.5930191E+02  0.7816164E-02  0.1266605E+00
        -11   -1    0    0    0    0  0.00000000000E+00  0.00000000000E+00  0.45593999997E+02  0.45594000000E+02  0.51100000000E-03 0. -1.
         11   -1    0    0    0    0 -0.00000000000E+00 -0.00000000000E+00 -0.45593999997E+02  0.45594000000E+02  0.51100000000E-03 0.  1.
    9900012    2    1    2    0    0 -0.16280107479E+02  0.27407430828E+02 -0.71649651394E+00  0.59301913200E+02  0.49999943778E+02 0.  0.
        -12    1    1    2    0    0  0.16280107479E+02 -0.27407430828E+02  0.71649651394E+00  0.31886086800E+02  0.00000000000E+00 0.  1.
         11    1    3    3    0    0 -0.46543744358E+00  0.52806060330E+00 -0.10322469985E+01  0.12494055153E+01  0.51100000000E-03 0. -1.
        -11    1    3    3    0    0  0.77216129601E+01  0.18409157319E+02 -0.18134625949E+02  0.26970076724E+02  0.51100000000E-03 0.  1.
         12    1    3    3    0    0 -0.23536282996E+02  0.84702129057E+01  0.18450376434E+02  0.31082430961E+02  0.00000000000E+00 0. -1.
</event>
<event>
 7    1  0.1284777E-011  0.5930197E+02  0.7816164E-02  0.1266605E+00
        -11   -1    0    0    0    0  0.00000000000E+00  0.00000000000E+00  0.45593999997E+02  0.45594000000E+02  0.51100000000E-03 0.  1.
         11   -1    0    0    0    0 -0.00000000000E+00 -0.00000000000E+00 -0.45593999997E+02  0.45594000000E+02  0.51100000000E-03 0. -1.
    9900012    2    1    2    0    0 -0.27451219007E+02 -0.41452154704E+01 -0.15683316617E+02  0.59301973964E+02  0.50000054597E+02 0.  0.
        -12    1    1    2    0    0  0.27451219007E+02  0.41452154704E+01  0.15683316617E+02  0.31886026036E+02  0.00000000000E+00 0.  1.
         11    1    3    3    0    0 -0.24996126356E+01  0.14861022359E+01  0.14450384596E+02  0.14740087463E+02  0.51100000000E-03 0.  1.
        -11    1    3    3    0    0 -0.58423606697E+01 -0.11130285624E+02 -0.84809665746E+01  0.15163879140E+02  0.51100000000E-03 0. -1.
        -12    1    3    3    0    0 -0.19109245701E+02  0.54989679180E+01 -0.21652734639E+02  0.29398007361E+02  0.00000000000E+00 0.  1.
</event>
<event>
 7    1  0.1284777E-011  0.5930195E+02  0.7816164E-02  0.1266605E+00
        -11   -1    0    0    0    0  0.00000000000E+00  0.00000000000E+00  0.45593999997E+02  0.45594000000E+02  0.51100000000E-03 0. -1.
         11   -1    0    0    0    0 -0.00000000000E+00 -0.00000000000E+00 -0.45593999997E+02  0.45594000000E+02  0.51100000000E-03 0.  1.
    9900012    2    1    2    0    0  0.10201789718E+02  0.18911503460E+02  0.23558411502E+02  0.59301949303E+02  0.50000009621E+02 0.  0.
        -12    1    1    2    0    0 -0.10201789718E+02 -0.18911503460E+02 -0.23558411502E+02  0.31886050697E+02  0.00000000000E+00 0.  1.
         11    1    3    3    0    0 -0.44793136858E+01  0.70629887779E+01  0.78336529343E+01  0.11459327211E+02  0.51100000000E-03 0. -1.
        -11    1    3    3    0    0  0.64134440257E+01 -0.11472438041E+02 -0.64285617854E+01  0.14631319345E+02  0.51100000000E-03 0.  1.
         12    1    3    3    0    0  0.82676593785E+01  0.23320952723E+02  0.22153320353E+02  0.33211302747E+02  0.00000000000E+00 0. -1.
</event>
<event>
 7    1  0.1284777E-011  0.5930168E+02  0.7816164E-02  0.1266606E+00
        -11   -1    0    0    0    0  0.00000000000E+00  0.00000000000E+00  0.45593999997E+02  0.45594000000E+02  0.51100000000E-03 0. -1.
         11   -1    0    0    0    0 -0.00000000000E+00 -0.00000000000E+00 -0.45593999997E+02  0.45594000000E+02  0.51100000000E-03 0.  1.
    9900012    2    1    2    0    0  0.24157502789E+02  0.18286994434E+02  0.99367285340E+01  0.59301675653E+02  0.49999510546E+02 0.  0.
        -12    1    1    2    0    0 -0.24157502789E+02 -0.18286994434E+02 -0.99367285340E+01  0.31886324347E+02  0.00000000000E+00 0.  1.
         11    1    3    3    0    0  0.28360659061E+02  0.49694311297E+01  0.14117534608E+02  0.32067538287E+02  0.51100000000E-03 0. -1.
        -11    1    3    3    0    0  0.46940771463E+01  0.11863371796E+02  0.55991880949E+01  0.13932869705E+02  0.51100000000E-03 0.  1.
        -12    1    3    3    0    0 -0.88972334182E+01  0.14541915090E+01 -0.97799941693E+01  0.13301267661E+02  0.00000000000E+00 0.  1.
</event>
<event>
 7    1  0.1284777E-011  0.5930193E+02  0.7816164E-02  0.1266605E+00
        -11   -1    0    0    0    0  0.00000000000E+00  0.00000000000E+00  0.45593999997E+02  0.45594000000E+02  0.51100000000E-03 0.  1.
         11   -1    0    0    0    0 -0.00000000000E+00 -0.00000000000E+00 -0.45593999997E+02  0.45594000000E+02  0.51100000000E-03 0. -1.
    9900012    2    1    2    0    0  0.22993051039E+02 -0.88358771536E+01 -0.20247667115E+02  0.59301934944E+02  0.49999983433E+02 0.  0.
        -12    1    1    2    0    0 -0.22993051039E+02  0.88358771536E+01  0.20247667115E+02  0.31886065056E+02  0.00000000000E+00 0.  1.
         11    1    3    3    0    0  0.42027088948E+01 -0.20219379608E+02 -0.11383619426E+02  0.23581197282E+02  0.51100000000E-03 0. -1.
        -11    1    3    3    0    0 -0.62216997991E+01  0.66969617886E+01 -0.18791639039E+01  0.93322078217E+01  0.51100000000E-03 0.  1.
        -12    1    3    3    0    0  0.25012041944E+02  0.46865406655E+01 -0.69848837858E+01  0.26388529840E+02  0.00000000000E+00 0.  1.
</event>
<event>
 7    1  0.1284777E-011  0.5930194E+02  0.7816164E-02  0.1266605E+00
        -11   -1    0    0    0    0  0.00000000000E+00  0.00000000000E+00  0.45593999997E+02  0.45594000000E+02  0.51100000000E-03 0. -1.
         11   -1    0    0    0    0 -0.00000000000E+00 -0.00000000000E+00 -0.45593999997E+02  0.45594000000E+02  0.51100000000E-03 0.  1.
    9900012    2    1    2    0    0  0.20546562152E+02  0.68767309986E+01  0.23393808940E+02  0.59301938120E+02  0.49999989226E+02 0.  0.
        -12    1    1    2    0    0 -0.20546562152E+02 -0.68767309986E+01 -0.23393808940E+02  0.31886061880E+02  0.00000000000E+00 0.  1.
         11    1    3    3    0    0  0.54956519730E+01  0.18795024981E+02  0.31615566283E+02  0.37188697023E+02  0.51100000000E-03 0. -1.
        -11    1    3    3    0    0 -0.66998702214E+00 -0.32062098437E+00  0.29807422065E+00  0.80033051147E+00  0.51100000000E-03 0.  1.
        -12    1    3    3    0    0  0.15720897201E+02 -0.11597672998E+02 -0.85198315637E+01  0.21312910586E+02  0.00000000000E+00 0.  1.
</event>
<event>
 7    1  0.1284777E-011  0.5930191E+02  0.7816164E-02  0.1266605E+00
        -11   -1    0    0    0    0  0.00000000000E+00  0.00000000000E+00  0.45593999997E+02  0.45594000000E+02  0.51100000000E-03 0. -1.
         11   -1    0    0    0    0 -0.00000000000E+00 -0.00000000000E+00 -0.45593999997E+02  0.45594000000E+02  0.51100000000E-03 0.  1.
    9900012    2    1    2    0    0  0.22729226026E+02 -0.72944786145E+01  0.21139905207E+02  0.59301910146E+02  0.49999938208E+02 0.  0.
        -12    1    1    2    0    0 -0.22729226026E+02  0.72944786145E+01 -0.21139905207E+02  0.31886089854E+02  0.00000000000E+00 0.  1.
         11    1    3    3    0    0  0.21725274992E+02 -0.10073102263E+02  0.94684881098E+01  0.25750868529E+02  0.51100000000E-03 0. -1.
        -11    1    3    3    0    0  0.10925169978E+02 -0.10316194142E+02  0.56845345664E+01  0.16065401773E+02  0.51100000000E-03 0.  1.
         12    1    3    3    0    0 -0.99212189440E+01  0.13094817791E+02  0.59868825311E+01  0.17485639844E+02  0.00000000000E+00 0. -1.
</event>
<event>
 7    1  0.1284777E-011  0.5930194E+02  0.7816164E-02  0.1266605E+00
        -11   -1    0    0    0    0  0.00000000000E+00  0.00000000000E+00  0.45593999997E+02  0.45594000000E+02  0.51100000000E-03 0.  1.
         11   -1    0    0    0    0 -0.00000000000E+00 -0.00000000000E+00 -0.45593999997E+02  0.45594000000E+02  0.51100000000E-03 0. -1.
    9900012    2    1    2    0    0 -0.17636532418E+02 -0.24890371851E+02 -0.92813211400E+01  0.59301940214E+02  0.49999993044E+02 0.  0.
        -12    1    1    2    0    0  0.17636532418E+02  0.24890371851E+02  0.92813211400E+01  0.31886059786E+02  0.00000000000E+00 0.  1.
         11    1    3    3    0    0 -0.59538779034E+01  0.14092551321E+00  0.51664558981E+01  0.78842113681E+01  0.51100000000E-03 0.  1.
        -11    1    3    3    0    0  0.52478674806E+01 -0.29893442479E+02 -0.32017052744E+01  0.30518992993E+02  0.51100000000E-03 0. -1.
         12    1    3    3    0    0 -0.16930521995E+02  0.48621451156E+01 -0.11246071764E+02  0.20898735853E+02  0.00000000000E+00 0. -1.
</event>
<event>
 7    1  0.1284777E-011  0.5930194E+02  0.7816164E-02  0.1266605E+00
        -11   -1    0    0    0    0  0.00000000000E+00  0.00000000000E+00  0.45593999997E+02  0.45594000000E+02  0.51100000000E-03 0.  1.
         11   -1    0    0    0    0 -0.00000000000E+00 -0.00000000000E+00 -0.45593999997E+02  0.45594000000E+02  0.51100000000E-03 0. -1.
    9900012    2    1    2    0    0  0.66486750835E+01  0.27157675588E+02 -0.15328956496E+02  0.59301935160E+02  0.49999983828E+02 0.  0.
        -12    1    1    2    0    0 -0.66486750835E+01 -0.27157675588E+02  0.15328956496E+02  0.31886064840E+02  0.00000000000E+00 0.  1.
         11    1    3    3    0    0 -0.80206599724E+01 -0.29914012463E+01 -0.73184289138E+01  0.11262276406E+02  0.51100000000E-03 0. -1.
        -11    1    3    3    0    0 -0.40001246405E+01 -0.56464651598E+01 -0.22047990073E+00  0.69233068391E+01  0.51100000000E-03 0.  1.
         12    1    3    3    0    0  0.18669459696E+02  0.35795541994E+02 -0.77900476820E+01  0.41116351916E+02  0.00000000000E+00 0. -1.
</event>
<event>
 7    1  0.1284777E-011  0.5930195E+02  0.7816164E-02  0.1266605E+00
        -11   -1    0    0    0    0  0.00000000000E+00  0.00000000000E+00  0.45593999997E+02  0.45594000000E+02  0.51100000000E-03 0.  1.
         11   -1    0    0    0    0 -0.00000000000E+00 -0.00000000000E+00 -0.45593999997E+02  0.45594000000E+02  0.51100000000E-03 0. -1.
    9900012    2    1    2    0    0 -0.17459098000E+02  0.23955935978E+02 -0.11747898698E+02  0.59301951400E+02  0.50000013444E+02 0.  0.
        -12    1    1    2    0    0  0.17459098000E+02 -0.23955935978E+02  0.11747898698E+02  0.31886048600E+02  0.00000000000E+00 0.  1.
         11    1    3    3    0    0 -0.17379978694E+02  0.15362495214E+02 -0.71442858884E+01  0.24271603567E+02  0.51100000000E-03 0. -1.
        -11    1    3    3    0    0 -0.14421785450E+02  0.13028212503E+02 -0.47896136652E+01  0.20016558543E+02  0.51100000000E-03 0.  1.
        -12    1    3    3    0    0  0.14342666144E+02 -0.44347717392E+01  0.18600085586E+00  0.15013789289E+02  0.00000000000E+00 0.  1.
</event>
<event>
 7    1  0.1284777E-011  0.5930196E+02  0.7816164E-02  0.1266605E+00
        -11   -1    0    0    0    0  0.00000000000E+00  0.00000000000E+00  0.45593999997E+02  0.45594000000E+02  0.51100000000E-03 0. -1.
         11   -1    0    0    0    0 -0.00000000000E+00 -0.00000000000E+00 -0.45593999997E+02  0.45594000000E+02  0.51100000000E-03 0.  1.
    9900012    2    1    2    0    0 -0.92685537638E+01 -0.27969238615E+02 -0.12187492005E+02  0.59301962947E+02  0.50000034504E+02 0.  0.
        -12    1    1    2    0    0  0.92685537638E+01  0.27969238615E+02  0.12187492005E+02  0.31886037053E+02  0.00000000000E+00 0.  1.
         11    1    3    3    0    0  0.39174140483E+01 -0.13299122287E+02 -0.13492370764E+02  0.19345719308E+02  0.51100000000E-03 0. -1.
        -11    1    3    3    0    0 -0.24135209862E+01 -0.24307004272E+02 -0.36051241351E+01  0.24691141337E+02  0.51100000000E-03 0.  1.
         12    1    3    3    0    0 -0.10772446826E+02  0.96368879448E+01  0.49100028938E+01  0.15265102302E+02  0.00000000000E+00 0. -1.
</event>
<event>
 7    1  0.1284777E-011  0.5930197E+02  0.7816164E-02  0.1266605E+00
        -11   -1    0    0    0    0  0.00000000000E+00  0.00000000000E+00  0.45593999997E+02  0.45594000000E+02  0.51100000000E-03 0.  1.
         11   -1    0    0    0    0 -0.00000000000E+00 -0.00000000000E+00 -0.45593999997E+02  0.45594000000E+02  0.51100000000E-03 0. -1.
    9900012    2    1    2    0    0  0.11056925363E+02 -0.26739594285E+02 -0.13396181503E+02  0.59301965755E+02  0.50000039625E+02 0.  0.
        -12    1    1    2    0    0 -0.11056925363E+02  0.26739594285E+02  0.13396181503E+02  0.31886034245E+02  0.00000000000E+00 0.  1.
         11    1    3    3    0    0 -0.86830408670E+01 -0.14125230696E+02 -0.40685747290E+01  0.17072511283E+02  0.51100000000E-03 0. -1.
        -11    1    3    3    0    0  0.16856537007E+02 -0.23225147640E+02 -0.11682766901E+02  0.30984469747E+02  0.51100000000E-03 0.  1.
        -12    1    3    3    0    0  0.28834292235E+01  0.10610784050E+02  0.23551601271E+01  0.11244984726E+02  0.00000000000E+00 0.  1.
</event>
<event>
 7    1  0.1284777E-011  0.5930192E+02  0.7816164E-02  0.1266605E+00
        -11   -1    0    0    0    0  0.00000000000E+00  0.00000000000E+00  0.45593999997E+02  0.45594000000E+02  0.51100000000E-03 0.  1.
         11   -1    0    0    0    0 -0.00000000000E+00 -0.00000000000E+00 -0.45593999997E+02  0.45594000000E+02  0.51100000000E-03 0. -1.
    9900012    2    1    2    0    0  0.22309571419E+02  0.22600926879E+02 -0.28640716751E+01  0.59301924994E+02  0.49999965287E+02 0.  0.
        -12    1    1    2    0    0 -0.22309571419E+02 -0.22600926879E+02  0.28640716751E+01  0.31886075006E+02  0.00000000000E+00 0.  1.
         11    1    3    3    0    0  0.16417862524E+02 -0.80642753232E+01 -0.34465488922E+01  0.18613367397E+02  0.51100000000E-03 0. -1.
        -11    1    3    3    0    0 -0.82693867375E+01  0.10996347664E+02 -0.68073388140E+01  0.15350644317E+02  0.51100000000E-03 0.  1.
        -12    1    3    3    0    0  0.14161095633E+02  0.19668854539E+02  0.73898160312E+01  0.25337913280E+02  0.00000000000E+00 0.  1.
</event>
<event>
 7    1  0.1284777E-011  0.5930193E+02  0.7816164E-02  0.1266605E+00
        -11   -1    0    0    0    0  0.00000000000E+00  0.00000000000E+00  0.45593999997E+02  0.45594000000E+02  0.51100000000E-03 0.  1.
         11   -1    0    0    0    0 -0.00000000000E+00 -0.00000000000E+00 -0.45593999997E+02  0.45594000000E+02  0.51100000000E-03 0. -1.
    9900012    2    1    2    0    0 -0.29087720779E+02 -0.34377106170E+00 -0.13057850699E+02  0.59301934963E+02  0.49999983468E+02 0.  0.
        -12    1    1    2    0    0  0.29087720779E+02  0.34377106170E+00  0.13057850699E+02  0.31886065037E+02  0.00000000000E+00 0.  1.
         11    1    3    3    0    0 -0.35918998701E+01 -0.43246460275E+00 -0.34966532067E+01  0.50314365959E+01  0.51100000000E-03 0. -1.
        -11    1    3    3    0    0 -0.24679497246E+02  0.13097351934E+02 -0.22523801932E+02  0.35887879093E+02  0.51100000000E-03 0.  1.
        -12    1    3    3    0    0 -0.81632366253E+00 -0.13008658393E+02  0.12962604440E+02  0.18382619274E+02  0.00000000000E+00 0.  1.
</event>
<event>
 7    1  0.1284777E-011  0.5930195E+02  0.7816164E-02  0.1266605E+00
        -11   -1    0    0    0    0  0.00000000000E+00  0.00000000000E+00  0.45593999997E+02  0.45594000000E+02  0.51100000000E-03 0.  1.
         11   -1    0    0    0    0 -0.00000000000E+00 -0.00000000000E+00 -0.45593999997E+02  0.45594000000E+02  0.51100000000E-03 0. -1.
    9900012    2    1    2    0    0  0.21691199614E+02  0.74392991474E+01 -0.22155566659E+02  0.59301945894E+02  0.50000003403E+02 0.  0.
        -12    1    1    2    0    0 -0.21691199614E+02 -0.74392991474E+01  0.22155566659E+02  0.31886054106E+02  0.00000000000E+00 0.  1.
         11    1    3    3    0    0  0.18913528989E+02 -0.65116597176E+00 -0.18980641620E+02  0.26803178030E+02  0.51100000000E-03 0. -1.
        -11    1    3    3    0    0  0.11702463706E+02 -0.67934562657E+01 -0.61970901459E+01  0.14882964468E+02  0.51100000000E-03 0.  1.
         12    1    3    3    0    0 -0.89247930814E+01  0.14883921385E+02  0.30221651069E+01  0.17615803396E+02  0.00000000000E+00 0. -1.
</event>
<event>
 7    1  0.1284777E-011  0.5930192E+02  0.7816164E-02  0.1266605E+00
        -11   -1    0    0    0    0  0.00000000000E+00  0.00000000000E+00  0.45593999997E+02  0.45594000000E+02  0.51100000000E-03 0.  1.
         11   -1    0    0    0    0 -0.00000000000E+00 -0.00000000000E+00 -0.45593999997E+02  0.45594000000E+02  0.51100000000E-03 0. -1.
    9900012    2    1    2    0    0  0.95183200389E+01  0.67083518462E+01 -0.29683689174E+02  0.59301924609E+02  0.49999964586E+02 0.  0.
        -12    1    1    2    0    0 -0.95183200389E+01 -0.67083518462E+01  0.29683689174E+02  0.31886075391E+02  0.00000000000E+00 0.  1.
         11    1    3    3    0    0 -0.79723887081E+01  0.15835412539E+02  0.40191155968E+01  0.18178904324E+02  0.51100000000E-03 0.  1.
        -11    1    3    3    0    0  0.43980640533E+01 -0.63468358233E+01 -0.22097418338E+02  0.23407716460E+02  0.51100000000E-03 0. -1.
        -12    1    3    3    0    0  0.13092644694E+02 -0.27802248692E+01 -0.11605386432E+02  0.17715303826E+02  0.00000000000E+00 0.  1.
</event>
<event>
 7    1  0.1284777E-011  0.5930196E+02  0.7816164E-02  0.1266605E+00
        -11   -1    0    0    0    0  0.00000000000E+00  0.00000000000E+00  0.45593999997E+02  0.45594000000E+02  0.51100000000E-03 0. -1.
         11   -1    0    0    0    0 -0.00000000000E+00 -0.00000000000E+00 -0.45593999997E+02  0.45594000000E+02  0.51100000000E-03 0.  1.
    9900012    2    1    2    0    0  0.19311377405E+02 -0.19537207095E+02  0.16189122558E+02  0.59301961558E+02  0.50000031970E+02 0.  0.
        -12    1    1    2    0    0 -0.19311377405E+02  0.19537207095E+02 -0.16189122558E+02  0.31886038442E+02  0.00000000000E+00 0.  1.
         11    1    3    3    0    0  0.14774864956E+01  0.49398803203E+01 -0.63618458987E+01  0.81889234594E+01  0.51100000000E-03 0. -1.
        -11    1    3    3    0    0  0.22293594234E+02 -0.99944311340E+01  0.59915948080E+00  0.24438739532E+02  0.51100000000E-03 0.  1.
         12    1    3    3    0    0 -0.44597033245E+01 -0.14482656281E+02  0.21951808976E+02  0.26674298566E+02  0.00000000000E+00 0. -1.
</event>
<event>
 7    1  0.1284777E-011  0.5930195E+02  0.7816164E-02  0.1266605E+00
        -11   -1    0    0    0    0  0.00000000000E+00  0.00000000000E+00  0.45593999997E+02  0.45594000000E+02  0.51100000000E-03 0. -1.
         11   -1    0    0    0    0 -0.00000000000E+00 -0.00000000000E+00 -0.45593999997E+02  0.45594000000E+02  0.51100000000E-03 0.  1.
    9900012    2    1    2    0    0 -0.22914932266E+02 -0.20567446684E+02  0.82828809456E+01  0.59301951317E+02  0.50000013294E+02 0.  0.
        -12    1    1    2    0    0  0.22914932266E+02  0.20567446684E+02 -0.82828809456E+01  0.31886048683E+02  0.00000000000E+00 0.  1.
         11    1    3    3    0    0 -0.39436829722E+01  0.20402281354E+01  0.70545514348E+00  0.44958684868E+01  0.51100000000E-03 0. -1.
        -11    1    3    3    0    0 -0.14795586428E+02  0.10995410723E+02  0.97900887948E+01  0.20872332730E+02  0.51100000000E-03 0.  1.
         12    1    3    3    0    0 -0.41756628666E+01 -0.33603085542E+02 -0.22126629927E+01  0.33933750100E+02  0.00000000000E+00 0. -1.
</event>
<event>
 7    1  0.1284777E-011  0.5930193E+02  0.7816164E-02  0.1266605E+00
        -11   -1    0    0    0    0  0.00000000000E+00  0.00000000000E+00  0.45593999997E+02  0.45594000000E+02  0.51100000000E-03 0. -1.
         11   -1    0    0    0    0 -0.00000000000E+00 -0.00000000000E+00 -0.45593999997E+02  0.45594000000E+02  0.51100000000E-03 0.  1.
    9900012    2    1    2    0    0 -0.18948497521E+02 -0.11812913483E+02  0.22762490138E+02  0.59301930306E+02  0.49999974974E+02 0.  0.
        -12    1    1    2    0    0  0.18948497521E+02  0.11812913483E+02 -0.22762490138E+02  0.31886069694E+02  0.00000000000E+00 0.  1.
         11    1    3    3    0    0 -0.11392923484E+02 -0.39604616064E+01  0.30084965577E+02  0.32412792470E+02  0.51100000000E-03 0. -1.
        -11    1    3    3    0    0 -0.12085822721E+01  0.35827163057E+01  0.67130724751E+01  0.77046654407E+01  0.51100000000E-03 0.  1.
        -12    1    3    3    0    0 -0.63469917649E+01 -0.11435168182E+02 -0.14035547914E+02  0.19184472395E+02  0.00000000000E+00 0.  1.
</event>
<event>
 7    1  0.1284777E-011  0.5930189E+02  0.7816164E-02  0.1266605E+00
        -11   -1    0    0    0    0  0.00000000000E+00  0.00000000000E+00  0.45593999997E+02  0.45594000000E+02  0.51100000000E-03 0.  1.
         11   -1    0    0    0    0 -0.00000000000E+00 -0.00000000000E+00 -0.45593999997E+02  0.45594000000E+02  0.51100000000E-03 0. -1.
    9900012    2    1    2    0    0  0.11145378858E+02 -0.22129157130E+02 -0.20069994102E+02  0.59301894430E+02  0.49999909545E+02 0.  0.
        -12    1    1    2    0    0 -0.11145378858E+02  0.22129157130E+02  0.20069994102E+02  0.31886105570E+02  0.00000000000E+00 0.  1.
         11    1    3    3    0    0 -0.60542170334E+01  0.90144671051E+01 -0.14599837976E+02  0.18195313415E+02  0.51100000000E-03 0. -1.
        -11    1    3    3    0    0 -0.27869381300E+01 -0.15022956959E+01 -0.42967500648E+01  0.53372256724E+01  0.51100000000E-03 0.  1.
         12    1    3    3    0    0  0.19986534022E+02 -0.29641328540E+02 -0.11734060606E+01  0.35769355342E+02  0.00000000000E+00 0. -1.
</event>
<event>
 7    1  0.1284777E-011  0.5930196E+02  0.7816164E-02  0.1266605E+00
        -11   -1    0    0    0    0  0.00000000000E+00  0.00000000000E+00  0.45593999997E+02  0.45594000000E+02  0.51100000000E-03 0. -1.
         11   -1    0    0    0    0 -0.00000000000E+00 -0.00000000000E+00 -0.45593999997E+02  0.45594000000E+02  0.51100000000E-03 0.  1.
    9900012    2    1    2    0    0 -0.17350812671E+02 -0.20593279886E+02  0.17075887998E+02  0.59301955596E+02  0.50000021097E+02 0.  0.
        -12    1    1    2    0    0  0.17350812671E+02  0.20593279886E+02 -0.17075887998E+02  0.31886044404E+02  0.00000000000E+00 0.  1.
         11    1    3    3    0    0 -0.12310970327E+02 -0.27192371963E+02  0.16145640994E+02  0.33936216742E+02  0.51100000000E-03 0. -1.
        -11    1    3    3    0    0  0.47228563590E+00 -0.86649636714E+01 -0.19221210359E+01  0.88881493398E+01  0.51100000000E-03 0.  1.
        -12    1    3    3    0    0 -0.55121279806E+01  0.15264055748E+02  0.28523680396E+01  0.16477589514E+02  0.00000000000E+00 0.  1.
</event>
<event>
 7    1  0.1447933E-011  0.5930194E+02  0.7816164E-02  0.1266605E+00
        -11   -1    0    0    0    0  0.00000000000E+00  0.00000000000E+00  0.45593999997E+02  0.45594000000E+02  0.51100000000E-03 0. -1.
         11   -1    0    0    0    0 -0.00000000000E+00 -0.00000000000E+00 -0.45593999997E+02  0.45594000000E+02  0.51100000000E-03 0.  1.
    9900012    2    1    2    0    0 -0.26773093717E+02  0.72435053333E+01  0.15730676847E+02  0.59301935477E+02  0.49999984406E+02 0.  0.
        -12    1    1    2    0    0  0.26773093717E+02 -0.72435053333E+01 -0.15730676847E+02  0.31886064523E+02  0.00000000000E+00 0.  1.
         11    1    3    3    0    0  0.26693040492E+01 -0.62174362315E+01  0.72282042131E+01  0.99009410567E+01  0.51100000000E-03 0. -1.
        -11    1    3    3    0    0  0.27981749188E+01 -0.82694396324E+01 -0.23384067436E+01  0.90377851861E+01  0.51100000000E-03 0.  1.
         12    1    3    3    0    0 -0.32240572685E+02  0.21730381197E+02  0.10840879378E+02  0.40363209234E+02  0.00000000000E+00 0. -1.
</event>
<event>
 7    1  0.1284777E-011  0.5930192E+02  0.7816164E-02  0.1266605E+00
        -11   -1    0    0    0    0  0.00000000000E+00  0.00000000000E+00  0.45593999997E+02  0.45594000000E+02  0.51100000000E-03 0.  1.
         11   -1    0    0    0    0 -0.00000000000E+00 -0.00000000000E+00 -0.45593999997E+02  0.45594000000E+02  0.51100000000E-03 0. -1.
    9900012    2    1    2    0    0 -0.23602109612E+02 -0.20171071463E+02 -0.72657096988E+01  0.59301917777E+02  0.49999952125E+02 0.  0.
        -12    1    1    2    0    0  0.23602109612E+02  0.20171071463E+02  0.72657096988E+01  0.31886082223E+02  0.00000000000E+00 0.  1.
         11    1    3    3    0    0  0.45908376351E+00 -0.80603180570E+01 -0.18129249248E+02  0.19845633364E+02  0.51100000000E-03 0. -1.
        -11    1    3    3    0    0  0.19141327498E+01 -0.63969211391E+01 -0.51310564847E+01  0.84209408711E+01  0.51100000000E-03 0.  1.
        -12    1    3    3    0    0 -0.25975326125E+02 -0.57138322671E+01  0.15994596034E+02  0.31035343542E+02  0.00000000000E+00 0.  1.
</event>
<event>
 7    1  0.1284777E-011  0.5930195E+02  0.7816164E-02  0.1266605E+00
        -11   -1    0    0    0    0  0.00000000000E+00  0.00000000000E+00  0.45593999997E+02  0.45594000000E+02  0.51100000000E-03 0.  1.
         11   -1    0    0    0    0 -0.00000000000E+00 -0.00000000000E+00 -0.45593999997E+02  0.45594000000E+02  0.51100000000E-03 0. -1.
    9900012    2    1    2    0    0 -0.48302568780E+01 -0.25541415292E+02  0.18466867567E+02  0.59301945457E+02  0.50000002606E+02 0.  0.
        -12    1    1    2    0    0  0.48302568780E+01  0.25541415292E+02 -0.18466867567E+02  0.31886054543E+02  0.00000000000E+00 0.  1.
         11    1    3    3    0    0  0.87927587802E+01  0.87134877092E+01 -0.27843909696E+01  0.12688195631E+02  0.51100000000E-03 0. -1.
        -11    1    3    3    0    0 -0.27290732958E+01 -0.15069964956E+02 -0.91115287289E+00  0.15342160365E+02  0.51100000000E-03 0.  1.
        -12    1    3    3    0    0 -0.10893942362E+02 -0.19184938045E+02  0.22162411409E+02  0.31271589462E+02  0.00000000000E+00 0.  1.
</event>
<event>
 7    1  0.1284777E-011  0.5930195E+02  0.7816164E-02  0.1266605E+00
        -11   -1    0    0    0    0  0.00000000000E+00  0.00000000000E+00  0.45593999997E+02  0.45594000000E+02  0.51100000000E-03 0.  1.
         11   -1    0    0    0    0 -0.00000000000E+00 -0.00000000000E+00 -0.45593999997E+02  0.45594000000E+02  0.51100000000E-03 0. -1.
    9900012    2    1    2    0    0 -0.17852420776E+02  0.26402853285E+02  0.94896153591E+00  0.59301951057E+02  0.50000012820E+02 0.  0.
        -12    1    1    2    0    0  0.17852420776E+02 -0.26402853285E+02 -0.94896153591E+00  0.31886048943E+02  0.00000000000E+00 0.  1.
         11    1    3    3    0    0 -0.50315476943E+01  0.24166040273E+02 -0.61358144139E+01  0.25435451509E+02  0.51100000000E-03 0. -1.
        -11    1    3    3    0    0  0.67887510857E+01  0.62689320019E+01  0.10022525186E+02  0.13632228765E+02  0.51100000000E-03 0.  1.
        -12    1    3    3    0    0 -0.19609624168E+02 -0.40321189897E+01 -0.29377492358E+01  0.20234270783E+02  0.00000000000E+00 0.  1.
</event>
<event>
 7    1  0.1284777E-011  0.5930194E+02  0.7816164E-02  0.1266605E+00
        -11   -1    0    0    0    0  0.00000000000E+00  0.00000000000E+00  0.45593999997E+02  0.45594000000E+02  0.51100000000E-03 0. -1.
         11   -1    0    0    0    0 -0.00000000000E+00 -0.00000000000E+00 -0.45593999997E+02  0.45594000000E+02  0.51100000000E-03 0.  1.
    9900012    2    1    2    0    0 -0.29597637413E+02  0.88560232502E+01  0.78912487447E+01  0.59301935725E+02  0.49999984857E+02 0.  0.
        -12    1    1    2    0    0  0.29597637413E+02 -0.88560232502E+01 -0.78912487447E+01  0.31886064275E+02  0.00000000000E+00 0.  1.
         11    1    3    3    0    0 -0.95995693954E+00  0.24382397163E+01  0.85281858190E+00  0.27556904824E+01  0.51100000000E-03 0. -1.
        -11    1    3    3    0    0  0.12382030041E+02  0.84978073544E+01  0.12780665410E+01  0.15071856293E+02  0.51100000000E-03 0.  1.
         12    1    3    3    0    0 -0.41019710514E+02 -0.20800238205E+01  0.57603636218E+01  0.41474388950E+02  0.00000000000E+00 0. -1.
</event>
<event>
 7    1  0.1284777E-011  0.5930197E+02  0.7816164E-02  0.1266605E+00
        -11   -1    0    0    0    0  0.00000000000E+00  0.00000000000E+00  0.45593999997E+02  0.45594000000E+02  0.51100000000E-03 0. -1.
         11   -1    0    0    0    0 -0.00000000000E+00 -0.00000000000E+00 -0.45593999997E+02  0.45594000000E+02  0.51100000000E-03 0.  1.
    9900012    2    1    2    0    0  0.25783526491E+02 -0.45952708818E+01  0.18188241952E+02  0.59301970173E+02  0.50000047683E+02 0.  0.
        -12    1    1    2    0    0 -0.25783526491E+02  0.45952708818E+01 -0.18188241952E+02  0.31886029827E+02  0.00000000000E+00 0.  1.
         11    1    3    3    0    0  0.59712368459E+01  0.18651120943E+02 -0.23641671439E+01  0.19725852794E+02  0.51100000000E-03 0. -1.
        -11    1    3    3    0    0  0.52521929384E+00 -0.97717556253E+01  0.92839043334E+01  0.13489030478E+02  0.51100000000E-03 0.  1.
        -12    1    3    3    0    0  0.19287070351E+02 -0.13474636199E+02  0.11268504762E+02  0.26087086902E+02  0.00000000000E+00 0.  1.
</event>
<event>
 7    1  0.1284777E-011  0.5930194E+02  0.7816164E-02  0.1266605E+00
        -11   -1    0    0    0    0  0.00000000000E+00  0.00000000000E+00  0.45593999997E+02  0.45594000000E+02  0.51100000000E-03 0.  1.
         11   -1    0    0    0    0 -0.00000000000E+00 -0.00000000000E+00 -0.45593999997E+02  0.45594000000E+02  0.51100000000E-03 0. -1.
    9900012    2    1    2    0    0  0.10506184996E+02  0.59594190296E+01 -0.29509764896E+02  0.59301939997E+02  0.49999992649E+02 0.  0.
        -12    1    1    2    0    0 -0.10506184996E+02 -0.59594190296E+01  0.29509764896E+02  0.31886060003E+02  0.00000000000E+00 0.  1.
         11    1    3    3    0    0  0.50384892398E+01  0.16726206563E+01 -0.28632541840E+02  0.29120550925E+02  0.51100000000E-03 0. -1.
        -11    1    3    3    0    0 -0.10259771941E+02  0.73988226893E+00  0.67933611659E+01  0.12327209832E+02  0.51100000000E-03 0.  1.
         12    1    3    3    0    0  0.15727467697E+02  0.35469161044E+01 -0.76705842214E+01  0.17854179239E+02  0.00000000000E+00 0. -1.
</event>
<event>
 7    1  0.1284777E-011  0.5930194E+02  0.7816164E-02  0.1266605E+00
        -11   -1    0    0    0    0  0.00000000000E+00  0.00000000000E+00  0.45593999997E+02  0.45594000000E+02  0.51100000000E-03 0.  1.
         11   -1    0    0    0    0 -0.00000000000E+00 -0.00000000000E+00 -0.45593999997E+02  0.45594000000E+02  0.51100000000E-03 0. -1.
    9900012    2    1    2    0    0  0.73979273354E+01  0.22909955017E+02 -0.20907546399E+02  0.59301939344E+02  0.49999991458E+02 0.  0.
        -12    1    1    2    0    0 -0.73979273354E+01 -0.22909955017E+02  0.20907546399E+02  0.31886060656E+02  0.00000000000E+00 0.  1.
         11    1    3    3    0    0 -0.68071850544E+01  0.44607686310E+01 -0.11244129680E+02  0.13880442272E+02  0.51100000000E-03 0. -1.
        -11    1    3    3    0    0 -0.17230888818E+01  0.57406745874E+01 -0.21182512784E+02  0.22014159718E+02  0.51100000000E-03 0.  1.
        -12    1    3    3    0    0  0.15928201272E+02  0.12708511798E+02  0.11519096064E+02  0.23407337354E+02  0.00000000000E+00 0.  1.
</event>
<event>
 7    1  0.1284777E-011  0.5930194E+02  0.7816164E-02  0.1266605E+00
        -11   -1    0    0    0    0  0.00000000000E+00  0.00000000000E+00  0.45593999997E+02  0.45594000000E+02  0.51100000000E-03 0. -1.
         11   -1    0    0    0    0 -0.00000000000E+00 -0.00000000000E+00 -0.45593999997E+02  0.45594000000E+02  0.51100000000E-03 0.  1.
    9900012    2    1    2    0    0 -0.15585750548E+02 -0.21081006725E+02  0.18149288047E+02  0.59301935312E+02  0.49999984104E+02 0.  0.
        -12    1    1    2    0    0  0.15585750548E+02  0.21081006725E+02 -0.18149288047E+02  0.31886064688E+02  0.00000000000E+00 0.  1.
         11    1    3    3    0    0  0.59786168240E+01 -0.61759651880E+01 -0.25973066242E+01  0.89795549496E+01  0.51100000000E-03 0.  1.
        -11    1    3    3    0    0  0.10546305771E+02 -0.57237506465E+01  0.86887787533E+01  0.14814883170E+02  0.51100000000E-03 0. -1.
         12    1    3    3    0    0 -0.32110673143E+02 -0.91812908907E+01  0.12057815918E+02  0.35507497191E+02  0.00000000000E+00 0. -1.
</event>
<event>
 7    1  0.1284777E-011  0.5930196E+02  0.7816164E-02  0.1266605E+00
        -11   -1    0    0    0    0  0.00000000000E+00  0.00000000000E+00  0.45593999997E+02  0.45594000000E+02  0.51100000000E-03 0. -1.
         11   -1    0    0    0    0 -0.00000000000E+00 -0.00000000000E+00 -0.45593999997E+02  0.45594000000E+02  0.51100000000E-03 0.  1.
    9900012    2    1    2    0    0  0.17027904705E+02  0.23129099507E+00  0.26957679327E+02  0.59301960596E+02  0.50000030217E+02 0.  0.
        -12    1    1    2    0    0 -0.17027904705E+02 -0.23129099507E+00 -0.26957679327E+02  0.31886039404E+02  0.00000000000E+00 0.  1.
         11    1    3    3    0    0  0.14054755189E+01 -0.64113737190E+01  0.22358346763E+02  0.23301861399E+02  0.51100000000E-03 0. -1.
        -11    1    3    3    0    0 -0.56705935847E+01  0.10802518609E+02  0.71723834520E+01  0.14152495347E+02  0.51100000000E-03 0.  1.
         12    1    3    3    0    0  0.21293022771E+02 -0.41598538945E+01 -0.25730508887E+01  0.21847603851E+02  0.00000000000E+00 0. -1.
</event>
<event>
 7    1  0.1284777E-011  0.5930192E+02  0.7816164E-02  0.1266605E+00
        -11   -1    0    0    0    0  0.00000000000E+00  0.00000000000E+00  0.45593999997E+02  0.45594000000E+02  0.51100000000E-03 0.  1.
         11   -1    0    0    0    0 -0.00000000000E+00 -0.00000000000E+00 -0.45593999997E+02  0.45594000000E+02  0.51100000000E-03 0. -1.
    9900012    2    1    2    0    0  0.20872223768E+02  0.66294015050E+01 -0.23175927810E+02  0.59301916528E+02  0.49999949847E+02 0.  0.
        -12    1    1    2    0    0 -0.20872223768E+02 -0.66294015050E+01  0.23175927810E+02  0.31886083472E+02  0.00000000000E+00 0.  1.
         11    1    3    3    0    0 -0.14234399315E+02  0.23431050278E+01 -0.10913314448E+02  0.18088910900E+02  0.51100000000E-03 0. -1.
        -11    1    3    3    0    0 -0.16070302871E+00  0.34839129218E+01 -0.33324804409E+01  0.48237849103E+01  0.51100000000E-03 0.  1.
        -12    1    3    3    0    0  0.35267326112E+02  0.80238355538E+00 -0.89301329216E+01  0.36389220718E+02  0.00000000000E+00 0.  1.
</event>
<event>
 7    1  0.1284777E-011  0.5930194E+02  0.7816164E-02  0.1266605E+00
        -11   -1    0    0    0    0  0.00000000000E+00  0.00000000000E+00  0.45593999997E+02  0.45594000000E+02  0.51100000000E-03 0. -1.
         11   -1    0    0    0    0 -0.00000000000E+00 -0.00000000000E+00 -0.45593999997E+02  0.45594000000E+02  0.51100000000E-03 0.  1.
    9900012    2    1    2    0    0 -0.80303550831E+01  0.28082838859E+02  0.12790167872E+02  0.59301939796E+02  0.49999992282E+02 0.  0.
        -12    1    1    2    0    0  0.80303550831E+01 -0.28082838859E+02 -0.12790167872E+02  0.31886060204E+02  0.00000000000E+00 0.  1.
         11    1    3    3    0    0  0.49875699870E+01  0.46396692404E+01 -0.76214103880E+01  0.10221950968E+02  0.51100000000E-03 0. -1.
        -11    1    3    3    0    0 -0.13316329972E+02  0.20234645877E+02 -0.39178999728E+01  0.24538041449E+02  0.51100000000E-03 0.  1.
         12    1    3    3    0    0  0.29840490193E+00  0.32085237422E+01  0.24329478232E+02  0.24541947379E+02  0.00000000000E+00 0. -1.
</event>
<event>
 7    1  0.1284777E-011  0.5930196E+02  0.7816164E-02  0.1266605E+00
        -11   -1    0    0    0    0  0.00000000000E+00  0.00000000000E+00  0.45593999997E+02  0.45594000000E+02  0.51100000000E-03 0. -1.
         11   -1    0    0    0    0 -0.00000000000E+00 -0.00000000000E+00 -0.45593999997E+02  0.45594000000E+02  0.51100000000E-03 0.  1.
    9900012    2    1    2    0    0  0.59388899677E+01 -0.38924824231E+01  0.31085330838E+02  0.59301958747E+02  0.50000026845E+02 0.  0.
        -12    1    1    2    0    0 -0.59388899677E+01  0.38924824231E+01 -0.31085330838E+02  0.31886041253E+02  0.00000000000E+00 0.  1.
         11    1    3    3    0    0 -0.13283733329E+00  0.13801054662E+01  0.12659043374E+02  0.12734744452E+02  0.51100000000E-03 0. -1.
        -11    1    3    3    0    0 -0.10536531403E+02 -0.17156640503E+02  0.16543007379E+02  0.26058394056E+02  0.51100000000E-03 0.  1.
         12    1    3    3    0    0  0.16608258704E+02  0.11884052614E+02  0.18832800847E+01  0.20508820239E+02  0.00000000000E+00 0. -1.
</event>
<event>
 7    1  0.1720549E-011  0.5930171E+02  0.7816164E-02  0.1266606E+00
        -11   -1    0    0    0    0  0.00000000000E+00  0.00000000000E+00  0.45593999997E+02  0.45594000000E+02  0.51100000000E-03 0. -1.
         11   -1    0    0    0    0 -0.00000000000E+00 -0.00000000000E+00 -0.45593999997E+02  0.45594000000E+02  0.51100000000E-03 0.  1.
    9900012    2    1    2    0    0  0.19913168645E+02  0.68061524858E+01  0.23955741624E+02  0.59301708997E+02  0.49999571359E+02 0.  0.
        -12    1    1    2    0    0 -0.19913168645E+02 -0.68061524858E+01 -0.23955741624E+02  0.31886291003E+02  0.00000000000E+00 0.  1.
         11    1    3    3    0    0  0.45572511445E+01 -0.29419234744E+01  0.25224402620E+00  0.54302006439E+01  0.51100000000E-03 0. -1.
        -11    1    3    3    0    0  0.12930694236E+02  0.33037656141E+01 -0.11734233460E+02  0.17771042620E+02  0.51100000000E-03 0.  1.
         12    1    3    3    0    0  0.24252232654E+01  0.64443103462E+01  0.35437731057E+02  0.36100465734E+02  0.00000000000E+00 0. -1.
</event>
<event>
 7    1  0.1284777E-011  0.5930196E+02  0.7816164E-02  0.1266605E+00
        -11   -1    0    0    0    0  0.00000000000E+00  0.00000000000E+00  0.45593999997E+02  0.45594000000E+02  0.51100000000E-03 0. -1.
         11   -1    0    0    0    0 -0.00000000000E+00 -0.00000000000E+00 -0.45593999997E+02  0.45594000000E+02  0.51100000000E-03 0.  1.
    9900012    2    1    2    0    0 -0.31331786997E+02 -0.67702435432E+00  0.58804873816E+01  0.59301962770E+02  0.50000034182E+02 0.  0.
        -12    1    1    2    0    0  0.31331786997E+02  0.67702435432E+00 -0.58804873816E+01  0.31886037230E+02  0.00000000000E+00 0.  1.
         11    1    3    3    0    0 -0.20658348337E+02 -0.61052552005E+01 -0.14721518178E+02  0.26091465938E+02  0.51100000000E-03 0. -1.
        -11    1    3    3    0    0  0.24888764070E+00  0.12574129033E+02  0.71497203446E+01  0.14466829896E+02  0.51100000000E-03 0.  1.
        -12    1    3    3    0    0 -0.10922326300E+02 -0.71458981863E+01  0.13452285215E+02  0.18743666936E+02  0.00000000000E+00 0.  1.
</event>
<event>
 7    1  0.1284777E-011  0.5930194E+02  0.7816164E-02  0.1266605E+00
        -11   -1    0    0    0    0  0.00000000000E+00  0.00000000000E+00  0.45593999997E+02  0.45594000000E+02  0.51100000000E-03 0.  1.
         11   -1    0    0    0    0 -0.00000000000E+00 -0.00000000000E+00 -0.45593999997E+02  0.45594000000E+02  0.51100000000E-03 0. -1.
    9900012    2    1    2    0    0  0.23530759202E+02  0.21513279891E+02 -0.45062585710E+00  0.59301938720E+02  0.49999990320E+02 0.  0.
        -12    1    1    2    0    0 -0.23530759202E+02 -0.21513279891E+02  0.45062585710E+00  0.31886061280E+02  0.00000000000E+00 0.  1.
         11    1    3    3    0    0  0.64210695209E+01  0.10496453393E+02 -0.13981273528E+02  0.18624759793E+02  0.51100000000E-03 0. -1.
        -11    1    3    3    0    0 -0.69888932867E+01  0.12350043529E+02  0.41742841299E+01  0.14791648076E+02  0.51100000000E-03 0.  1.
         12    1    3    3    0    0  0.24098582968E+02 -0.13332170320E+01  0.93563635407E+01  0.25885530851E+02  0.00000000000E+00 0. -1.
</event>
<event>
 7    1  0.1284777E-011  0.5930197E+02  0.7816164E-02  0.1266605E+00
        -11   -1    0    0    0    0  0.00000000000E+00  0.00000000000E+00  0.45593999997E+02  0.45594000000E+02  0.51100000000E-03 0.  1.
         11   -1    0    0    0    0 -0.00000000000E+00 -0.00000000000E+00 -0.45593999997E+02  0.45594000000E+02  0.51100000000E-03 0. -1.
    9900012    2    1    2    0    0  0.59439170845E+01 -0.12455132245E+02 -0.28744711955E+02  0.59301969595E+02  0.50000046629E+02 0.  0.
        -12    1    1    2    0    0 -0.59439170845E+01  0.12455132245E+02  0.28744711955E+02  0.31886030405E+02  0.00000000000E+00 0.  1.
         11    1    3    3    0    0 -0.27466737436E+01  0.60023126216E+01 -0.26323755171E+02  0.27138755683E+02  0.51100000000E-03 0. -1.
        -11    1    3    3    0    0  0.11075244097E+01 -0.74306552338E+01 -0.13060181542E+02  0.15066837415E+02  0.51100000000E-03 0.  1.
        -12    1    3    3    0    0  0.75830664184E+01 -0.11026789633E+02  0.10639224757E+02  0.17096376498E+02  0.00000000000E+00 0.  1.
</event>
<event>
 7    1  0.1284777E-011  0.5930194E+02  0.7816164E-02  0.1266605E+00
        -11   -1    0    0    0    0  0.00000000000E+00  0.00000000000E+00  0.45593999997E+02  0.45594000000E+02  0.51100000000E-03 0.  1.
         11   -1    0    0    0    0 -0.00000000000E+00 -0.00000000000E+00 -0.45593999997E+02  0.45594000000E+02  0.51100000000E-03 0. -1.
    9900012    2    1    2    0    0 -0.40662129169E+01  0.31177805630E+02  0.53038904637E+01  0.59301938697E+02  0.49999990278E+02 0.  0.
        -12    1    1    2    0    0  0.40662129169E+01 -0.31177805630E+02 -0.53038904637E+01  0.31886061303E+02  0.00000000000E+00 0.  1.
         11    1    3    3    0    0 -0.48049304810E+00  0.16407699926E+00 -0.55769555190E+01  0.56000203529E+01  0.51100000000E-03 0. -1.
        -11    1    3    3    0    0  0.14158975043E+02  0.31732903556E+02  0.57911101399E+01  0.35227697900E+02  0.51100000000E-03 0.  1.
         12    1    3    3    0    0 -0.17744694912E+02 -0.71917492599E+00  0.50897358427E+01  0.18474220445E+02  0.00000000000E+00 0. -1.
</event>
<event>
 7    1  0.1284777E-011  0.5930196E+02  0.7816164E-02  0.1266605E+00
        -11   -1    0    0    0    0  0.00000000000E+00  0.00000000000E+00  0.45593999997E+02  0.45594000000E+02  0.51100000000E-03 0. -1.
         11   -1    0    0    0    0 -0.00000000000E+00 -0.00000000000E+00 -0.45593999997E+02  0.45594000000E+02  0.51100000000E-03 0.  1.
    9900012    2    1    2    0    0  0.15237532197E+02 -0.19721308690E+02  0.19889880877E+02  0.59301956576E+02  0.50000022886E+02 0.  0.
        -12    1    1    2    0    0 -0.15237532197E+02  0.19721308690E+02 -0.19889880877E+02  0.31886043424E+02  0.00000000000E+00 0.  1.
         11    1    3    3    0    0  0.23174667924E+01 -0.23098850033E+02  0.20924729633E+02  0.31253349191E+02  0.51100000000E-03 0. -1.
        -11    1    3    3    0    0  0.11879239753E+02 -0.91554958381E+01 -0.30696039991E+01  0.15308883373E+02  0.51100000000E-03 0.  1.
         12    1    3    3    0    0  0.10408256512E+01  0.12533037181E+02  0.20347552435E+01  0.12739724012E+02  0.00000000000E+00 0. -1.
</event>
<event>
 7    1  0.1284777E-011  0.5930196E+02  0.7816164E-02  0.1266605E+00
        -11   -1    0    0    0    0  0.00000000000E+00  0.00000000000E+00  0.45593999997E+02  0.45594000000E+02  0.51100000000E-03 0.  1.
         11   -1    0    0    0    0 -0.00000000000E+00 -0.00000000000E+00 -0.45593999997E+02  0.45594000000E+02  0.51100000000E-03 0. -1.
    9900012    2    1    2    0    0  0.16192545755E+01 -0.97091875582E+01 -0.30328683093E+02  0.59301963455E+02  0.50000035430E+02 0.  0.
        -12    1    1    2    0    0 -0.16192545755E+01  0.97091875582E+01  0.30328683093E+02  0.31886036545E+02  0.00000000000E+00 0.  1.
         11    1    3    3    0    0 -0.87843373681E+01 -0.23904511643E+02 -0.18338971365E+02  0.31383246022E+02  0.51100000000E-03 0. -1.
        -11    1    3    3    0    0  0.45246762941E+00 -0.24250485120E+01  0.26626374667E+01  0.36297693840E+01  0.51100000000E-03 0.  1.
         12    1    3    3    0    0  0.99511243143E+01  0.16620372597E+02 -0.14652349194E+02  0.24288948048E+02  0.00000000000E+00 0. -1.
</event>
<event>
 7    1  0.1284777E-011  0.5930194E+02  0.7816164E-02  0.1266605E+00
        -11   -1    0    0    0    0  0.00000000000E+00  0.00000000000E+00  0.45593999997E+02  0.45594000000E+02  0.51100000000E-03 0. -1.
         11   -1    0    0    0    0 -0.00000000000E+00 -0.00000000000E+00 -0.45593999997E+02  0.45594000000E+02  0.51100000000E-03 0.  1.
    9900012    2    1    2    0    0  0.30513955879E+02  0.72955487404E+01  0.56916224990E+01  0.59301935622E+02  0.49999984670E+02 0.  0.
        -12    1    1    2    0    0 -0.30513955879E+02 -0.72955487404E+01 -0.56916224990E+01  0.31886064378E+02  0.00000000000E+00 0.  1.
         11    1    3    3    0    0  0.68299148673E+01 -0.11568612772E+02  0.53129423268E+00  0.13444806149E+02  0.51100000000E-03 0. -1.
        -11    1    3    3    0    0  0.73975445477E+01 -0.82263820757E+01 -0.56856931616E+01  0.12438815634E+02  0.51100000000E-03 0.  1.
        -12    1    3    3    0    0  0.16286496464E+02  0.27090543588E+02  0.10846021428E+02  0.33418313839E+02  0.00000000000E+00 0.  1.
</event>
<event>
 7    1  0.1284777E-011  0.5930194E+02  0.7816164E-02  0.1266605E+00
        -11   -1    0    0    0    0  0.00000000000E+00  0.00000000000E+00  0.45593999997E+02  0.45594000000E+02  0.51100000000E-03 0. -1.
         11   -1    0    0    0    0 -0.00000000000E+00 -0.00000000000E+00 -0.45593999997E+02  0.45594000000E+02  0.51100000000E-03 0.  1.
    9900012    2    1    2    0    0  0.26766415713E+01  0.28541490418E+02  0.13962081087E+02  0.59301940449E+02  0.49999993474E+02 0.  0.
        -12    1    1    2    0    0 -0.26766415713E+01 -0.28541490418E+02 -0.13962081087E+02  0.31886059551E+02  0.00000000000E+00 0.  1.
         11    1    3    3    0    0 -0.10722732419E+01  0.38227346641E+01  0.10254161652E+02  0.10995949330E+02  0.51100000000E-03 0. -1.
        -11    1    3    3    0    0 -0.93230418430E+01  0.18986528856E+02  0.18244499140E+02  0.27933297986E+02  0.51100000000E-03 0.  1.
        -12    1    3    3    0    0  0.13071956656E+02  0.57322268979E+01 -0.14536579705E+02  0.20372693134E+02  0.00000000000E+00 0.  1.
</event>
<event>
 7    1  0.1284777E-011  0.5930192E+02  0.7816164E-02  0.1266605E+00
        -11   -1    0    0    0    0  0.00000000000E+00  0.00000000000E+00  0.45593999997E+02  0.45594000000E+02  0.51100000000E-03 0.  1.
         11   -1    0    0    0    0 -0.00000000000E+00 -0.00000000000E+00 -0.45593999997E+02  0.45594000000E+02  0.51100000000E-03 0. -1.
    9900012    2    1    2    0    0 -0.13330775096E+01  0.12978278294E+02 -0.29094830449E+02  0.59301922129E+02  0.49999960062E+02 0.  0.
        -12    1    1    2    0    0  0.13330775096E+01 -0.12978278294E+02  0.29094830449E+02  0.31886077871E+02  0.00000000000E+00 0.  1.
         11    1    3    3    0    0 -0.56175973861E+01 -0.10883858927E+02 -0.13204541187E+02  0.18010432914E+02  0.51100000000E-03 0. -1.
        -11    1    3    3    0    0  0.35722078173E+01 -0.57910207625E+01 -0.81878753764E+01  0.10646027128E+02  0.51100000000E-03 0.  1.
        -12    1    3    3    0    0  0.71231205924E+00  0.29653157984E+02 -0.77024138861E+01  0.30645462087E+02  0.00000000000E+00 0.  1.
</event>
<event>
 7    1  0.1284777E-011  0.5930198E+02  0.7816164E-02  0.1266605E+00
        -11   -1    0    0    0    0  0.00000000000E+00  0.00000000000E+00  0.45593999997E+02  0.45594000000E+02  0.51100000000E-03 0. -1.
         11   -1    0    0    0    0 -0.00000000000E+00 -0.00000000000E+00 -0.45593999997E+02  0.45594000000E+02  0.51100000000E-03 0.  1.
    9900012    2    1    2    0    0 -0.16848975660E+02 -0.21184486487E+02 -0.16853722830E+02  0.59301977644E+02  0.50000061308E+02 0.  0.
        -12    1    1    2    0    0  0.16848975660E+02  0.21184486487E+02  0.16853722830E+02  0.31886022356E+02  0.00000000000E+00 0.  1.
         11    1    3    3    0    0 -0.12782203173E+02 -0.17267207737E+01 -0.97205951816E-01  0.12898671709E+02  0.51100000000E-03 0. -1.
        -11    1    3    3    0    0 -0.18953245861E+02 -0.20879437111E+02 -0.92975621391E+01  0.29692104754E+02  0.51100000000E-03 0.  1.
         12    1    3    3    0    0  0.14886473375E+02  0.14216713979E+01 -0.74589547386E+01  0.16711201181E+02  0.00000000000E+00 0. -1.
</event>
<event>
 7    1  0.1284777E-011  0.5930195E+02  0.7816164E-02  0.1266605E+00
        -11   -1    0    0    0    0  0.00000000000E+00  0.00000000000E+00  0.45593999997E+02  0.45594000000E+02  0.51100000000E-03 0. -1.
         11   -1    0    0    0    0 -0.00000000000E+00 -0.00000000000E+00 -0.45593999997E+02  0.45594000000E+02  0.51100000000E-03 0.  1.
    9900012    2    1    2    0    0  0.27165511758E+02 -0.16504095154E+01 -0.16614196280E+02  0.59301946644E+02  0.50000004771E+02 0.  0.
        -12    1    1    2    0    0 -0.27165511758E+02  0.16504095154E+01  0.16614196280E+02  0.31886053356E+02  0.00000000000E+00 0.  1.
         11    1    3    3    0    0  0.12951169144E+02  0.11573728527E+02  0.96005872158E+01  0.19845786691E+02  0.51100000000E-03 0. -1.
        -11    1    3    3    0    0 -0.36379248629E+01 -0.98845711547E+01 -0.54157213065E+01  0.11843533330E+02  0.51100000000E-03 0.  1.
        -12    1    3    3    0    0  0.17852267476E+02 -0.33395668878E+01 -0.20799062189E+02  0.27612626622E+02  0.00000000000E+00 0.  1.
</event>
<event>
 7    1  0.1284777E-011  0.5930195E+02  0.7816164E-02  0.1266605E+00
        -11   -1    0    0    0    0  0.00000000000E+00  0.00000000000E+00  0.45593999997E+02  0.45594000000E+02  0.51100000000E-03 0.  1.
         11   -1    0    0    0    0 -0.00000000000E+00 -0.00000000000E+00 -0.45593999997E+02  0.45594000000E+02  0.51100000000E-03 0. -1.
    9900012    2    1    2    0    0  0.14766747114E+02 -0.33329199132E+01 -0.28063408795E+02  0.59301951505E+02  0.50000013636E+02 0.  0.
        -12    1    1    2    0    0 -0.14766747114E+02  0.33329199132E+01  0.28063408795E+02  0.31886048495E+02  0.00000000000E+00 0.  1.
         11    1    3    3    0    0  0.10639468958E+02  0.14597183532E+02 -0.26398467375E+02  0.31986796444E+02  0.51100000000E-03 0. -1.
        -11    1    3    3    0    0 -0.51321587505E+01 -0.96370149340E+01 -0.78340962615E+01  0.13438161138E+02  0.51100000000E-03 0.  1.
        -12    1    3    3    0    0  0.92594369060E+01 -0.82930885109E+01  0.61691548413E+01  0.13876993922E+02  0.00000000000E+00 0.  1.
</event>
<event>
 7    1  0.1284777E-011  0.5930194E+02  0.7816164E-02  0.1266605E+00
        -11   -1    0    0    0    0  0.00000000000E+00  0.00000000000E+00  0.45593999997E+02  0.45594000000E+02  0.51100000000E-03 0.  1.
         11   -1    0    0    0    0 -0.00000000000E+00 -0.00000000000E+00 -0.45593999997E+02  0.45594000000E+02  0.51100000000E-03 0. -1.
    9900012    2    1    2    0    0 -0.16588120136E+02 -0.25954549856E+02  0.82411279451E+01  0.59301943836E+02  0.49999999651E+02 0.  0.
        -12    1    1    2    0    0  0.16588120136E+02  0.25954549856E+02 -0.82411279451E+01  0.31886056164E+02  0.00000000000E+00 0.  1.
         11    1    3    3    0    0 -0.29386387614E+01 -0.16292632421E+02  0.30684941251E+00  0.16558370264E+02  0.51100000000E-03 0. -1.
        -11    1    3    3    0    0  0.93045670049E+01 -0.50965106118E+01  0.14931184007E+02  0.18316376379E+02  0.51100000000E-03 0.  1.
         12    1    3    3    0    0 -0.22954048380E+02 -0.45654068224E+01 -0.69969054742E+01  0.24427197193E+02  0.00000000000E+00 0. -1.
</event>
<event>
 7    1  0.1284777E-011  0.5930194E+02  0.7816164E-02  0.1266605E+00
        -11   -1    0    0    0    0  0.00000000000E+00  0.00000000000E+00  0.45593999997E+02  0.45594000000E+02  0.51100000000E-03 0.  1.
         11   -1    0    0    0    0 -0.00000000000E+00 -0.00000000000E+00 -0.45593999997E+02  0.45594000000E+02  0.51100000000E-03 0. -1.
    9900012    2    1    2    0    0 -0.15750675528E+02 -0.24702632476E+02 -0.12586380677E+02  0.59301940203E+02  0.49999993024E+02 0.  0.
        -12    1    1    2    0    0  0.15750675528E+02  0.24702632476E+02  0.12586380677E+02  0.31886059797E+02  0.00000000000E+00 0.  1.
         11    1    3    3    0    0  0.91933427373E+01 -0.64609957394E+01  0.34499014933E+01  0.11754311431E+02  0.51100000000E-03 0. -1.
        -11    1    3    3    0    0  0.72015458483E+01 -0.62752636612E+01  0.29721680364E+00  0.95566487176E+01  0.51100000000E-03 0.  1.
         12    1    3    3    0    0 -0.32145564114E+02 -0.11966373076E+02 -0.16333498974E+02  0.37990980055E+02  0.00000000000E+00 0. -1.
</event>
<event>
 7    1  0.1284777E-011  0.5930200E+02  0.7816164E-02  0.1266605E+00
        -11   -1    0    0    0    0  0.00000000000E+00  0.00000000000E+00  0.45593999997E+02  0.45594000000E+02  0.51100000000E-03 0. -1.
         11   -1    0    0    0    0 -0.00000000000E+00 -0.00000000000E+00 -0.45593999997E+02  0.45594000000E+02  0.51100000000E-03 0.  1.
    9900012    2    1    2    0    0 -0.17843555342E+02  0.15178766814E+02  0.21631685371E+02  0.59301996154E+02  0.50000095066E+02 0.  0.
        -12    1    1    2    0    0  0.17843555342E+02 -0.15178766814E+02 -0.21631685371E+02  0.31886003846E+02  0.00000000000E+00 0.  1.
         11    1    3    3    0    0  0.58522413556E+00 -0.40759856400E+01  0.18004905472E+02  0.18469779846E+02  0.51100000000E-03 0. -1.
        -11    1    3    3    0    0 -0.90090792698E+01 -0.58901386869E+01 -0.59808824530E+01  0.12313740220E+02  0.51100000000E-03 0.  1.
        -12    1    3    3    0    0 -0.94197002075E+01  0.25144891141E+02  0.96076623520E+01  0.28518476088E+02  0.00000000000E+00 0.  1.
</event>
<event>
 7    1  0.1284777E-011  0.5930189E+02  0.7816164E-02  0.1266605E+00
        -11   -1    0    0    0    0  0.00000000000E+00  0.00000000000E+00  0.45593999997E+02  0.45594000000E+02  0.51100000000E-03 0.  1.
         11   -1    0    0    0    0 -0.00000000000E+00 -0.00000000000E+00 -0.45593999997E+02  0.45594000000E+02  0.51100000000E-03 0. -1.
    9900012    2    1    2    0    0 -0.21891518037E+02 -0.14080431287E+02 -0.18418105605E+02  0.59301894542E+02  0.49999909750E+02 0.  0.
        -12    1    1    2    0    0  0.21891518037E+02  0.14080431287E+02  0.18418105605E+02  0.31886105458E+02  0.00000000000E+00 0.  1.
         11    1    3    3    0    0  0.44596476051E+01 -0.14111258217E+02 -0.90707692987E+01  0.17357848978E+02  0.51100000000E-03 0. -1.
        -11    1    3    3    0    0 -0.62713647743E+01 -0.30701573137E+01  0.11103209330E+02  0.13116292912E+02  0.51100000000E-03 0.  1.
         12    1    3    3    0    0 -0.20079800868E+02  0.31009842435E+01 -0.20450545636E+02  0.28827752652E+02  0.00000000000E+00 0. -1.
</event>
<event>
 7    1  0.1284777E-011  0.5930196E+02  0.7816164E-02  0.1266605E+00
        -11   -1    0    0    0    0  0.00000000000E+00  0.00000000000E+00  0.45593999997E+02  0.45594000000E+02  0.51100000000E-03 0.  1.
         11   -1    0    0    0    0 -0.00000000000E+00 -0.00000000000E+00 -0.45593999997E+02  0.45594000000E+02  0.51100000000E-03 0. -1.
    9900012    2    1    2    0    0 -0.26930797713E+02 -0.17036097422E+02 -0.11059803805E+01  0.59301958016E+02  0.50000025510E+02 0.  0.
        -12    1    1    2    0    0  0.26930797713E+02  0.17036097422E+02  0.11059803805E+01  0.31886041984E+02  0.00000000000E+00 0.  1.
         11    1    3    3    0    0  0.59951869140E+01  0.53511695505E+01 -0.10549329636E+02  0.13261434226E+02  0.51100000000E-03 0. -1.
        -11    1    3    3    0    0 -0.38664914020E+01  0.20912911978E+01  0.66117934154E+01  0.79397145455E+01  0.51100000000E-03 0.  1.
         12    1    3    3    0    0 -0.29059493225E+02 -0.24478558170E+02  0.28315558404E+01  0.38100809244E+02  0.00000000000E+00 0. -1.
</event>
<event>
 7    1  0.1284777E-011  0.5930189E+02  0.7816164E-02  0.1266605E+00
        -11   -1    0    0    0    0  0.00000000000E+00  0.00000000000E+00  0.45593999997E+02  0.45594000000E+02  0.51100000000E-03 0.  1.
         11   -1    0    0    0    0 -0.00000000000E+00 -0.00000000000E+00 -0.45593999997E+02  0.45594000000E+02  0.51100000000E-03 0. -1.
    9900012    2    1    2    0    0 -0.18036332671E+02  0.18458226299E+02 -0.18727218932E+02  0.59301887925E+02  0.49999897682E+02 0.  0.
        -12    1    1    2    0    0  0.18036332671E+02 -0.18458226299E+02  0.18727218932E+02  0.31886112075E+02  0.00000000000E+00 0.  1.
         11    1    3    3    0    0 -0.56424814632E+00  0.34086996833E+01 -0.16629678200E+02  0.16984811062E+02  0.51100000000E-03 0. -1.
        -11    1    3    3    0    0  0.30717847270E+00  0.62023597888E+01 -0.16601951608E+02  0.17725361013E+02  0.51100000000E-03 0.  1.
        -12    1    3    3    0    0 -0.17779262998E+02  0.88471668268E+01  0.14504410877E+02  0.24591715851E+02  0.00000000000E+00 0.  1.
</event>
<event>
 7    1  0.1284777E-011  0.5930194E+02  0.7816164E-02  0.1266605E+00
        -11   -1    0    0    0    0  0.00000000000E+00  0.00000000000E+00  0.45593999997E+02  0.45594000000E+02  0.51100000000E-03 0. -1.
         11   -1    0    0    0    0 -0.00000000000E+00 -0.00000000000E+00 -0.45593999997E+02  0.45594000000E+02  0.51100000000E-03 0.  1.
    9900012    2    1    2    0    0  0.85334602383E+01 -0.27145438559E+02 -0.14388391350E+02  0.59301943739E+02  0.49999999474E+02 0.  0.
        -12    1    1    2    0    0 -0.85334602383E+01  0.27145438559E+02  0.14388391350E+02  0.31886056261E+02  0.00000000000E+00 0.  1.
         11    1    3    3    0    0  0.16466013570E+02 -0.23186343649E+01 -0.90865475929E+01  0.18949169260E+02  0.51100000000E-03 0. -1.
        -11    1    3    3    0    0 -0.33386111323E+00 -0.44256163500E+01 -0.15636344451E+02  0.16254009086E+02  0.51100000000E-03 0.  1.
        -12    1    3    3    0    0 -0.75986922187E+01 -0.20401187844E+02  0.10334500694E+02  0.24098765393E+02  0.00000000000E+00 0.  1.
</event>
<event>
 7    1  0.1284777E-011  0.5930194E+02  0.7816164E-02  0.1266605E+00
        -11   -1    0    0    0    0  0.00000000000E+00  0.00000000000E+00  0.45593999997E+02  0.45594000000E+02  0.51100000000E-03 0.  1.
         11   -1    0    0    0    0 -0.00000000000E+00 -0.00000000000E+00 -0.45593999997E+02  0.45594000000E+02  0.51100000000E-03 0. -1.
    9900012    2    1    2    0    0 -0.22525744721E+02  0.21626445128E+02 -0.64504869993E+01  0.59301935856E+02  0.49999985096E+02 0.  0.
        -12    1    1    2    0    0  0.22525744721E+02 -0.21626445128E+02  0.64504869993E+01  0.31886064144E+02  0.00000000000E+00 0.  1.
         11    1    3    3    0    0  0.11594944885E+02 -0.12114371714E+01  0.56063230812E+01  0.12936042117E+02  0.51100000000E-03 0.  1.
        -11    1    3    3    0    0 -0.11638103503E+02  0.46393238364E+01 -0.12133150282E+02  0.17440817493E+02  0.51100000000E-03 0. -1.
        -12    1    3    3    0    0 -0.22482586102E+02  0.18198558463E+02  0.76340201262E-01  0.28925076245E+02  0.00000000000E+00 0.  1.
</event>
<event>
 7    1  0.1284777E-011  0.5930195E+02  0.7816164E-02  0.1266605E+00
        -11   -1    0    0    0    0  0.00000000000E+00  0.00000000000E+00  0.45593999997E+02  0.45594000000E+02  0.51100000000E-03 0. -1.
         11   -1    0    0    0    0 -0.00000000000E+00 -0.00000000000E+00 -0.45593999997E+02  0.45594000000E+02  0.51100000000E-03 0.  1.
    9900012    2    1    2    0    0  0.11363737831E+02 -0.29177027720E+02  0.60238235786E+01  0.59301953921E+02  0.50000018042E+02 0.  0.
        -12    1    1    2    0    0 -0.11363737831E+02  0.29177027720E+02 -0.60238235786E+01  0.31886046079E+02  0.00000000000E+00 0.  1.
         11    1    3    3    0    0  0.65514668203E+01 -0.14689493889E+02 -0.31163477165E+01  0.16383362645E+02  0.51100000000E-03 0. -1.
        -11    1    3    3    0    0 -0.98927298911E+01 -0.85906828129E+01  0.19857765385E+02  0.23790686881E+02  0.51100000000E-03 0.  1.
         12    1    3    3    0    0  0.14705000902E+02 -0.58968510184E+01 -0.10717594090E+02  0.19127904395E+02  0.00000000000E+00 0. -1.
</event>
<event>
 7    1  0.1284777E-011  0.5930196E+02  0.7816164E-02  0.1266605E+00
        -11   -1    0    0    0    0  0.00000000000E+00  0.00000000000E+00  0.45593999997E+02  0.45594000000E+02  0.51100000000E-03 0.  1.
         11   -1    0    0    0    0 -0.00000000000E+00 -0.00000000000E+00 -0.45593999997E+02  0.45594000000E+02  0.51100000000E-03 0. -1.
    9900012    2    1    2    0    0 -0.12860199214E+02  0.43300652416E+01 -0.28854550456E+02  0.59301964328E+02  0.50000037024E+02 0.  0.
        -12    1    1    2    0    0  0.12860199214E+02 -0.43300652416E+01  0.28854550456E+02  0.31886035672E+02  0.00000000000E+00 0.  1.
         11    1    3    3    0    0 -0.81438542611E+01  0.38514137041E+01 -0.10596601681E+02  0.13908404552E+02  0.51100000000E-03 0. -1.
        -11    1    3    3    0    0 -0.21997103472E+02  0.38096134358E+01 -0.16391556995E+02  0.27696007956E+02  0.51100000000E-03 0.  1.
         12    1    3    3    0    0  0.17280758519E+02 -0.33309618983E+01 -0.18663917800E+01  0.17697551821E+02  0.00000000000E+00 0. -1.
</event>
<event>
 7    1  0.1284777E-011  0.5930192E+02  0.7816164E-02  0.1266605E+00
        -11   -1    0    0    0    0  0.00000000000E+00  0.00000000000E+00  0.45593999997E+02  0.45594000000E+02  0.51100000000E-03 0.  1.
         11   -1    0    0    0    0 -0.00000000000E+00 -0.00000000000E+00 -0.45593999997E+02  0.45594000000E+02  0.51100000000E-03 0. -1.
    9900012    2    1    2    0    0 -0.34266451841E+01 -0.13793666219E+02 -0.28543207414E+02  0.59301924442E+02  0.49999964280E+02 0.  0.
        -12    1    1    2    0    0  0.34266451841E+01  0.13793666219E+02  0.28543207414E+02  0.31886075558E+02  0.00000000000E+00 0.  1.
         11    1    3    3    0    0  0.42700497658E+01 -0.19590052975E+01 -0.22597792685E+01  0.52132167959E+01  0.51100000000E-03 0. -1.
        -11    1    3    3    0    0 -0.59004526184E+01  0.14493048807E+02  0.15614162514E+01  0.15725833072E+02  0.51100000000E-03 0.  1.
         12    1    3    3    0    0 -0.17962423315E+01 -0.26327709729E+02 -0.27844844397E+02  0.38362874574E+02  0.00000000000E+00 0. -1.
</event>
<event>
 7    1  0.1284777E-011  0.5930195E+02  0.7816164E-02  0.1266605E+00
        -11   -1    0    0    0    0  0.00000000000E+00  0.00000000000E+00  0.45593999997E+02  0.45594000000E+02  0.51100000000E-03 0. -1.
         11   -1    0    0    0    0 -0.00000000000E+00 -0.00000000000E+00 -0.45593999997E+02  0.45594000000E+02  0.51100000000E-03 0.  1.
    9900012    2    1    2    0    0  0.28550488688E+02 -0.14025165835E+02  0.22101377758E+01  0.59301946779E+02  0.50000005017E+02 0.  0.
        -12    1    1    2    0    0 -0.28550488688E+02  0.14025165835E+02 -0.22101377758E+01  0.31886053221E+02  0.00000000000E+00 0.  1.
         11    1    3    3    0    0  0.28056836435E+02  0.25065932254E+01 -0.73764922511E+01  0.29118408585E+02  0.51100000000E-03 0. -1.
        -11    1    3    3    0    0  0.11560932354E+02 -0.80335143473E+01  0.78594475050E+01  0.16123381314E+02  0.51100000000E-03 0.  1.
        -12    1    3    3    0    0 -0.11067280100E+02 -0.84982447134E+01  0.17271825218E+01  0.14060156880E+02  0.00000000000E+00 0.  1.
</event>
<event>
 7    1  0.1284777E-011  0.5930194E+02  0.7816164E-02  0.1266605E+00
        -11   -1    0    0    0    0  0.00000000000E+00  0.00000000000E+00  0.45593999997E+02  0.45594000000E+02  0.51100000000E-03 0. -1.
         11   -1    0    0    0    0 -0.00000000000E+00 -0.00000000000E+00 -0.45593999997E+02  0.45594000000E+02  0.51100000000E-03 0.  1.
    9900012    2    1    2    0    0 -0.14606585339E+02  0.92212537344E+01  0.26801806222E+02  0.59301942349E+02  0.49999996939E+02 0.  0.
        -12    1    1    2    0    0  0.14606585339E+02 -0.92212537344E+01 -0.26801806222E+02  0.31886057651E+02  0.00000000000E+00 0.  1.
         11    1    3    3    0    0  0.10618736019E+02  0.12687236915E+02  0.17560502503E+02  0.24126640537E+02  0.51100000000E-03 0. -1.
        -11    1    3    3    0    0 -0.50911711653E+01  0.85771962130E+01  0.55834000453E+01  0.11430777534E+02  0.51100000000E-03 0.  1.
        -12    1    3    3    0    0 -0.20134150193E+02 -0.12043179394E+02  0.36579036740E+01  0.23744524278E+02  0.00000000000E+00 0.  1.
</event>
<event>
 7    1  0.1284777E-011  0.5930193E+02  0.7816164E-02  0.1266605E+00
        -11   -1    0    0    0    0  0.00000000000E+00  0.00000000000E+00  0.45593999997E+02  0.45594000000E+02  0.51100000000E-03 0. -1.
         11   -1    0    0    0    0 -0.00000000000E+00 -0.00000000000E+00 -0.45593999997E+02  0.45594000000E+02  0.51100000000E-03 0.  1.
    9900012    2    1    2    0    0 -0.13686678800E+02  0.23883428992E+02 -0.16092797867E+02  0.59301929371E+02  0.49999973269E+02 0.  0.
        -12    1    1    2    0    0  0.13686678800E+02 -0.23883428992E+02  0.16092797867E+02  0.31886070629E+02  0.00000000000E+00 0.  1.
         11    1    3    3    0    0 -0.45555263469E+01  0.70842262888E+01 -0.10892643001E+01  0.84926779867E+01  0.51100000000E-03 0. -1.
        -11    1    3    3    0    0 -0.16376086658E+02  0.19012967049E+02  0.82010523101E+01  0.26399363430E+02  0.51100000000E-03 0.  1.
        -12    1    3    3    0    0  0.72449342043E+01 -0.22137643462E+01 -0.23204585877E+02  0.24409887954E+02  0.00000000000E+00 0.  1.
</event>
<event>
 7    1  0.1284777E-011  0.5930196E+02  0.7816164E-02  0.1266605E+00
        -11   -1    0    0    0    0  0.00000000000E+00  0.00000000000E+00  0.45593999997E+02  0.45594000000E+02  0.51100000000E-03 0. -1.
         11   -1    0    0    0    0 -0.00000000000E+00 -0.00000000000E+00 -0.45593999997E+02  0.45594000000E+02  0.51100000000E-03 0.  1.
    9900012    2    1    2    0    0 -0.79781546872E+01  0.32969404457E+01  0.30695260471E+02  0.59301956283E+02  0.50000022351E+02 0.  0.
        -12    1    1    2    0    0  0.79781546872E+01 -0.32969404457E+01 -0.30695260471E+02  0.31886043717E+02  0.00000000000E+00 0.  1.
         11    1    3    3    0    0  0.16671431041E+00 -0.76013546946E+01  0.11977734751E+02  0.14187125039E+02  0.51100000000E-03 0. -1.
        -11    1    3    3    0    0  0.35601554160E+01  0.16096338855E+02  0.25696132701E+02  0.30529626056E+02  0.51100000000E-03 0.  1.
        -12    1    3    3    0    0 -0.11705024414E+02 -0.51980437144E+01 -0.69786069807E+01  0.14585205188E+02  0.00000000000E+00 0.  1.
</event>
<event>
 7    1  0.1284777E-011  0.5930188E+02  0.7816164E-02  0.1266605E+00
        -11   -1    0    0    0    0  0.00000000000E+00  0.00000000000E+00  0.45593999997E+02  0.45594000000E+02  0.51100000000E-03 0. -1.
         11   -1    0    0    0    0 -0.00000000000E+00 -0.00000000000E+00 -0.45593999997E+02  0.45594000000E+02  0.51100000000E-03 0.  1.
    9900012    2    1    2    0    0 -0.16298762138E+02  0.67913754228E+01  0.26550934059E+02  0.59301881912E+02  0.49999886715E+02 0.  0.
        -12    1    1    2    0    0  0.16298762138E+02 -0.67913754228E+01 -0.26550934059E+02  0.31886118088E+02  0.00000000000E+00 0.  1.
         11    1    3    3    0    0 -0.46881574630E+00  0.62029623632E+01 -0.45992458469E+01  0.77362518640E+01  0.51100000000E-03 0. -1.
        -11    1    3    3    0    0  0.32148758024E+01 -0.14417078016E+02  0.20039336170E+02  0.24895030816E+02  0.51100000000E-03 0.  1.
         12    1    3    3    0    0 -0.19044822194E+02  0.15005491076E+02  0.11110843736E+02  0.26670599231E+02  0.00000000000E+00 0. -1.
</event>
<event>
 7    1  0.1284777E-011  0.5930196E+02  0.7816164E-02  0.1266605E+00
        -11   -1    0    0    0    0  0.00000000000E+00  0.00000000000E+00  0.45593999997E+02  0.45594000000E+02  0.51100000000E-03 0. -1.
         11   -1    0    0    0    0 -0.00000000000E+00 -0.00000000000E+00 -0.45593999997E+02  0.45594000000E+02  0.51100000000E-03 0.  1.
    9900012    2    1    2    0    0  0.30274836751E+02  0.76899498383E+01  0.64045662247E+01  0.59301960150E+02  0.50000029403E+02 0.  0.
        -12    1    1    2    0    0 -0.30274836751E+02 -0.76899498383E+01 -0.64045662247E+01  0.31886039850E+02  0.00000000000E+00 0.  1.
         11    1    3    3    0    0  0.13183716890E+02  0.11290656157E+02  0.17402780190E+02  0.24579382948E+02  0.51100000000E-03 0. -1.
        -11    1    3    3    0    0  0.17922560196E+02 -0.68884288247E+00  0.48561727333E+01  0.18581579114E+02  0.51100000000E-03 0.  1.
         12    1    3    3    0    0 -0.83144033493E+00 -0.29118634367E+01 -0.15854386698E+02  0.16140998088E+02  0.00000000000E+00 0. -1.
</event>
<event>
 7    1  0.1284777E-011  0.5930186E+02  0.7816164E-02  0.1266605E+00
        -11   -1    0    0    0    0  0.00000000000E+00  0.00000000000E+00  0.45593999997E+02  0.45594000000E+02  0.51100000000E-03 0.  1.
         11   -1    0    0    0    0 -0.00000000000E+00 -0.00000000000E+00 -0.45593999997E+02  0.45594000000E+02  0.51100000000E-03 0. -1.
    9900012    2    1    2    0    0 -0.15596910829E+02 -0.70295286588E+01 -0.26908141009E+02  0.59301859545E+02  0.49999845924E+02 0.  0.
        -12    1    1    2    0    0  0.15596910829E+02  0.70295286588E+01  0.26908141009E+02  0.31886140455E+02  0.00000000000E+00 0.  1.
         11    1    3    3    0    0 -0.26686246049E+02 -0.36168485638E+01 -0.15095429962E+02  0.30872468766E+02  0.51100000000E-03 0. -1.
        -11    1    3    3    0    0 -0.54832952530E+01 -0.20658775401E+01  0.26136895451E+01  0.64160540944E+01  0.51100000000E-03 0.  1.
        -12    1    3    3    0    0  0.16572630474E+02 -0.13468025550E+01 -0.14426400592E+02  0.22013336684E+02  0.00000000000E+00 0.  1.
</event>
<event>
 7    1  0.1284777E-011  0.5930194E+02  0.7816164E-02  0.1266605E+00
        -11   -1    0    0    0    0  0.00000000000E+00  0.00000000000E+00  0.45593999997E+02  0.45594000000E+02  0.51100000000E-03 0. -1.
         11   -1    0    0    0    0 -0.00000000000E+00 -0.00000000000E+00 -0.45593999997E+02  0.45594000000E+02  0.51100000000E-03 0.  1.
    9900012    2    1    2    0    0 -0.21637693523E+02  0.18976868176E+02  0.13726237496E+02  0.59301938742E+02  0.49999990361E+02 0.  0.
        -12    1    1    2    0    0  0.21637693523E+02 -0.18976868176E+02 -0.13726237496E+02  0.31886061258E+02  0.00000000000E+00 0.  1.
         11    1    3    3    0    0 -0.28550109262E+02  0.22479624397E+02  0.13809720437E+02  0.38873520945E+02  0.51100000000E-03 0. -1.
        -11    1    3    3    0    0 -0.33914488854E+01  0.33886797568E+01 -0.51507197086E+01  0.70366888388E+01  0.51100000000E-03 0.  1.
        -12    1    3    3    0    0  0.10303864625E+02 -0.68914359775E+01  0.50672367675E+01  0.13391728958E+02  0.00000000000E+00 0.  1.
</event>
<event>
 7    1  0.1284777E-011  0.5930196E+02  0.7816164E-02  0.1266605E+00
        -11   -1    0    0    0    0  0.00000000000E+00  0.00000000000E+00  0.45593999997E+02  0.45594000000E+02  0.51100000000E-03 0.  1.
         11   -1    0    0    0    0 -0.00000000000E+00 -0.00000000000E+00 -0.45593999997E+02  0.45594000000E+02  0.51100000000E-03 0. -1.
    9900012    2    1    2    0    0  0.16728484611E+02  0.88244693935E+01 -0.25671111377E+02  0.59301962040E+02  0.50000032851E+02 0.  0.
        -12    1    1    2    0    0 -0.16728484611E+02 -0.88244693935E+01  0.25671111377E+02  0.31886037960E+02  0.00000000000E+00 0.  1.
         11    1    3    3    0    0  0.19173537086E+02  0.11630829422E+02 -0.55283661748E+01  0.23096829875E+02  0.51100000000E-03 0. -1.
        -11    1    3    3    0    0 -0.34149031181E+00  0.12622375675E+02 -0.28688946234E+01  0.12948804576E+02  0.51100000000E-03 0.  1.
         12    1    3    3    0    0 -0.21035621633E+01 -0.15428735703E+02 -0.17273850578E+02  0.23256327590E+02  0.00000000000E+00 0. -1.
</event>
<event>
 7    1  0.1284777E-011  0.5930195E+02  0.7816164E-02  0.1266605E+00
        -11   -1    0    0    0    0  0.00000000000E+00  0.00000000000E+00  0.45593999997E+02  0.45594000000E+02  0.51100000000E-03 0. -1.
         11   -1    0    0    0    0 -0.00000000000E+00 -0.00000000000E+00 -0.45593999997E+02  0.45594000000E+02  0.51100000000E-03 0.  1.
    9900012    2    1    2    0    0 -0.27150089402E+02 -0.61832583201E+00  0.16709590731E+02  0.59301951268E+02  0.50000013205E+02 0.  0.
        -12    1    1    2    0    0  0.27150089402E+02  0.61832583201E+00 -0.16709590731E+02  0.31886048732E+02  0.00000000000E+00 0.  1.
         11    1    3    3    0    0 -0.42171661382E+01 -0.67662586394E+01  0.14754260168E+02  0.16770657101E+02  0.51100000000E-03 0. -1.
        -11    1    3    3    0    0 -0.19266404658E+02 -0.11233114025E+02 -0.59591215097E+01  0.23084374121E+02  0.51100000000E-03 0.  1.
        -12    1    3    3    0    0 -0.36665186056E+01  0.17381046833E+02  0.79144520719E+01  0.19446920046E+02  0.00000000000E+00 0.  1.
</event>
<event>
 7    1  0.1284777E-011  0.5930196E+02  0.7816164E-02  0.1266605E+00
        -11   -1    0    0    0    0  0.00000000000E+00  0.00000000000E+00  0.45593999997E+02  0.45594000000E+02  0.51100000000E-03 0.  1.
         11   -1    0    0    0    0 -0.00000000000E+00 -0.00000000000E+00 -0.45593999997E+02  0.45594000000E+02  0.51100000000E-03 0. -1.
    9900012    2    1    2    0    0  0.18118927272E+02  0.26235287579E+02 -0.36561573759E+00  0.59301960505E+02  0.50000030050E+02 0.  0.
        -12    1    1    2    0    0 -0.18118927272E+02 -0.26235287579E+02  0.36561573759E+00  0.31886039495E+02  0.00000000000E+00 0.  1.
         11    1    3    3    0    0  0.49226166489E+01 -0.89306158060E+01  0.53846322013E+01  0.11531795938E+02  0.51100000000E-03 0.  1.
        -11    1    3    3    0    0 -0.79776754792E+00 -0.83160516203E+00 -0.89425642434E+01  0.90165101738E+01  0.51100000000E-03 0. -1.
         12    1    3    3    0    0  0.13994078171E+02  0.35997508547E+02  0.31923163045E+01  0.38753654393E+02  0.00000000000E+00 0. -1.
</event>
<event>
 7    1  0.1284777E-011  0.5930194E+02  0.7816164E-02  0.1266605E+00
        -11   -1    0    0    0    0  0.00000000000E+00  0.00000000000E+00  0.45593999997E+02  0.45594000000E+02  0.51100000000E-03 0.  1.
         11   -1    0    0    0    0 -0.00000000000E+00 -0.00000000000E+00 -0.45593999997E+02  0.45594000000E+02  0.51100000000E-03 0. -1.
    9900012    2    1    2    0    0 -0.12396481064E+02 -0.11129841349E+01 -0.29356585206E+02  0.59301943935E+02  0.49999999831E+02 0.  0.
        -12    1    1    2    0    0  0.12396481064E+02  0.11129841349E+01  0.29356585206E+02  0.31886056065E+02  0.00000000000E+00 0.  1.
         11    1    3    3    0    0  0.23577564836E+01 -0.10618464828E+01 -0.21477840194E+02  0.21632941391E+02  0.51100000000E-03 0. -1.
        -11    1    3    3    0    0  0.30760791587E+01  0.48241129896E+01 -0.16359828332E+02  0.17331425575E+02  0.51100000000E-03 0.  1.
         12    1    3    3    0    0 -0.17830316706E+02 -0.48752506418E+01  0.84810833209E+01  0.20337576969E+02  0.00000000000E+00 0. -1.
</event>
<event>
 7    1  0.1284777E-011  0.5930197E+02  0.7816164E-02  0.1266605E+00
        -11   -1    0    0    0    0  0.00000000000E+00  0.00000000000E+00  0.45593999997E+02  0.45594000000E+02  0.51100000000E-03 0. -1.
         11   -1    0    0    0    0 -0.00000000000E+00 -0.00000000000E+00 -0.45593999997E+02  0.45594000000E+02  0.51100000000E-03 0.  1.
    9900012    2    1    2    0    0  0.46622260820E+01 -0.27298883935E+02  0.15803598618E+02  0.59301966295E+02  0.50000040611E+02 0.  0.
        -12    1    1    2    0    0 -0.46622260820E+01  0.27298883935E+02 -0.15803598618E+02  0.31886033705E+02  0.00000000000E+00 0.  1.
         11    1    3    3    0    0  0.69858274867E+01 -0.41087558455E+01  0.63619135461E+01  0.10303281249E+02  0.51100000000E-03 0. -1.
        -11    1    3    3    0    0  0.91706432807E+01  0.17931073116E+01  0.17929253398E+02  0.20218161630E+02  0.51100000000E-03 0.  1.
        -12    1    3    3    0    0 -0.11494244685E+02 -0.24983235401E+02 -0.84875683265E+01  0.28780523416E+02  0.00000000000E+00 0.  1.
</event>
<event>
 7    1  0.1284777E-011  0.5930195E+02  0.7816164E-02  0.1266605E+00
        -11   -1    0    0    0    0  0.00000000000E+00  0.00000000000E+00  0.45593999997E+02  0.45594000000E+02  0.51100000000E-03 0.  1.
         11   -1    0    0    0    0 -0.00000000000E+00 -0.00000000000E+00 -0.45593999997E+02  0.45594000000E+02  0.51100000000E-03 0. -1.
    9900012    2    1    2    0    0  0.17529250396E+02 -0.22306408302E+02 -0.14555737993E+02  0.59301953219E+02  0.50000016764E+02 0.  0.
        -12    1    1    2    0    0 -0.17529250396E+02  0.22306408302E+02  0.14555737993E+02  0.31886046781E+02  0.00000000000E+00 0.  1.
         11    1    3    3    0    0  0.52350336027E+01 -0.25077720472E+02 -0.14121767449E+02  0.29252725634E+02  0.51100000000E-03 0. -1.
        -11    1    3    3    0    0  0.15250097506E+02 -0.58554871569E+01 -0.80098977045E+01  0.18193698505E+02  0.51100000000E-03 0.  1.
        -12    1    3    3    0    0 -0.29558807126E+01  0.86267993274E+01  0.75759271608E+01  0.11855529080E+02  0.00000000000E+00 0.  1.
</event>
<event>
 7    1  0.1284777E-011  0.5930200E+02  0.7816164E-02  0.1266605E+00
        -11   -1    0    0    0    0  0.00000000000E+00  0.00000000000E+00  0.45593999997E+02  0.45594000000E+02  0.51100000000E-03 0.  1.
         11   -1    0    0    0    0 -0.00000000000E+00 -0.00000000000E+00 -0.45593999997E+02  0.45594000000E+02  0.51100000000E-03 0. -1.
    9900012    2    1    2    0    0  0.14697161115E+02  0.20185366228E+02 -0.19830825721E+02  0.59301996748E+02  0.50000096149E+02 0.  0.
        -12    1    1    2    0    0 -0.14697161115E+02 -0.20185366228E+02  0.19830825721E+02  0.31886003252E+02  0.00000000000E+00 0.  1.
         11    1    3    3    0    0  0.18291799715E+02  0.10261118238E+02  0.24825820614E+01  0.21119746643E+02  0.51100000000E-03 0. -1.
        -11    1    3    3    0    0 -0.66285128414E+01  0.74956116611E+01  0.45836001437E+01  0.11005942359E+02  0.51100000000E-03 0.  1.
        -12    1    3    3    0    0  0.30338742421E+01  0.24286363288E+01 -0.26897007926E+02  0.27176307746E+02  0.00000000000E+00 0.  1.
</event>
<event>
 7    1  0.1284777E-011  0.5930198E+02  0.7816164E-02  0.1266605E+00
        -11   -1    0    0    0    0  0.00000000000E+00  0.00000000000E+00  0.45593999997E+02  0.45594000000E+02  0.51100000000E-03 0. -1.
         11   -1    0    0    0    0 -0.00000000000E+00 -0.00000000000E+00 -0.45593999997E+02  0.45594000000E+02  0.51100000000E-03 0.  1.
    9900012    2    1    2    0    0  0.22440631989E+02 -0.20569328711E+02  0.94888785270E+01  0.59301983262E+02  0.50000071554E+02 0.  0.
        -12    1    1    2    0    0 -0.22440631989E+02  0.20569328711E+02 -0.94888785270E+01  0.31886016738E+02  0.00000000000E+00 0.  1.
         11    1    3    3    0    0  0.22501894573E+02 -0.52331995503E+01  0.12429373681E+02  0.26233775315E+02  0.51100000000E-03 0. -1.
        -11    1    3    3    0    0  0.92353102539E+01 -0.20193886905E+02 -0.38609823203E+01  0.22538660310E+02  0.51100000000E-03 0.  1.
         12    1    3    3    0    0 -0.92965728379E+01  0.48577577441E+01  0.92048716615E+00  0.10529547638E+02  0.00000000000E+00 0. -1.
</event>
<event>
 7    1  0.1284777E-011  0.5930193E+02  0.7816164E-02  0.1266605E+00
        -11   -1    0    0    0    0  0.00000000000E+00  0.00000000000E+00  0.45593999997E+02  0.45594000000E+02  0.51100000000E-03 0.  1.
         11   -1    0    0    0    0 -0.00000000000E+00 -0.00000000000E+00 -0.45593999997E+02  0.45594000000E+02  0.51100000000E-03 0. -1.
    9900012    2    1    2    0    0 -0.17164930895E+02 -0.38746800298E+01 -0.26590851199E+02  0.59301931483E+02  0.49999977121E+02 0.  0.
        -12    1    1    2    0    0  0.17164930895E+02  0.38746800298E+01  0.26590851199E+02  0.31886068517E+02  0.00000000000E+00 0.  1.
         11    1    3    3    0    0 -0.97500948969E+01  0.16825467521E+02 -0.19702333169E+02  0.27682894363E+02  0.51100000000E-03 0. -1.
        -11    1    3    3    0    0 -0.56166802124E+01  0.53100298534E+00 -0.85539276010E+01  0.10246889208E+02  0.51100000000E-03 0.  1.
        -12    1    3    3    0    0 -0.17981557859E+01 -0.21231150536E+02  0.16654095701E+01  0.21372147911E+02  0.00000000000E+00 0.  1.
</event>
<event>
 7    1  0.1284777E-011  0.5930190E+02  0.7816164E-02  0.1266605E+00
        -11   -1    0    0    0    0  0.00000000000E+00  0.00000000000E+00  0.45593999997E+02  0.45594000000E+02  0.51100000000E-03 0.  1.
         11   -1    0    0    0    0 -0.00000000000E+00 -0.00000000000E+00 -0.45593999997E+02  0.45594000000E+02  0.51100000000E-03 0. -1.
    9900012    2    1    2    0    0  0.13638922681E+02  0.11292452501E+02 -0.26517615587E+02  0.59301895945E+02  0.49999912308E+02 0.  0.
        -12    1    1    2    0    0 -0.13638922681E+02 -0.11292452501E+02  0.26517615587E+02  0.31886104055E+02  0.00000000000E+00 0.  1.
         11    1    3    3    0    0  0.84677119880E+00  0.16710924698E+02 -0.15469544046E+02  0.22787690075E+02  0.51100000000E-03 0. -1.
        -11    1    3    3    0    0  0.21340204256E+02  0.17041459443E+01 -0.13243112924E+02  0.25173169670E+02  0.51100000000E-03 0.  1.
        -12    1    3    3    0    0 -0.85480527731E+01 -0.71226181416E+01  0.21950413823E+01  0.11341036199E+02  0.00000000000E+00 0.  1.
</event>
<event>
 7    1  0.1284777E-011  0.5930170E+02  0.7816164E-02  0.1266606E+00
        -11   -1    0    0    0    0  0.00000000000E+00  0.00000000000E+00  0.45593999997E+02  0.45594000000E+02  0.51100000000E-03 0.  1.
         11   -1    0    0    0    0 -0.00000000000E+00 -0.00000000000E+00 -0.45593999997E+02  0.45594000000E+02  0.51100000000E-03 0. -1.
    9900012    2    1    2    0    0  0.28977699404E+02  0.12975701290E+02  0.29428321594E+01  0.59301699685E+02  0.49999554375E+02 0.  0.
        -12    1    1    2    0    0 -0.28977699404E+02 -0.12975701290E+02 -0.29428321594E+01  0.31886300315E+02  0.00000000000E+00 0.  1.
         11    1    3    3    0    0  0.18694865386E+02 -0.24803822382E+00 -0.84194176716E+00  0.18715458342E+02  0.51100000000E-03 0. -1.
        -11    1    3    3    0    0  0.16461589909E+02 -0.75167193406E+01  0.53993100138E+01  0.18884850036E+02  0.51100000000E-03 0.  1.
         12    1    3    3    0    0 -0.61787558918E+01  0.20740458854E+02 -0.16145360872E+01  0.21701391306E+02  0.00000000000E+00 0. -1.
</event>
<event>
 7    1  0.1284777E-011  0.5930193E+02  0.7816164E-02  0.1266605E+00
        -11   -1    0    0    0    0  0.00000000000E+00  0.00000000000E+00  0.45593999997E+02  0.45594000000E+02  0.51100000000E-03 0. -1.
         11   -1    0    0    0    0 -0.00000000000E+00 -0.00000000000E+00 -0.45593999997E+02  0.45594000000E+02  0.51100000000E-03 0.  1.
    9900012    2    1    2    0    0 -0.71941095253E+01  0.81117471657E+01  0.29986089248E+02  0.59301934042E+02  0.49999981788E+02 0.  0.
        -12    1    1    2    0    0  0.71941095253E+01 -0.81117471657E+01 -0.29986089248E+02  0.31886065958E+02  0.00000000000E+00 0.  1.
         11    1    3    3    0    0 -0.15060895039E+02 -0.14169763547E+01  0.10118910425E+01  0.15161210542E+02  0.51100000000E-03 0. -1.
        -11    1    3    3    0    0 -0.98608503539E+01 -0.30408681461E+01  0.40822045942E+01  0.11097190788E+02  0.51100000000E-03 0.  1.
        -12    1    3    3    0    0  0.17727635867E+02  0.12569591666E+02  0.24891993611E+02  0.33043532711E+02  0.00000000000E+00 0.  1.
</event>
<event>
 7    1  0.1284777E-011  0.5930195E+02  0.7816164E-02  0.1266605E+00
        -11   -1    0    0    0    0  0.00000000000E+00  0.00000000000E+00  0.45593999997E+02  0.45594000000E+02  0.51100000000E-03 0.  1.
         11   -1    0    0    0    0 -0.00000000000E+00 -0.00000000000E+00 -0.45593999997E+02  0.45594000000E+02  0.51100000000E-03 0. -1.
    9900012    2    1    2    0    0 -0.30555890531E+01  0.10225546343E+01 -0.31722825474E+02  0.59301954486E+02  0.50000019074E+02 0.  0.
        -12    1    1    2    0    0  0.30555890531E+01 -0.10225546343E+01  0.31722825474E+02  0.31886045514E+02  0.00000000000E+00 0.  1.
         11    1    3    3    0    0  0.26293006322E+01  0.18068665897E+01 -0.30305522383E+02  0.30472982720E+02  0.51100000000E-03 0. -1.
        -11    1    3    3    0    0  0.70952065261E+01 -0.10490633748E+02 -0.17000207632E+01  0.12778318471E+02  0.51100000000E-03 0.  1.
        -12    1    3    3    0    0 -0.12780096211E+02  0.97063217930E+01  0.28271767215E+00  0.16050653295E+02  0.00000000000E+00 0.  1.
</event>
<event>
 7    1  0.1284777E-011  0.5930195E+02  0.7816164E-02  0.1266605E+00
        -11   -1    0    0    0    0  0.00000000000E+00  0.00000000000E+00  0.45593999997E+02  0.45594000000E+02  0.51100000000E-03 0. -1.
         11   -1    0    0    0    0 -0.00000000000E+00 -0.00000000000E+00 -0.45593999997E+02  0.45594000000E+02  0.51100000000E-03 0.  1.
    9900012    2    1    2    0    0  0.49001335756E+01 -0.29411197000E+02 -0.11300005382E+02  0.59301953841E+02  0.50000017897E+02 0.  0.
        -12    1    1    2    0    0 -0.49001335756E+01  0.29411197000E+02  0.11300005382E+02  0.31886046159E+02  0.00000000000E+00 0.  1.
         11    1    3    3    0    0  0.12768744446E+02 -0.29627497049E+02 -0.86797758005E+01  0.33409099424E+02  0.51100000000E-03 0. -1.
        -11    1    3    3    0    0  0.76367287269E+01  0.48308474261E+01  0.15930506599E+01  0.91757573621E+01  0.51100000000E-03 0.  1.
        -12    1    3    3    0    0 -0.15505339598E+02 -0.46145473773E+01 -0.42132802413E+01  0.16717097054E+02  0.00000000000E+00 0.  1.
</event>
<event>
 7    1  0.1284777E-011  0.5930195E+02  0.7816164E-02  0.1266605E+00
        -11   -1    0    0    0    0  0.00000000000E+00  0.00000000000E+00  0.45593999997E+02  0.45594000000E+02  0.51100000000E-03 0. -1.
         11   -1    0    0    0    0 -0.00000000000E+00 -0.00000000000E+00 -0.45593999997E+02  0.45594000000E+02  0.51100000000E-03 0.  1.
    9900012    2    1    2    0    0  0.24469578658E+02 -0.18631023948E+02 -0.84169544789E+01  0.59301945748E+02  0.50000003138E+02 0.  0.
        -12    1    1    2    0    0 -0.24469578658E+02  0.18631023948E+02  0.84169544789E+01  0.31886054252E+02  0.00000000000E+00 0.  1.
         11    1    3    3    0    0  0.90433966322E+01  0.14642710198E+01  0.68171645135E+01  0.11419318917E+02  0.51100000000E-03 0. -1.
        -11    1    3    3    0    0  0.55940070172E+01 -0.30507232599E+02 -0.92889567034E+01  0.32376980592E+02  0.51100000000E-03 0.  1.
         12    1    3    3    0    0  0.98321750086E+01  0.10411937631E+02 -0.59451622889E+01  0.15505646239E+02  0.00000000000E+00 0. -1.
</event>
<event>
 7    1  0.1284777E-011  0.5930189E+02  0.7816164E-02  0.1266605E+00
        -11   -1    0    0    0    0  0.00000000000E+00  0.00000000000E+00  0.45593999997E+02  0.45594000000E+02  0.51100000000E-03 0.  1.
         11   -1    0    0    0    0 -0.00000000000E+00 -0.00000000000E+00 -0.45593999997E+02  0.45594000000E+02  0.51100000000E-03 0. -1.
    9900012    2    1    2    0    0  0.26501574143E+02 -0.42709454780E+01 -0.17208995499E+02  0.59301891215E+02  0.49999903683E+02 0.  0.
        -12    1    1    2    0    0 -0.26501574143E+02  0.42709454780E+01  0.17208995499E+02  0.31886108785E+02  0.00000000000E+00 0.  1.
         11    1    3    3    0    0  0.13991417851E+02 -0.21519442635E+02 -0.17016423198E+02  0.30796182288E+02  0.51100000000E-03 0. -1.
        -11    1    3    3    0    0  0.52692420068E+00  0.11963424084E+01 -0.71741090262E+01  0.72922373009E+01  0.51100000000E-03 0.  1.
        -12    1    3    3    0    0  0.11983232091E+02  0.16052154748E+02  0.69815367255E+01  0.21213471627E+02  0.00000000000E+00 0.  1.
</event>
<event>
 7    1  0.1284777E-011  0.5930195E+02  0.7816164E-02  0.1266605E+00
        -11   -1    0    0    0    0  0.00000000000E+00  0.00000000000E+00  0.45593999997E+02  0.45594000000E+02  0.51100000000E-03 0. -1.
         11   -1    0    0    0    0 -0.00000000000E+00 -0.00000000000E+00 -0.45593999997E+02  0.45594000000E+02  0.51100000000E-03 0.  1.
    9900012    2    1    2    0    0 -0.31419982120E+02 -0.51731903132E+01  0.16562625914E+01  0.59301946933E+02  0.50000005298E+02 0.  0.
        -12    1    1    2    0    0  0.31419982120E+02  0.51731903132E+01 -0.16562625914E+01  0.31886053067E+02  0.00000000000E+00 0.  1.
         11    1    3    3    0    0 -0.54504894238E+01 -0.12927456258E+01 -0.44923978610E+01  0.71805755351E+01  0.51100000000E-03 0. -1.
        -11    1    3    3    0    0 -0.28735147067E+02  0.85564786911E+01 -0.99510363360E+01  0.31590269530E+02  0.51100000000E-03 0.  1.
         12    1    3    3    0    0  0.27656543711E+01 -0.12436923379E+02  0.16099696788E+02  0.20531101868E+02  0.00000000000E+00 0. -1.
</event>
<event>
 7    1  0.1284777E-011  0.5930201E+02  0.7816164E-02  0.1266605E+00
        -11   -1    0    0    0    0  0.00000000000E+00  0.00000000000E+00  0.45593999997E+02  0.45594000000E+02  0.51100000000E-03 0.  1.
         11   -1    0    0    0    0 -0.00000000000E+00 -0.00000000000E+00 -0.45593999997E+02  0.45594000000E+02  0.51100000000E-03 0. -1.
    9900012    2    1    2    0    0  0.30407597078E+02 -0.75544577074E+01 -0.59181567243E+01  0.59302009811E+02  0.50000119973E+02 0.  0.
        -12    1    1    2    0    0 -0.30407597078E+02  0.75544577074E+01  0.59181567243E+01  0.31885990189E+02  0.00000000000E+00 0.  1.
         11    1    3    3    0    0 -0.60461084302E+01 -0.23473263601E+01  0.13373714747E+01  0.66222300559E+01  0.51100000000E-03 0. -1.
        -11    1    3    3    0    0  0.29863650798E+02 -0.65753500060E+01  0.11564313440E+02  0.32692601797E+02  0.51100000000E-03 0.  1.
         12    1    3    3    0    0  0.65900547108E+01  0.13682186587E+01 -0.18819841639E+02  0.19987177958E+02  0.00000000000E+00 0. -1.
</event>
<event>
 7    1  0.1284777E-011  0.5930194E+02  0.7816164E-02  0.1266605E+00
        -11   -1    0    0    0    0  0.00000000000E+00  0.00000000000E+00  0.45593999997E+02  0.45594000000E+02  0.51100000000E-03 0. -1.
         11   -1    0    0    0    0 -0.00000000000E+00 -0.00000000000E+00 -0.45593999997E+02  0.45594000000E+02  0.51100000000E-03 0.  1.
    9900012    2    1    2    0    0  0.26369433709E+02 -0.67580247047E+01  0.16604298166E+02  0.59301942707E+02  0.49999997592E+02 0.  0.
        -12    1    1    2    0    0 -0.26369433709E+02  0.67580247047E+01 -0.16604298166E+02  0.31886057293E+02  0.00000000000E+00 0.  1.
         11    1    3    3    0    0  0.27922614429E+02  0.14336923429E+01  0.12552189506E+02  0.30647762267E+02  0.51100000000E-03 0. -1.
        -11    1    3    3    0    0  0.80930050483E+01 -0.14641606790E+02  0.17129707915E+01  0.16816885838E+02  0.51100000000E-03 0.  1.
        -12    1    3    3    0    0 -0.96461857677E+01  0.64498897420E+01  0.23391378684E+01  0.11837294603E+02  0.00000000000E+00 0.  1.
</event>
<event>
 7    1  0.1284777E-011  0.5930197E+02  0.7816164E-02  0.1266605E+00
        -11   -1    0    0    0    0  0.00000000000E+00  0.00000000000E+00  0.45593999997E+02  0.45594000000E+02  0.51100000000E-03 0. -1.
         11   -1    0    0    0    0 -0.00000000000E+00 -0.00000000000E+00 -0.45593999997E+02  0.45594000000E+02  0.51100000000E-03 0.  1.
    9900012    2    1    2    0    0 -0.28931982606E+02 -0.13153453207E+02 -0.25779392836E+01  0.59301972971E+02  0.50000052785E+02 0.  0.
        -12    1    1    2    0    0  0.28931982606E+02  0.13153453207E+02  0.25779392836E+01  0.31886027029E+02  0.00000000000E+00 0.  1.
         11    1    3    3    0    0 -0.11048492863E+02  0.32500406224E+01  0.15382848319E+02  0.19216242641E+02  0.51100000000E-03 0. -1.
        -11    1    3    3    0    0 -0.10505894095E+02  0.54084133860E+00  0.41145231128E+01  0.11295823157E+02  0.51100000000E-03 0.  1.
        -12    1    3    3    0    0 -0.73775956484E+01 -0.16944335168E+02 -0.22075310715E+02  0.28789907173E+02  0.00000000000E+00 0.  1.
</event>
<event>
 7    1  0.1300744E-011  0.5930191E+02  0.7816164E-02  0.1266605E+00
        -11   -1    0    0    0    0  0.00000000000E+00  0.00000000000E+00  0.45593999997E+02  0.45594000000E+02  0.51100000000E-03 0. -1.
         11   -1    0    0    0    0 -0.00000000000E+00 -0.00000000000E+00 -0.45593999997E+02  0.45594000000E+02  0.51100000000E-03 0.  1.
    9900012    2    1    2    0    0 -0.91800784332E+01  0.72152844858E+01  0.29671337715E+02  0.59301914445E+02  0.49999946048E+02 0.  0.
        -12    1    1    2    0    0  0.91800784332E+01 -0.72152844858E+01 -0.29671337715E+02  0.31886085555E+02  0.00000000000E+00 0.  1.
         11    1    3    3    0    0  0.78218464925E+01 -0.47367944071E-01  0.16633810741E+02  0.18381163899E+02  0.51100000000E-03 0. -1.
        -11    1    3    3    0    0  0.85899022824E+01  0.47337617037E+01 -0.34222300138E+01  0.10387809183E+02  0.51100000000E-03 0.  1.
         12    1    3    3    0    0 -0.25591827208E+02  0.25288907261E+01  0.16459756988E+02  0.30532941363E+02  0.00000000000E+00 0. -1.
</event>
<event>
 7    1  0.1284777E-011  0.5930195E+02  0.7816164E-02  0.1266605E+00
        -11   -1    0    0    0    0  0.00000000000E+00  0.00000000000E+00  0.45593999997E+02  0.45594000000E+02  0.51100000000E-03 0.  1.
         11   -1    0    0    0    0 -0.00000000000E+00 -0.00000000000E+00 -0.45593999997E+02  0.45594000000E+02  0.51100000000E-03 0. -1.
    9900012    2    1    2    0    0 -0.35968705563E+01  0.81350910475E+01 -0.30620299592E+02  0.59301953973E+02  0.50000018138E+02 0.  0.
        -12    1    1    2    0    0  0.35968705563E+01 -0.81350910475E+01  0.30620299592E+02  0.31886046027E+02  0.00000000000E+00 0.  1.
         11    1    3    3    0    0 -0.12916067235E+02  0.18462821958E+02 -0.10962532145E+02  0.25057487878E+02  0.51100000000E-03 0. -1.
        -11    1    3    3    0    0 -0.39611780183E+01  0.54923657665E+01 -0.81625448597E+01  0.10605854603E+02  0.51100000000E-03 0.  1.
        -12    1    3    3    0    0  0.13280374697E+02 -0.15820096677E+02 -0.11495222587E+02  0.23638611492E+02  0.00000000000E+00 0.  1.
</event>
<event>
 7    1  0.1284777E-011  0.5930195E+02  0.7816164E-02  0.1266605E+00
        -11   -1    0    0    0    0  0.00000000000E+00  0.00000000000E+00  0.45593999997E+02  0.45594000000E+02  0.51100000000E-03 0. -1.
         11   -1    0    0    0    0 -0.00000000000E+00 -0.00000000000E+00 -0.45593999997E+02  0.45594000000E+02  0.51100000000E-03 0.  1.
    9900012    2    1    2    0    0 -0.46327532202E+01 -0.31176430704E+02 -0.48257837405E+01  0.59301946269E+02  0.50000004087E+02 0.  0.
        -12    1    1    2    0    0  0.46327532202E+01  0.31176430704E+02  0.48257837405E+01  0.31886053731E+02  0.00000000000E+00 0.  1.
         11    1    3    3    0    0 -0.10386207441E+02  0.39112206675E+00 -0.49217716612E+00  0.10405216004E+02  0.51100000000E-03 0.  1.
        -11    1    3    3    0    0  0.57188901110E+01 -0.13201953656E+00 -0.14717843718E+02  0.15790441958E+02  0.51100000000E-03 0. -1.
         12    1    3    3    0    0  0.34564109452E-01 -0.31435533234E+02  0.10384237144E+02  0.33106288307E+02  0.00000000000E+00 0. -1.
</event>
<event>
 7    1  0.1284777E-011  0.5930197E+02  0.7816164E-02  0.1266605E+00
        -11   -1    0    0    0    0  0.00000000000E+00  0.00000000000E+00  0.45593999997E+02  0.45594000000E+02  0.51100000000E-03 0.  1.
         11   -1    0    0    0    0 -0.00000000000E+00 -0.00000000000E+00 -0.45593999997E+02  0.45594000000E+02  0.51100000000E-03 0. -1.
    9900012    2    1    2    0    0 -0.62567122868E+01 -0.13103819576E+02 -0.28387719417E+02  0.59301966226E+02  0.50000040485E+02 0.  0.
        -12    1    1    2    0    0  0.62567122868E+01  0.13103819576E+02  0.28387719417E+02  0.31886033774E+02  0.00000000000E+00 0.  1.
         11    1    3    3    0    0  0.15800221986E+02  0.91868665902E+01 -0.23608591556E+01  0.18428759827E+02  0.51100000000E-03 0.  1.
        -11    1    3    3    0    0 -0.10051421503E+02 -0.98531672685E+01 -0.96897092807E+01  0.17088196092E+02  0.51100000000E-03 0. -1.
        -12    1    3    3    0    0 -0.12005512769E+02 -0.12437518897E+02 -0.16337150981E+02  0.23785010308E+02  0.00000000000E+00 0.  1.
</event>
<event>
 7    1  0.1284777E-011  0.5930189E+02  0.7816164E-02  0.1266605E+00
        -11   -1    0    0    0    0  0.00000000000E+00  0.00000000000E+00  0.45593999997E+02  0.45594000000E+02  0.51100000000E-03 0.  1.
         11   -1    0    0    0    0 -0.00000000000E+00 -0.00000000000E+00 -0.45593999997E+02  0.45594000000E+02  0.51100000000E-03 0. -1.
    9900012    2    1    2    0    0  0.17170416575E+02 -0.20362880837E+02 -0.17528655321E+02  0.59301892074E+02  0.49999905248E+02 0.  0.
        -12    1    1    2    0    0 -0.17170416575E+02  0.20362880837E+02  0.17528655321E+02  0.31886107926E+02  0.00000000000E+00 0.  1.
         11    1    3    3    0    0  0.22124900661E+00  0.20182438927E+01 -0.73505319550E+01  0.76257838821E+01  0.51100000000E-03 0. -1.
        -11    1    3    3    0    0  0.27549905606E+01  0.12541973038E+02 -0.41816794821E+01  0.13504721553E+02  0.51100000000E-03 0.  1.
        -12    1    3    3    0    0  0.14194177007E+02 -0.34923097768E+02 -0.59964438836E+01  0.38171386638E+02  0.00000000000E+00 0.  1.
</event>
<event>
 7    1  0.1284777E-011  0.5930194E+02  0.7816164E-02  0.1266605E+00
        -11   -1    0    0    0    0  0.00000000000E+00  0.00000000000E+00  0.45593999997E+02  0.45594000000E+02  0.51100000000E-03 0.  1.
         11   -1    0    0    0    0 -0.00000000000E+00 -0.00000000000E+00 -0.45593999997E+02  0.45594000000E+02  0.51100000000E-03 0. -1.
    9900012    2    1    2    0    0 -0.29516025574E+01 -0.30680700070E+02  0.81672120301E+01  0.59301942439E+02  0.49999997102E+02 0.  0.
        -12    1    1    2    0    0  0.29516025574E+01  0.30680700070E+02 -0.81672120301E+01  0.31886057561E+02  0.00000000000E+00 0.  1.
         11    1    3    3    0    0 -0.87093805557E+01 -0.92397883079E+01 -0.10664877610E+02  0.16582117245E+02  0.51100000000E-03 0.  1.
        -11    1    3    3    0    0 -0.97390155384E+01 -0.63626742074E+01 -0.29781815379E+01  0.12008397573E+02  0.51100000000E-03 0. -1.
         12    1    3    3    0    0  0.15496793537E+02 -0.15078237555E+02  0.21810271178E+02  0.30711427621E+02  0.00000000000E+00 0. -1.
</event>
<event>
 7    1  0.1284777E-011  0.5930193E+02  0.7816164E-02  0.1266605E+00
        -11   -1    0    0    0    0  0.00000000000E+00  0.00000000000E+00  0.45593999997E+02  0.45594000000E+02  0.51100000000E-03 0. -1.
         11   -1    0    0    0    0 -0.00000000000E+00 -0.00000000000E+00 -0.45593999997E+02  0.45594000000E+02  0.51100000000E-03 0.  1.
    9900012    2    1    2    0    0 -0.26141646847E+02  0.18249912903E+02 -0.52553852926E+00  0.59301933896E+02  0.49999981522E+02 0.  0.
        -12    1    1    2    0    0  0.26141646847E+02 -0.18249912903E+02  0.52553852926E+00  0.31886066104E+02  0.00000000000E+00 0.  1.
         11    1    3    3    0    0 -0.23472874490E+02  0.15781508004E+02  0.34042924947E+01  0.28488963465E+02  0.51100000000E-03 0. -1.
        -11    1    3    3    0    0 -0.69997528639E+01  0.42608012394E-01  0.12129241263E+02  0.14004172574E+02  0.51100000000E-03 0.  1.
        -12    1    3    3    0    0  0.43309805066E+01  0.24257968871E+01 -0.16059072287E+02  0.16808797857E+02  0.00000000000E+00 0.  1.
</event>
<event>
 7    1  0.1284777E-011  0.5930194E+02  0.7816164E-02  0.1266605E+00
        -11   -1    0    0    0    0  0.00000000000E+00  0.00000000000E+00  0.45593999997E+02  0.45594000000E+02  0.51100000000E-03 0.  1.
         11   -1    0    0    0    0 -0.00000000000E+00 -0.00000000000E+00 -0.45593999997E+02  0.45594000000E+02  0.51100000000E-03 0. -1.
    9900012    2    1    2    0    0 -0.62097488687E+01  0.87501389298E+01 -0.30026566522E+02  0.59301943339E+02  0.49999998744E+02 0.  0.
        -12    1    1    2    0    0  0.62097488687E+01 -0.87501389298E+01  0.30026566522E+02  0.31886056661E+02  0.00000000000E+00 0.  1.
         11    1    3    3    0    0  0.13784899494E+02 -0.34660973968E+01 -0.10799452803E+02  0.17851203498E+02  0.51100000000E-03 0. -1.
        -11    1    3    3    0    0 -0.15161741154E+02 -0.33290066742E+01 -0.19802410289E+02  0.25161401665E+02  0.51100000000E-03 0.  1.
        -12    1    3    3    0    0 -0.48329072087E+01  0.15545243001E+02  0.57529657013E+00  0.16289338175E+02  0.00000000000E+00 0.  1.
</event>
<event>
 7    1  0.1284777E-011  0.5930195E+02  0.7816164E-02  0.1266605E+00
        -11   -1    0    0    0    0  0.00000000000E+00  0.00000000000E+00  0.45593999997E+02  0.45594000000E+02  0.51100000000E-03 0.  1.
         11   -1    0    0    0    0 -0.00000000000E+00 -0.00000000000E+00 -0.45593999997E+02  0.45594000000E+02  0.51100000000E-03 0. -1.
    9900012    2    1    2    0    0  0.16819151271E+02  0.13273520195E+02 -0.23614613415E+02  0.59301950471E+02  0.50000011750E+02 0.  0.
        -12    1    1    2    0    0 -0.16819151271E+02 -0.13273520195E+02  0.23614613415E+02  0.31886049529E+02  0.00000000000E+00 0.  1.
         11    1    3    3    0    0 -0.43942262734E+01  0.20076523866E+01  0.43080069349E+01  0.64729295269E+01  0.51100000000E-03 0. -1.
        -11    1    3    3    0    0  0.40397272881E+01  0.32340085858E+01  0.95338463956E+01  0.10847692633E+02  0.51100000000E-03 0.  1.
         12    1    3    3    0    0  0.17173650257E+02  0.80318592225E+01 -0.37456466746E+02  0.41981328311E+02  0.00000000000E+00 0. -1.
</event>
<event>
 7    1  0.1284777E-011  0.5930193E+02  0.7816164E-02  0.1266605E+00
        -11   -1    0    0    0    0  0.00000000000E+00  0.00000000000E+00  0.45593999997E+02  0.45594000000E+02  0.51100000000E-03 0. -1.
         11   -1    0    0    0    0 -0.00000000000E+00 -0.00000000000E+00 -0.45593999997E+02  0.45594000000E+02  0.51100000000E-03 0.  1.
    9900012    2    1    2    0    0 -0.19794846138E+02  0.91136439339E+01  0.23277184732E+02  0.59301925164E+02  0.49999965598E+02 0.  0.
        -12    1    1    2    0    0  0.19794846138E+02 -0.91136439339E+01 -0.23277184732E+02  0.31886074836E+02  0.00000000000E+00 0.  1.
         11    1    3    3    0    0 -0.29778693011E+01  0.12709476289E+02  0.25356677773E+02  0.28519460042E+02  0.51100000000E-03 0. -1.
        -11    1    3    3    0    0 -0.34438910351E+01 -0.11423919383E+02  0.59466103007E+01  0.13331485058E+02  0.51100000000E-03 0.  1.
        -12    1    3    3    0    0 -0.13373085801E+02  0.78280870274E+01 -0.80261033419E+01  0.17450980065E+02  0.00000000000E+00 0.  1.
</event>
<event>
 7    1  0.1284777E-011  0.5930194E+02  0.7816164E-02  0.1266605E+00
        -11   -1    0    0    0    0  0.00000000000E+00  0.00000000000E+00  0.45593999997E+02  0.45594000000E+02  0.51100000000E-03 0.  1.
         11   -1    0    0    0    0 -0.00000000000E+00 -0.00000000000E+00 -0.45593999997E+02  0.45594000000E+02  0.51100000000E-03 0. -1.
    9900012    2    1    2    0    0  0.30869815353E+02 -0.44196314619E+01 -0.66514755959E+01  0.59301940823E+02  0.49999994156E+02 0.  0.
        -12    1    1    2    0    0 -0.30869815353E+02  0.44196314619E+01  0.66514755959E+01  0.31886059177E+02  0.00000000000E+00 0.  1.
         11    1    3    3    0    0  0.63108373450E+01 -0.16711730066E+02  0.39175258255E+01  0.18288127259E+02  0.51100000000E-03 0. -1.
        -11    1    3    3    0    0  0.17529964930E+01 -0.74217360348E+01  0.26829676847E+01  0.80841498213E+01  0.51100000000E-03 0.  1.
         12    1    3    3    0    0  0.22805981515E+02  0.19713834639E+02 -0.13251969106E+02  0.32929663743E+02  0.00000000000E+00 0. -1.
</event>
<event>
 7    1  0.1284777E-011  0.5930193E+02  0.7816164E-02  0.1266605E+00
        -11   -1    0    0    0    0  0.00000000000E+00  0.00000000000E+00  0.45593999997E+02  0.45594000000E+02  0.51100000000E-03 0.  1.
         11   -1    0    0    0    0 -0.00000000000E+00 -0.00000000000E+00 -0.45593999997E+02  0.45594000000E+02  0.51100000000E-03 0. -1.
    9900012    2    1    2    0    0  0.12210792985E+02  0.28444957786E+02 -0.76486657106E+01  0.59301934456E+02  0.49999982543E+02 0.  0.
        -12    1    1    2    0    0 -0.12210792985E+02 -0.28444957786E+02  0.76486657106E+01  0.31886065544E+02  0.00000000000E+00 0.  1.
         11    1    3    3    0    0  0.12299326425E+02  0.18155018166E+02 -0.18985542752E+01  0.22010965988E+02  0.51100000000E-03 0. -1.
        -11    1    3    3    0    0  0.11217927650E+02 -0.90140226589E+01 -0.10339707674E+01  0.14427875833E+02  0.51100000000E-03 0.  1.
         12    1    3    3    0    0 -0.11306461090E+02  0.19303962278E+02 -0.47161406679E+01  0.22863092634E+02  0.00000000000E+00 0. -1.
</event>
<event>
 7    1  0.1284777E-011  0.5930197E+02  0.7816164E-02  0.1266605E+00
        -11   -1    0    0    0    0  0.00000000000E+00  0.00000000000E+00  0.45593999997E+02  0.45594000000E+02  0.51100000000E-03 0.  1.
         11   -1    0    0    0    0 -0.00000000000E+00 -0.00000000000E+00 -0.45593999997E+02  0.45594000000E+02  0.51100000000E-03 0. -1.
    9900012    2    1    2    0    0  0.25036909949E+02 -0.16292380481E+02 -0.11154841251E+02  0.59301968500E+02  0.50000044631E+02 0.  0.
        -12    1    1    2    0    0 -0.25036909949E+02  0.16292380481E+02  0.11154841251E+02  0.31886031500E+02  0.00000000000E+00 0.  1.
         11    1    3    3    0    0  0.96873758121E+01 -0.14568324399E+02 -0.94009339515E+01  0.19860989032E+02  0.51100000000E-03 0. -1.
        -11    1    3    3    0    0  0.14474576555E+02 -0.35003315878E+01  0.15837094396E+02  0.21738887894E+02  0.51100000000E-03 0.  1.
         12    1    3    3    0    0  0.87495758108E+00  0.17762755063E+01 -0.17591001695E+02  0.17702091574E+02  0.00000000000E+00 0. -1.
</event>
<event>
 7    1  0.1284777E-011  0.5930176E+02  0.7816164E-02  0.1266605E+00
        -11   -1    0    0    0    0  0.00000000000E+00  0.00000000000E+00  0.45593999997E+02  0.45594000000E+02  0.51100000000E-03 0.  1.
         11   -1    0    0    0    0 -0.00000000000E+00 -0.00000000000E+00 -0.45593999997E+02  0.45594000000E+02  0.51100000000E-03 0. -1.
    9900012    2    1    2    0    0 -0.19555305666E+02  0.10726970897E+02 -0.22787154787E+02  0.59301759902E+02  0.49999664198E+02 0.  0.
        -12    1    1    2    0    0  0.19555305666E+02 -0.10726970897E+02  0.22787154787E+02  0.31886240098E+02  0.00000000000E+00 0.  1.
         11    1    3    3    0    0 -0.75017127899E+01 -0.16716149770E+01 -0.24281600871E+02  0.25468924841E+02  0.51100000000E-03 0. -1.
        -11    1    3    3    0    0 -0.35285167000E+01  0.24987724672E+01 -0.13364909060E+02  0.14046888922E+02  0.51100000000E-03 0.  1.
        -12    1    3    3    0    0 -0.85250761757E+01  0.98998134072E+01  0.14859355145E+02  0.19785946139E+02  0.00000000000E+00 0.  1.
</event>
<event>
 7    1  0.1284777E-011  0.5930195E+02  0.7816164E-02  0.1266605E+00
        -11   -1    0    0    0    0  0.00000000000E+00  0.00000000000E+00  0.45593999997E+02  0.45594000000E+02  0.51100000000E-03 0. -1.
         11   -1    0    0    0    0 -0.00000000000E+00 -0.00000000000E+00 -0.45593999997E+02  0.45594000000E+02  0.51100000000E-03 0.  1.
    9900012    2    1    2    0    0  0.19042098573E+02 -0.11104244776E+01 -0.25551627489E+02  0.59301949321E+02  0.50000009653E+02 0.  0.
        -12    1    1    2    0    0 -0.19042098573E+02  0.11104244776E+01  0.25551627489E+02  0.31886050679E+02  0.00000000000E+00 0.  1.
         11    1    3    3    0    0 -0.13550777026E+01  0.51266135314E+01  0.50714383804E+00  0.53268749764E+01  0.51100000000E-03 0. -1.
        -11    1    3    3    0    0 -0.39338243638E+01  0.12480694548E+02  0.90445160399E+00  0.13117192668E+02  0.51100000000E-03 0.  1.
         12    1    3    3    0    0  0.24331000640E+02 -0.18717732557E+02 -0.26963222931E+02  0.40857881676E+02  0.00000000000E+00 0. -1.
</event>
<event>
 7    1  0.1284777E-011  0.5930195E+02  0.7816164E-02  0.1266605E+00
        -11   -1    0    0    0    0  0.00000000000E+00  0.00000000000E+00  0.45593999997E+02  0.45594000000E+02  0.51100000000E-03 0.  1.
         11   -1    0    0    0    0 -0.00000000000E+00 -0.00000000000E+00 -0.45593999997E+02  0.45594000000E+02  0.51100000000E-03 0. -1.
    9900012    2    1    2    0    0 -0.21627327966E+01 -0.11760121137E+02 -0.29559129162E+02  0.59301953222E+02  0.50000016769E+02 0.  0.
        -12    1    1    2    0    0  0.21627327966E+01  0.11760121137E+02  0.29559129162E+02  0.31886046778E+02  0.00000000000E+00 0.  1.
         11    1    3    3    0    0  0.11146006057E+02 -0.17767318105E+02 -0.11483330053E+02  0.23911878074E+02  0.51100000000E-03 0. -1.
        -11    1    3    3    0    0 -0.81403319176E+01 -0.25245996596E+00 -0.23997655339E+02  0.25341984962E+02  0.51100000000E-03 0.  1.
        -12    1    3    3    0    0 -0.51684069362E+01  0.62596569342E+01  0.59218562302E+01  0.10048090187E+02  0.00000000000E+00 0.  1.
</event>
<event>
 7    1  0.1284777E-011  0.5930195E+02  0.7816164E-02  0.1266605E+00
        -11   -1    0    0    0    0  0.00000000000E+00  0.00000000000E+00  0.45593999997E+02  0.45594000000E+02  0.51100000000E-03 0. -1.
         11   -1    0    0    0    0 -0.00000000000E+00 -0.00000000000E+00 -0.45593999997E+02  0.45594000000E+02  0.51100000000E-03 0.  1.
    9900012    2    1    2    0    0 -0.31721341827E+02 -0.24435670583E+01 -0.21226276986E+01  0.59301951395E+02  0.50000013436E+02 0.  0.
        -12    1    1    2    0    0  0.31721341827E+02  0.24435670583E+01  0.21226276986E+01  0.31886048605E+02  0.00000000000E+00 0.  1.
         11    1    3    3    0    0 -0.30333260071E+02 -0.16469404432E+01  0.52205564041E+01  0.30823258893E+02  0.51100000000E-03 0. -1.
        -11    1    3    3    0    0 -0.40760268575E+01 -0.11441981130E+02 -0.11511488677E+02  0.16734613797E+02  0.51100000000E-03 0.  1.
         12    1    3    3    0    0  0.26879451008E+01  0.10645354515E+02  0.41683045743E+01  0.11744078705E+02  0.00000000000E+00 0. -1.
</event>
<event>
 7    1  0.1284777E-011  0.5930193E+02  0.7816164E-02  0.1266605E+00
        -11   -1    0    0    0    0  0.00000000000E+00  0.00000000000E+00  0.45593999997E+02  0.45594000000E+02  0.51100000000E-03 0.  1.
         11   -1    0    0    0    0 -0.00000000000E+00 -0.00000000000E+00 -0.45593999997E+02  0.45594000000E+02  0.51100000000E-03 0. -1.
    9900012    2    1    2    0    0 -0.28571497055E+02  0.13112954319E+02  0.53330238219E+01  0.59301934736E+02  0.49999983054E+02 0.  0.
        -12    1    1    2    0    0  0.28571497055E+02 -0.13112954319E+02 -0.53330238219E+01  0.31886065264E+02  0.00000000000E+00 0.  1.
         11    1    3    3    0    0  0.20645231614E+01 -0.11517119419E+02 -0.63107506081E+01  0.13294053900E+02  0.51100000000E-03 0. -1.
        -11    1    3    3    0    0 -0.10499609557E+02 -0.24201374933E+01  0.23461241053E+01  0.11027382505E+02  0.51100000000E-03 0.  1.
        -12    1    3    3    0    0 -0.20136410659E+02  0.27050211232E+02  0.92976503246E+01  0.34980498331E+02  0.00000000000E+00 0.  1.
</event>
<event>
 7    1  0.1284777E-011  0.5930221E+02  0.7816164E-02  0.1266604E+00
        -11   -1    0    0    0    0  0.00000000000E+00  0.00000000000E+00  0.45593999997E+02  0.45594000000E+02  0.51100000000E-03 0. -1.
         11   -1    0    0    0    0 -0.00000000000E+00 -0.00000000000E+00 -0.45593999997E+02  0.45594000000E+02  0.51100000000E-03 0.  1.
    9900012    2    1    2    0    0 -0.27401331814E+02 -0.97263248407E+01  0.13086974839E+02  0.59302214914E+02  0.50000494029E+02 0.  0.
        -12    1    1    2    0    0  0.27401331814E+02  0.97263248407E+01 -0.13086974839E+02  0.31885785086E+02  0.00000000000E+00 0.  1.
         11    1    3    3    0    0 -0.26162346207E+02 -0.22718010615E+02  0.15159406532E+02  0.37820417396E+02  0.51100000000E-03 0. -1.
        -11    1    3    3    0    0 -0.21233312958E+01  0.38833303361E+01 -0.89832011160E+01  0.10014324383E+02  0.51100000000E-03 0.  1.
         12    1    3    3    0    0  0.88434568853E+00  0.91083554382E+01  0.69107694233E+01  0.11467473135E+02  0.00000000000E+00 0. -1.
</event>
<event>
 7    1  0.1284777E-011  0.5930194E+02  0.7816164E-02  0.1266605E+00
        -11   -1    0    0    0    0  0.00000000000E+00  0.00000000000E+00  0.45593999997E+02  0.45594000000E+02  0.51100000000E-03 0.  1.
         11   -1    0    0    0    0 -0.00000000000E+00 -0.00000000000E+00 -0.45593999997E+02  0.45594000000E+02  0.51100000000E-03 0. -1.
    9900012    2    1    2    0    0  0.11780889180E+02 -0.21787557932E+02 -0.20080676357E+02  0.59301943589E+02  0.49999999200E+02 0.  0.
        -12    1    1    2    0    0 -0.11780889180E+02  0.21787557932E+02  0.20080676357E+02  0.31886056411E+02  0.00000000000E+00 0.  1.
         11    1    3    3    0    0  0.49285312933E+01 -0.39696806269E+01 -0.45172963302E+01  0.77752653578E+01  0.51100000000E-03 0. -1.
        -11    1    3    3    0    0 -0.98574388559E+01 -0.10436747063E+02 -0.26569483117E+02  0.30199871249E+02  0.51100000000E-03 0.  1.
         12    1    3    3    0    0  0.16709796742E+02 -0.73811302422E+01  0.11006103091E+02  0.21326806982E+02  0.00000000000E+00 0. -1.
</event>
<event>
 7    1  0.1284777E-011  0.5930198E+02  0.7816164E-02  0.1266605E+00
        -11   -1    0    0    0    0  0.00000000000E+00  0.00000000000E+00  0.45593999997E+02  0.45594000000E+02  0.51100000000E-03 0.  1.
         11   -1    0    0    0    0 -0.00000000000E+00 -0.00000000000E+00 -0.45593999997E+02  0.45594000000E+02  0.51100000000E-03 0. -1.
    9900012    2    1    2    0    0 -0.29827623753E+02 -0.99530704991E+01 -0.52884291834E+01  0.59301980582E+02  0.50000066666E+02 0.  0.
        -12    1    1    2    0    0  0.29827623753E+02  0.99530704991E+01  0.52884291834E+01  0.31886019418E+02  0.00000000000E+00 0.  1.
         11    1    3    3    0    0 -0.26104918735E+02 -0.16086580167E+02  0.83432806472E+01  0.31778218576E+02  0.51100000000E-03 0. -1.
        -11    1    3    3    0    0 -0.80465111130E+01 -0.58089368666E+01 -0.10488595405E+02  0.14439554094E+02  0.51100000000E-03 0.  1.
        -12    1    3    3    0    0  0.43238060953E+01  0.11942446534E+02 -0.31431144254E+01  0.13084207911E+02  0.00000000000E+00 0.  1.
</event>
<event>
 7    1  0.1284777E-011  0.5930196E+02  0.7816164E-02  0.1266605E+00
        -11   -1    0    0    0    0  0.00000000000E+00  0.00000000000E+00  0.45593999997E+02  0.45594000000E+02  0.51100000000E-03 0.  1.
         11   -1    0    0    0    0 -0.00000000000E+00 -0.00000000000E+00 -0.45593999997E+02  0.45594000000E+02  0.51100000000E-03 0. -1.
    9900012    2    1    2    0    0  0.69827167268E+01  0.11139711971E+02 -0.29049404225E+02  0.59301962280E+02  0.50000033287E+02 0.  0.
        -12    1    1    2    0    0 -0.69827167268E+01 -0.11139711971E+02  0.29049404225E+02  0.31886037720E+02  0.00000000000E+00 0.  1.
         11    1    3    3    0    0 -0.60239542400E+01 -0.11926208282E+02 -0.25994426836E+01  0.13611743870E+02  0.51100000000E-03 0. -1.
        -11    1    3    3    0    0  0.13492584561E+02 -0.65329438465E+00 -0.88251540032E+01  0.16135673990E+02  0.51100000000E-03 0.  1.
        -12    1    3    3    0    0 -0.48591359390E+00  0.23719214638E+02 -0.17624807538E+02  0.29554544419E+02  0.00000000000E+00 0.  1.
</event>
<event>
 7    1  0.1284777E-011  0.5930193E+02  0.7816164E-02  0.1266605E+00
        -11   -1    0    0    0    0  0.00000000000E+00  0.00000000000E+00  0.45593999997E+02  0.45594000000E+02  0.51100000000E-03 0.  1.
         11   -1    0    0    0    0 -0.00000000000E+00 -0.00000000000E+00 -0.45593999997E+02  0.45594000000E+02  0.51100000000E-03 0. -1.
    9900012    2    1    2    0    0 -0.23712863447E+02 -0.11602833177E+02 -0.17882830778E+02  0.59301933024E+02  0.49999979931E+02 0.  0.
        -12    1    1    2    0    0  0.23712863447E+02  0.11602833177E+02  0.17882830778E+02  0.31886066976E+02  0.00000000000E+00 0.  1.
         11    1    3    3    0    0 -0.18159105613E+02 -0.98501222741E+01  0.17064921558E+01  0.20728968648E+02  0.51100000000E-03 0. -1.
        -11    1    3    3    0    0 -0.72806272556E+01  0.13678830858E+02 -0.28774084363E+01  0.15760628999E+02  0.51100000000E-03 0.  1.
        -12    1    3    3    0    0  0.17268694218E+01 -0.15431541761E+02 -0.16711914498E+02  0.22812335376E+02  0.00000000000E+00 0.  1.
</event>
<event>
 7    1  0.1573839E-011  0.5930195E+02  0.7816164E-02  0.1266605E+00
        -11   -1    0    0    0    0  0.00000000000E+00  0.00000000000E+00  0.45593999997E+02  0.45594000000E+02  0.51100000000E-03 0. -1.
         11   -1    0    0    0    0 -0.00000000000E+00 -0.00000000000E+00 -0.45593999997E+02  0.45594000000E+02  0.51100000000E-03 0.  1.
    9900012    2    1    2    0    0  0.23618346111E+02 -0.15282514665E+02  0.15011289966E+02  0.59301947344E+02  0.50000006048E+02 0.  0.
        -12    1    1    2    0    0 -0.23618346111E+02  0.15282514665E+02 -0.15011289966E+02  0.31886052656E+02  0.00000000000E+00 0.  1.
         11    1    3    3    0    0 -0.10448016669E+02 -0.72065294476E+01  0.53317564944E+01  0.13766726066E+02  0.51100000000E-03 0. -1.
        -11    1    3    3    0    0 -0.38774362583E+01  0.28961916458E-01 -0.27944594771E+01  0.47795768390E+01  0.51100000000E-03 0.  1.
         12    1    3    3    0    0  0.37943799039E+02 -0.81049471343E+01  0.12473992949E+02  0.40755644439E+02  0.00000000000E+00 0. -1.
</event>
<event>
 7    1  0.1284777E-011  0.5930194E+02  0.7816164E-02  0.1266605E+00
        -11   -1    0    0    0    0  0.00000000000E+00  0.00000000000E+00  0.45593999997E+02  0.45594000000E+02  0.51100000000E-03 0. -1.
         11   -1    0    0    0    0 -0.00000000000E+00 -0.00000000000E+00 -0.45593999997E+02  0.45594000000E+02  0.51100000000E-03 0.  1.
    9900012    2    1    2    0    0  0.16460579060E+02  0.20632056753E+02  0.17891018485E+02  0.59301937664E+02  0.49999988394E+02 0.  0.
        -12    1    1    2    0    0 -0.16460579060E+02 -0.20632056753E+02 -0.17891018485E+02  0.31886062336E+02  0.00000000000E+00 0.  1.
         11    1    3    3    0    0  0.92886453599E+01  0.94523384966E+01  0.69516940542E+00  0.13270602716E+02  0.51100000000E-03 0. -1.
        -11    1    3    3    0    0 -0.13448271353E+02  0.11457001986E+02  0.18226480253E+02  0.25383527721E+02  0.51100000000E-03 0.  1.
         12    1    3    3    0    0  0.20620205053E+02 -0.27728372947E+00 -0.10306311728E+01  0.20647807228E+02  0.00000000000E+00 0. -1.
</event>
<event>
 7    1  0.1284777E-011  0.5930199E+02  0.7816164E-02  0.1266605E+00
        -11   -1    0    0    0    0  0.00000000000E+00  0.00000000000E+00  0.45593999997E+02  0.45594000000E+02  0.51100000000E-03 0. -1.
         11   -1    0    0    0    0 -0.00000000000E+00 -0.00000000000E+00 -0.45593999997E+02  0.45594000000E+02  0.51100000000E-03 0.  1.
    9900012    2    1    2    0    0  0.25778844730E+02  0.92135874061E+01 -0.16348665772E+02  0.59301985809E+02  0.50000076199E+02 0.  0.
        -12    1    1    2    0    0 -0.25778844730E+02 -0.92135874061E+01  0.16348665772E+02  0.31886014191E+02  0.00000000000E+00 0.  1.
         11    1    3    3    0    0  0.23907924674E+01 -0.93073940140E+01  0.75225625433E+01  0.12203787094E+02  0.51100000000E-03 0. -1.
        -11    1    3    3    0    0 -0.33688010742E+01  0.12299806279E+02 -0.10633771336E+02  0.16604552034E+02  0.51100000000E-03 0.  1.
        -12    1    3    3    0    0  0.26756853336E+02  0.62211751413E+01 -0.13237456980E+02  0.30493646681E+02  0.00000000000E+00 0.  1.
</event>
<event>
 7    1  0.1284777E-011  0.5930194E+02  0.7816164E-02  0.1266605E+00
        -11   -1    0    0    0    0  0.00000000000E+00  0.00000000000E+00  0.45593999997E+02  0.45594000000E+02  0.51100000000E-03 0.  1.
         11   -1    0    0    0    0 -0.00000000000E+00 -0.00000000000E+00 -0.45593999997E+02  0.45594000000E+02  0.51100000000E-03 0. -1.
    9900012    2    1    2    0    0 -0.46865663209E+01 -0.11387469897E+02 -0.29412286588E+02  0.59301937576E+02  0.49999988234E+02 0.  0.
        -12    1    1    2    0    0  0.46865663209E+01  0.11387469897E+02  0.29412286588E+02  0.31886062424E+02  0.00000000000E+00 0.  1.
         11    1    3    3    0    0  0.17687640565E+02 -0.38219219957E+01 -0.10094613528E+02  0.20721026496E+02  0.51100000000E-03 0. -1.
        -11    1    3    3    0    0 -0.49837918100E+01 -0.86465914676E+01 -0.18640197148E+02  0.21143762078E+02  0.51100000000E-03 0.  1.
        -12    1    3    3    0    0 -0.17390415076E+02  0.10810435660E+01 -0.67747591165E+00  0.17437149002E+02  0.00000000000E+00 0.  1.
</event>
<event>
 7    1  0.1284777E-011  0.5930195E+02  0.7816164E-02  0.1266605E+00
        -11   -1    0    0    0    0  0.00000000000E+00  0.00000000000E+00  0.45593999997E+02  0.45594000000E+02  0.51100000000E-03 0. -1.
         11   -1    0    0    0    0 -0.00000000000E+00 -0.00000000000E+00 -0.45593999997E+02  0.45594000000E+02  0.51100000000E-03 0.  1.
    9900012    2    1    2    0    0  0.22109663501E+02  0.79381173686E+01  0.21560830803E+02  0.59301947369E+02  0.50000006093E+02 0.  0.
        -12    1    1    2    0    0 -0.22109663501E+02 -0.79381173686E+01 -0.21560830803E+02  0.31886052631E+02  0.00000000000E+00 0.  1.
         11    1    3    3    0    0  0.39547655336E+01  0.21854576597E+02  0.12804601353E+02  0.25636312229E+02  0.51100000000E-03 0. -1.
        -11    1    3    3    0    0 -0.21709346267E+01  0.43812678905E+01 -0.18327193028E+00  0.48930618577E+01  0.51100000000E-03 0.  1.
         12    1    3    3    0    0  0.20325832594E+02 -0.18297727118E+02  0.89395013807E+01  0.28772573282E+02  0.00000000000E+00 0. -1.
</event>
<event>
 7    1  0.1284777E-011  0.5930195E+02  0.7816164E-02  0.1266605E+00
        -11   -1    0    0    0    0  0.00000000000E+00  0.00000000000E+00  0.45593999997E+02  0.45594000000E+02  0.51100000000E-03 0.  1.
         11   -1    0    0    0    0 -0.00000000000E+00 -0.00000000000E+00 -0.45593999997E+02  0.45594000000E+02  0.51100000000E-03 0. -1.
    9900012    2    1    2    0    0 -0.11967359082E+02 -0.63029600648E+01 -0.28875165321E+02  0.59301950365E+02  0.50000011558E+02 0.  0.
        -12    1    1    2    0    0  0.11967359082E+02  0.63029600648E+01  0.28875165321E+02  0.31886049635E+02  0.00000000000E+00 0.  1.
         11    1    3    3    0    0  0.53630259092E+01  0.60750021554E+00  0.17133297046E+01  0.56627380614E+01  0.51100000000E-03 0. -1.
        -11    1    3    3    0    0  0.97977181553E+01  0.75407062234E+01 -0.39903226749E+01  0.12991543662E+02  0.51100000000E-03 0.  1.
         12    1    3    3    0    0 -0.27128103147E+02 -0.14451166504E+02 -0.26598172351E+02  0.40647668642E+02  0.00000000000E+00 0. -1.
</event>
<event>
 7    1  0.1284777E-011  0.5930186E+02  0.7816164E-02  0.1266605E+00
        -11   -1    0    0    0    0  0.00000000000E+00  0.00000000000E+00  0.45593999997E+02  0.45594000000E+02  0.51100000000E-03 0.  1.
         11   -1    0    0    0    0 -0.00000000000E+00 -0.00000000000E+00 -0.45593999997E+02  0.45594000000E+02  0.51100000000E-03 0. -1.
    9900012    2    1    2    0    0  0.25048744178E+02 -0.80322720209E+01 -0.18021348609E+02  0.59301859055E+02  0.49999845029E+02 0.  0.
        -12    1    1    2    0    0 -0.25048744178E+02  0.80322720209E+01  0.18021348609E+02  0.31886140945E+02  0.00000000000E+00 0.  1.
         11    1    3    3    0    0  0.66052757739E+00  0.22793716115E+01 -0.85209589578E+01  0.88452571159E+01  0.51100000000E-03 0. -1.
        -11    1    3    3    0    0 -0.68570131451E+01  0.93927559883E+01 -0.66757353988E+01  0.13409248215E+02  0.51100000000E-03 0.  1.
         12    1    3    3    0    0  0.31245229745E+02 -0.19704399621E+02 -0.28246542523E+01  0.37047353723E+02  0.00000000000E+00 0. -1.
</event>
<event>
 7    1  0.1284777E-011  0.5930193E+02  0.7816164E-02  0.1266605E+00
        -11   -1    0    0    0    0  0.00000000000E+00  0.00000000000E+00  0.45593999997E+02  0.45594000000E+02  0.51100000000E-03 0.  1.
         11   -1    0    0    0    0 -0.00000000000E+00 -0.00000000000E+00 -0.45593999997E+02  0.45594000000E+02  0.51100000000E-03 0. -1.
    9900012    2    1    2    0    0 -0.10477415083E+02 -0.15979132906E+02 -0.25526706821E+02  0.59301926608E+02  0.49999968231E+02 0.  0.
        -12    1    1    2    0    0  0.10477415083E+02  0.15979132906E+02  0.25526706821E+02  0.31886073392E+02  0.00000000000E+00 0.  1.
         11    1    3    3    0    0  0.45262688538E+01 -0.13393288218E+02 -0.18573870081E+02  0.23342149195E+02  0.51100000000E-03 0. -1.
        -11    1    3    3    0    0  0.31053188070E+01 -0.11810620749E+02 -0.95075073309E+01  0.15476642507E+02  0.51100000000E-03 0.  1.
        -12    1    3    3    0    0 -0.18109002743E+02  0.92247760612E+01  0.25546705907E+01  0.20483134906E+02  0.00000000000E+00 0.  1.
</event>
<event>
 7    1  0.1284777E-011  0.5930190E+02  0.7816164E-02  0.1266605E+00
        -11   -1    0    0    0    0  0.00000000000E+00  0.00000000000E+00  0.45593999997E+02  0.45594000000E+02  0.51100000000E-03 0. -1.
         11   -1    0    0    0    0 -0.00000000000E+00 -0.00000000000E+00 -0.45593999997E+02  0.45594000000E+02  0.51100000000E-03 0.  1.
    9900012    2    1    2    0    0 -0.99002306356E+01 -0.19566609332E+02  0.23148572380E+02  0.59301903177E+02  0.49999925497E+02 0.  0.
        -12    1    1    2    0    0  0.99002306356E+01  0.19566609332E+02 -0.23148572380E+02  0.31886096823E+02  0.00000000000E+00 0.  1.
         11    1    3    3    0    0  0.32681551135E+01 -0.21157412225E+01  0.96657768151E+01  0.10420385812E+02  0.51100000000E-03 0. -1.
        -11    1    3    3    0    0  0.61314869264E+01 -0.14491696338E+02  0.22433789230E+02  0.27402176814E+02  0.51100000000E-03 0.  1.
         12    1    3    3    0    0 -0.19299872676E+02 -0.29591717723E+01 -0.89509936657E+01  0.21479340550E+02  0.00000000000E+00 0. -1.
</event>
<event>
 7    1  0.1284777E-011  0.5930193E+02  0.7816164E-02  0.1266605E+00
        -11   -1    0    0    0    0  0.00000000000E+00  0.00000000000E+00  0.45593999997E+02  0.45594000000E+02  0.51100000000E-03 0.  1.
         11   -1    0    0    0    0 -0.00000000000E+00 -0.00000000000E+00 -0.45593999997E+02  0.45594000000E+02  0.51100000000E-03 0. -1.
    9900012    2    1    2    0    0  0.30870832730E+02 -0.55167489435E+01 -0.57687553385E+01  0.59301931404E+02  0.49999976977E+02 0.  0.
        -12    1    1    2    0    0 -0.30870832730E+02  0.55167489435E+01  0.57687553385E+01  0.31886068596E+02  0.00000000000E+00 0.  1.
         11    1    3    3    0    0  0.33504838971E+02 -0.88542029241E+01 -0.53674625793E+01  0.35068230618E+02  0.51100000000E-03 0. -1.
        -11    1    3    3    0    0 -0.42000911940E+01 -0.98921280788E+01  0.12095511513E+01  0.10814711194E+02  0.51100000000E-03 0.  1.
        -12    1    3    3    0    0  0.15660849533E+01  0.13229582059E+02 -0.16108439104E+01  0.13418989591E+02  0.00000000000E+00 0.  1.
</event>
<event>
 7    1  0.1284777E-011  0.5930196E+02  0.7816164E-02  0.1266605E+00
        -11   -1    0    0    0    0  0.00000000000E+00  0.00000000000E+00  0.45593999997E+02  0.45594000000E+02  0.51100000000E-03 0. -1.
         11   -1    0    0    0    0 -0.00000000000E+00 -0.00000000000E+00 -0.45593999997E+02  0.45594000000E+02  0.51100000000E-03 0.  1.
    9900012    2    1    2    0    0  0.35891117691E+01  0.10411164988E+02  0.29923997498E+02  0.59301957505E+02  0.50000024580E+02 0.  0.
        -12    1    1    2    0    0 -0.35891117691E+01 -0.10411164988E+02 -0.29923997498E+02  0.31886042495E+02  0.00000000000E+00 0.  1.
         11    1    3    3    0    0 -0.10905237141E+02  0.66183305380E+01  0.27634938825E+02  0.30437088237E+02  0.51100000000E-03 0. -1.
        -11    1    3    3    0    0  0.16430335276E+01 -0.10806376200E+00  0.12113418259E+02  0.12224816527E+02  0.51100000000E-03 0.  1.
        -12    1    3    3    0    0  0.12851315383E+02  0.39008982124E+01 -0.98243595861E+01  0.16640052741E+02  0.00000000000E+00 0.  1.
</event>
<event>
 7    1  0.1284777E-011  0.5930194E+02  0.7816164E-02  0.1266605E+00
        -11   -1    0    0    0    0  0.00000000000E+00  0.00000000000E+00  0.45593999997E+02  0.45594000000E+02  0.51100000000E-03 0.  1.
         11   -1    0    0    0    0 -0.00000000000E+00 -0.00000000000E+00 -0.45593999997E+02  0.45594000000E+02  0.51100000000E-03 0. -1.
    9900012    2    1    2    0    0 -0.21401145449E+02 -0.70617496712E+00 -0.23626534850E+02  0.59301939431E+02  0.49999991616E+02 0.  0.
        -12    1    1    2    0    0  0.21401145449E+02  0.70617496712E+00  0.23626534850E+02  0.31886060569E+02  0.00000000000E+00 0.  1.
         11    1    3    3    0    0 -0.75267543338E+01  0.12134525972E+02  0.47703939051E+00  0.14287278195E+02  0.51100000000E-03 0. -1.
        -11    1    3    3    0    0 -0.84913166030E+01  0.80016598239E+01  0.12742476566E+01  0.11736810680E+02  0.51100000000E-03 0.  1.
         12    1    3    3    0    0 -0.53830745124E+01 -0.20842360763E+02 -0.25377821897E+02  0.33277850556E+02  0.00000000000E+00 0. -1.
</event>
<event>
 7    1  0.1284777E-011  0.5930193E+02  0.7816164E-02  0.1266605E+00
        -11   -1    0    0    0    0  0.00000000000E+00  0.00000000000E+00  0.45593999997E+02  0.45594000000E+02  0.51100000000E-03 0.  1.
         11   -1    0    0    0    0 -0.00000000000E+00 -0.00000000000E+00 -0.45593999997E+02  0.45594000000E+02  0.51100000000E-03 0. -1.
    9900012    2    1    2    0    0 -0.11130159326E+02 -0.22972761435E+02 -0.19107412308E+02  0.59301930633E+02  0.49999975571E+02 0.  0.
        -12    1    1    2    0    0  0.11130159326E+02  0.22972761435E+02  0.19107412308E+02  0.31886069367E+02  0.00000000000E+00 0.  1.
         11    1    3    3    0    0  0.12213443411E+02  0.74908026663E+01 -0.66735948843E+00  0.14343140991E+02  0.51100000000E-03 0. -1.
        -11    1    3    3    0    0 -0.81808010820E+01 -0.29225193336E+01 -0.36655775908E+00  0.86948830038E+01  0.51100000000E-03 0.  1.
        -12    1    3    3    0    0 -0.15162801655E+02 -0.27541044768E+02 -0.18073495061E+02  0.36263906638E+02  0.00000000000E+00 0.  1.
</event>
<event>
 7    1  0.1284777E-011  0.5930192E+02  0.7816164E-02  0.1266605E+00
        -11   -1    0    0    0    0  0.00000000000E+00  0.00000000000E+00  0.45593999997E+02  0.45594000000E+02  0.51100000000E-03 0.  1.
         11   -1    0    0    0    0 -0.00000000000E+00 -0.00000000000E+00 -0.45593999997E+02  0.45594000000E+02  0.51100000000E-03 0. -1.
    9900012    2    1    2    0    0 -0.15395110840E+02  0.23432613440E+02 -0.15186354695E+02  0.59301918721E+02  0.49999953847E+02 0.  0.
        -12    1    1    2    0    0  0.15395110840E+02 -0.23432613440E+02  0.15186354695E+02  0.31886081279E+02  0.00000000000E+00 0.  1.
         11    1    3    3    0    0 -0.11056975970E+02 -0.84776682871E+01 -0.13395326683E+02  0.19327761236E+02  0.51100000000E-03 0. -1.
        -11    1    3    3    0    0  0.11007957922E+01 -0.11415854302E+01  0.54738957471E+01  0.56989914530E+01  0.51100000000E-03 0.  1.
        -12    1    3    3    0    0 -0.54389306621E+01  0.33051867157E+02 -0.72649237594E+01  0.34275166032E+02  0.00000000000E+00 0.  1.
</event>
<event>
 7    1  0.1284777E-011  0.5930192E+02  0.7816164E-02  0.1266605E+00
        -11   -1    0    0    0    0  0.00000000000E+00  0.00000000000E+00  0.45593999997E+02  0.45594000000E+02  0.51100000000E-03 0.  1.
         11   -1    0    0    0    0 -0.00000000000E+00 -0.00000000000E+00 -0.45593999997E+02  0.45594000000E+02  0.51100000000E-03 0. -1.
    9900012    2    1    2    0    0 -0.13490750359E+02  0.16850401098E+02 -0.23468828531E+02  0.59301917220E+02  0.49999951109E+02 0.  0.
        -12    1    1    2    0    0  0.13490750359E+02 -0.16850401098E+02  0.23468828531E+02  0.31886082780E+02  0.00000000000E+00 0.  1.
         11    1    3    3    0    0  0.81697511423E+01  0.36657760048E+01 -0.33638920989E+01  0.95654857565E+01  0.51100000000E-03 0. -1.
        -11    1    3    3    0    0  0.79807401408E+01  0.12814628466E+02 -0.26254847400E+01  0.15323187864E+02  0.51100000000E-03 0.  1.
        -12    1    3    3    0    0 -0.29641241643E+02  0.36999662739E+00 -0.17479451692E+02  0.34413243600E+02  0.00000000000E+00 0.  1.
</event>
<event>
 7    1  0.1284777E-011  0.5930195E+02  0.7816164E-02  0.1266605E+00
        -11   -1    0    0    0    0  0.00000000000E+00  0.00000000000E+00  0.45593999997E+02  0.45594000000E+02  0.51100000000E-03 0.  1.
         11   -1    0    0    0    0 -0.00000000000E+00 -0.00000000000E+00 -0.45593999997E+02  0.45594000000E+02  0.51100000000E-03 0. -1.
    9900012    2    1    2    0    0  0.26087725254E+02 -0.17966487206E+02 -0.36545857320E+01  0.59301951823E+02  0.50000014217E+02 0.  0.
        -12    1    1    2    0    0 -0.26087725254E+02  0.17966487206E+02  0.36545857320E+01  0.31886048177E+02  0.00000000000E+00 0.  1.
         11    1    3    3    0    0  0.41327619846E+01  0.10360677272E+02  0.45211691569E+01  0.12035959703E+02  0.51100000000E-03 0.  1.
        -11    1    3    3    0    0  0.11936335158E+01  0.61221129346E+01 -0.81496549809E-01  0.62379219058E+01  0.51100000000E-03 0. -1.
         12    1    3    3    0    0  0.20761329754E+02 -0.34449277413E+02 -0.80942583391E+01  0.41028070214E+02  0.00000000000E+00 0. -1.
</event>
<event>
 7    1  0.1284777E-011  0.5930193E+02  0.7816164E-02  0.1266605E+00
        -11   -1    0    0    0    0  0.00000000000E+00  0.00000000000E+00  0.45593999997E+02  0.45594000000E+02  0.51100000000E-03 0.  1.
         11   -1    0    0    0    0 -0.00000000000E+00 -0.00000000000E+00 -0.45593999997E+02  0.45594000000E+02  0.51100000000E-03 0. -1.
    9900012    2    1    2    0    0 -0.35373791788E+01 -0.31161652538E+02 -0.57584322337E+01  0.59301934358E+02  0.49999982364E+02 0.  0.
        -12    1    1    2    0    0  0.35373791788E+01  0.31161652538E+02  0.57584322337E+01  0.31886065642E+02  0.00000000000E+00 0.  1.
         11    1    3    3    0    0 -0.99951124177E+00 -0.15730380070E+02 -0.68671684633E+01  0.17193076596E+02  0.51100000000E-03 0. -1.
        -11    1    3    3    0    0 -0.21308331912E+01 -0.28156298961E+02 -0.37437896952E+01  0.28483917968E+02  0.51100000000E-03 0.  1.
         12    1    3    3    0    0 -0.40703474583E+00  0.12725026493E+02  0.48525259248E+01  0.13624939794E+02  0.00000000000E+00 0. -1.
</event>
<event>
 7    1  0.1284777E-011  0.5930199E+02  0.7816164E-02  0.1266605E+00
        -11   -1    0    0    0    0  0.00000000000E+00  0.00000000000E+00  0.45593999997E+02  0.45594000000E+02  0.51100000000E-03 0.  1.
         11   -1    0    0    0    0 -0.00000000000E+00 -0.00000000000E+00 -0.45593999997E+02  0.45594000000E+02  0.51100000000E-03 0. -1.
    9900012    2    1    2    0    0  0.18977537549E+02 -0.22975247026E+02 -0.11344989981E+02  0.59301988882E+02  0.50000081804E+02 0.  0.
        -12    1    1    2    0    0 -0.18977537549E+02  0.22975247026E+02  0.11344989981E+02  0.31886011118E+02  0.00000000000E+00 0.  1.
         11    1    3    3    0    0  0.45241304327E+01 -0.35238561994E+01  0.59712157012E+01  0.82789332584E+01  0.51100000000E-03 0. -1.
        -11    1    3    3    0    0  0.23796032221E+01 -0.11386019144E+02  0.12978607617E+02  0.17428373400E+02  0.51100000000E-03 0.  1.
         12    1    3    3    0    0  0.12073803894E+02 -0.80653716832E+01 -0.30294813299E+02  0.33594682223E+02  0.00000000000E+00 0. -1.
</event>
<event>
 7    1  0.1284777E-011  0.5930195E+02  0.7816164E-02  0.1266605E+00
        -11   -1    0    0    0    0  0.00000000000E+00  0.00000000000E+00  0.45593999997E+02  0.45594000000E+02  0.51100000000E-03 0. -1.
         11   -1    0    0    0    0 -0.00000000000E+00 -0.00000000000E+00 -0.45593999997E+02  0.45594000000E+02  0.51100000000E-03 0.  1.
    9900012    2    1    2    0    0  0.71031016159E+01 -0.30739174610E+02  0.46226833316E+01  0.59301951179E+02  0.50000013041E+02 0.  0.
        -12    1    1    2    0    0 -0.71031016159E+01  0.30739174610E+02 -0.46226833316E+01  0.31886048821E+02  0.00000000000E+00 0.  1.
         11    1    3    3    0    0  0.68049091359E-02 -0.18586296375E+01  0.11289642588E+02  0.11441616165E+02  0.51100000000E-03 0. -1.
        -11    1    3    3    0    0  0.15429272761E+02  0.73761378069E+00  0.27364323819E+01  0.15687402412E+02  0.51100000000E-03 0.  1.
        -12    1    3    3    0    0 -0.83329760538E+01 -0.29618158753E+02 -0.94033916387E+01  0.32172932601E+02  0.00000000000E+00 0.  1.
</event>
<event>
 7    1  0.1284777E-011  0.5930192E+02  0.7816164E-02  0.1266605E+00
        -11   -1    0    0    0    0  0.00000000000E+00  0.00000000000E+00  0.45593999997E+02  0.45594000000E+02  0.51100000000E-03 0.  1.
         11   -1    0    0    0    0 -0.00000000000E+00 -0.00000000000E+00 -0.45593999997E+02  0.45594000000E+02  0.51100000000E-03 0. -1.
    9900012    2    1    2    0    0 -0.79673027001E+01  0.30365115245E+02  0.55860735036E+01  0.59301915992E+02  0.49999948870E+02 0.  0.
        -12    1    1    2    0    0  0.79673027001E+01 -0.30365115245E+02 -0.55860735036E+01  0.31886084008E+02  0.00000000000E+00 0.  1.
         11    1    3    3    0    0 -0.29318398074E+01  0.52393789558E+00 -0.94855468872E+01  0.99421222877E+01  0.51100000000E-03 0. -1.
        -11    1    3    3    0    0 -0.15610139647E+02  0.92228501730E+01 -0.48860887080E+01  0.18777946859E+02  0.51100000000E-03 0.  1.
        -12    1    3    3    0    0  0.10574676755E+02  0.20618327176E+02  0.19957709099E+02  0.30581846846E+02  0.00000000000E+00 0.  1.
</event>
<event>
 7    1  0.1284777E-011  0.5930194E+02  0.7816164E-02  0.1266605E+00
        -11   -1    0    0    0    0  0.00000000000E+00  0.00000000000E+00  0.45593999997E+02  0.45594000000E+02  0.51100000000E-03 0. -1.
         11   -1    0    0    0    0 -0.00000000000E+00 -0.00000000000E+00 -0.45593999997E+02  0.45594000000E+02  0.51100000000E-03 0.  1.
    9900012    2    1    2    0    0  0.92900052256E+01 -0.99417836828E+01  0.28837083107E+02  0.59301943141E+02  0.49999998383E+02 0.  0.
        -12    1    1    2    0    0 -0.92900052256E+01  0.99417836828E+01 -0.28837083107E+02  0.31886056859E+02  0.00000000000E+00 0.  1.
         11    1    3    3    0    0 -0.17186756367E+00 -0.16652628091E+02  0.21402281004E+02  0.27118207781E+02  0.51100000000E-03 0. -1.
        -11    1    3    3    0    0 -0.37656381412E+01 -0.66971206099E+01  0.10593245364E+02  0.13086187477E+02  0.51100000000E-03 0.  1.
        -12    1    3    3    0    0  0.13227510930E+02  0.13407965018E+02 -0.31584432608E+01  0.19097547884E+02  0.00000000000E+00 0.  1.
</event>
<event>
 7    1  0.1284777E-011  0.5930180E+02  0.7816164E-02  0.1266605E+00
        -11   -1    0    0    0    0  0.00000000000E+00  0.00000000000E+00  0.45593999997E+02  0.45594000000E+02  0.51100000000E-03 0.  1.
         11   -1    0    0    0    0 -0.00000000000E+00 -0.00000000000E+00 -0.45593999997E+02  0.45594000000E+02  0.51100000000E-03 0. -1.
    9900012    2    1    2    0    0 -0.87386877908E+01  0.10105398023E+01 -0.30648716952E+02  0.59301800700E+02  0.49999738604E+02 0.  0.
        -12    1    1    2    0    0  0.87386877908E+01 -0.10105398023E+01  0.30648716952E+02  0.31886199300E+02  0.00000000000E+00 0.  1.
         11    1    3    3    0    0 -0.15845553437E+02 -0.13529566649E+02 -0.10242104157E+02  0.23217050529E+02  0.51100000000E-03 0.  1.
        -11    1    3    3    0    0  0.71404569075E+01  0.92323229014E+01 -0.25923081369E+02  0.28429352067E+02  0.51100000000E-03 0. -1.
        -12    1    3    3    0    0 -0.33591261302E-01  0.53077835501E+01  0.55164685750E+01  0.76553981038E+01  0.00000000000E+00 0.  1.
</event>
<event>
 7    1  0.1284777E-011  0.5930196E+02  0.7816164E-02  0.1266605E+00
        -11   -1    0    0    0    0  0.00000000000E+00  0.00000000000E+00  0.45593999997E+02  0.45594000000E+02  0.51100000000E-03 0.  1.
         11   -1    0    0    0    0 -0.00000000000E+00 -0.00000000000E+00 -0.45593999997E+02  0.45594000000E+02  0.51100000000E-03 0. -1.
    9900012    2    1    2    0    0  0.14728713871E+02  0.22814188131E+02 -0.16712198397E+02  0.59301956538E+02  0.50000022816E+02 0.  0.
        -12    1    1    2    0    0 -0.14728713871E+02 -0.22814188131E+02  0.16712198397E+02  0.31886043462E+02  0.00000000000E+00 0.  1.
         11    1    3    3    0    0  0.10733427788E+02 -0.65149145709E+01 -0.12047177201E+02  0.17400720179E+02  0.51100000000E-03 0. -1.
        -11    1    3    3    0    0  0.13528746628E+02  0.10996661084E+02  0.62645292909E+01  0.18525600336E+02  0.51100000000E-03 0.  1.
        -12    1    3    3    0    0 -0.95334605454E+01  0.18332441618E+02 -0.10929550487E+02  0.23375636023E+02  0.00000000000E+00 0.  1.
</event>
<event>
 7    1  0.1284777E-011  0.5930196E+02  0.7816164E-02  0.1266605E+00
        -11   -1    0    0    0    0  0.00000000000E+00  0.00000000000E+00  0.45593999997E+02  0.45594000000E+02  0.51100000000E-03 0. -1.
         11   -1    0    0    0    0 -0.00000000000E+00 -0.00000000000E+00 -0.45593999997E+02  0.45594000000E+02  0.51100000000E-03 0.  1.
    9900012    2    1    2    0    0 -0.63730371899E+01 -0.31242137352E+02  0.18103960824E+00  0.59301960348E+02  0.50000029764E+02 0.  0.
        -12    1    1    2    0    0  0.63730371899E+01  0.31242137352E+02 -0.18103960824E+00  0.31886039652E+02  0.00000000000E+00 0.  1.
         11    1    3    3    0    0 -0.44885583504E+01  0.27340701984E+01 -0.16202214733E+01  0.54997648858E+01  0.51100000000E-03 0. -1.
        -11    1    3    3    0    0  0.26114971081E+01  0.65545797750E+01 -0.91723373213E+01  0.11572130546E+02  0.51100000000E-03 0.  1.
         12    1    3    3    0    0 -0.44959759476E+01 -0.40530787325E+02  0.10973598403E+02  0.42230064916E+02  0.00000000000E+00 0. -1.
</event>
<event>
 7    1  0.1284777E-011  0.5930216E+02  0.7816164E-02  0.1266604E+00
        -11   -1    0    0    0    0  0.00000000000E+00  0.00000000000E+00  0.45593999997E+02  0.45594000000E+02  0.51100000000E-03 0.  1.
         11   -1    0    0    0    0 -0.00000000000E+00 -0.00000000000E+00 -0.45593999997E+02  0.45594000000E+02  0.51100000000E-03 0. -1.
    9900012    2    1    2    0    0  0.57187209508E+01 -0.16246998991E+01 -0.31326717304E+02  0.59302162452E+02  0.50000398352E+02 0.  0.
        -12    1    1    2    0    0 -0.57187209508E+01  0.16246998991E+01  0.31326717304E+02  0.31885837548E+02  0.00000000000E+00 0.  1.
         11    1    3    3    0    0  0.10467683446E+01  0.88047995855E+01 -0.18021913135E+02  0.20085058451E+02  0.51100000000E-03 0. -1.
        -11    1    3    3    0    0  0.56368819711E+01  0.29681797907E+01 -0.22206909529E+02  0.23102626706E+02  0.51100000000E-03 0.  1.
        -12    1    3    3    0    0 -0.96492936488E+00 -0.13397679275E+02  0.89021053593E+01  0.16114477294E+02  0.00000000000E+00 0.  1.
</event>
<event>
 7    1  0.1284777E-011  0.5930196E+02  0.7816164E-02  0.1266605E+00
        -11   -1    0    0    0    0  0.00000000000E+00  0.00000000000E+00  0.45593999997E+02  0.45594000000E+02  0.51100000000E-03 0. -1.
         11   -1    0    0    0    0 -0.00000000000E+00 -0.00000000000E+00 -0.45593999997E+02  0.45594000000E+02  0.51100000000E-03 0.  1.
    9900012    2    1    2    0    0 -0.23145071825E+02  0.20495023027E+02  0.78089266405E+01  0.59301958321E+02  0.50000026067E+02 0.  0.
        -12    1    1    2    0    0  0.23145071825E+02 -0.20495023027E+02 -0.78089266405E+01  0.31886041679E+02  0.00000000000E+00 0.  1.
         11    1    3    3    0    0  0.51004830106E+01 -0.76187849921E+01  0.20304603481E+01  0.93906113317E+01  0.51100000000E-03 0. -1.
        -11    1    3    3    0    0  0.45730783950E+01  0.11068231545E+02  0.48438474338E+01  0.12918268219E+02  0.51100000000E-03 0.  1.
         12    1    3    3    0    0 -0.32818633231E+02  0.17045576474E+02  0.93461885858E+00  0.36993078770E+02  0.00000000000E+00 0. -1.
</event>
<event>
 7    1  0.1284777E-011  0.5930195E+02  0.7816164E-02  0.1266605E+00
        -11   -1    0    0    0    0  0.00000000000E+00  0.00000000000E+00  0.45593999997E+02  0.45594000000E+02  0.51100000000E-03 0. -1.
         11   -1    0    0    0    0 -0.00000000000E+00 -0.00000000000E+00 -0.45593999997E+02  0.45594000000E+02  0.51100000000E-03 0.  1.
    9900012    2    1    2    0    0 -0.23849985866E+02  0.18327861557E+02  0.10582438208E+02  0.59301947665E+02  0.50000006634E+02 0.  0.
        -12    1    1    2    0    0  0.23849985866E+02 -0.18327861557E+02 -0.10582438208E+02  0.31886052335E+02  0.00000000000E+00 0.  1.
         11    1    3    3    0    0 -0.20161711422E+02  0.38873851369E+00  0.17690405141E+02  0.26825289550E+02  0.51100000000E-03 0. -1.
        -11    1    3    3    0    0 -0.94368778444E+01 -0.19720759480E+01  0.19886485525E+01  0.98437020638E+01  0.51100000000E-03 0.  1.
        -12    1    3    3    0    0  0.57486034012E+01  0.19911198992E+02 -0.90966154854E+01  0.22632956052E+02  0.00000000000E+00 0.  1.
</event>
<event>
 7    1  0.1284777E-011  0.5930196E+02  0.7816164E-02  0.1266605E+00
        -11   -1    0    0    0    0  0.00000000000E+00  0.00000000000E+00  0.45593999997E+02  0.45594000000E+02  0.51100000000E-03 0.  1.
         11   -1    0    0    0    0 -0.00000000000E+00 -0.00000000000E+00 -0.45593999997E+02  0.45594000000E+02  0.51100000000E-03 0. -1.
    9900012    2    1    2    0    0 -0.69104551693E+01  0.21262214476E+01 -0.31055500692E+02  0.59301963377E+02  0.50000035288E+02 0.  0.
        -12    1    1    2    0    0  0.69104551693E+01 -0.21262214476E+01  0.31055500692E+02  0.31886036623E+02  0.00000000000E+00 0.  1.
         11    1    3    3    0    0 -0.47522990553E+01  0.20197795477E+02 -0.15239798899E+02  0.25744645253E+02  0.51100000000E-03 0. -1.
        -11    1    3    3    0    0  0.78605370136E+01  0.68600551006E+00 -0.18141564341E+01  0.80962836864E+01  0.51100000000E-03 0.  1.
         12    1    3    3    0    0 -0.10018693128E+02 -0.18757579540E+02 -0.14001545360E+02  0.25461034438E+02  0.00000000000E+00 0. -1.
</event>
<event>
 7    1  0.1284777E-011  0.5930194E+02  0.7816164E-02  0.1266605E+00
        -11   -1    0    0    0    0  0.00000000000E+00  0.00000000000E+00  0.45593999997E+02  0.45594000000E+02  0.51100000000E-03 0.  1.
         11   -1    0    0    0    0 -0.00000000000E+00 -0.00000000000E+00 -0.45593999997E+02  0.45594000000E+02  0.51100000000E-03 0. -1.
    9900012    2    1    2    0    0  0.89796212081E+01 -0.42651415844E+01 -0.30296792129E+02  0.59301942810E+02  0.49999997780E+02 0.  0.
        -12    1    1    2    0    0 -0.89796212081E+01  0.42651415844E+01  0.30296792129E+02  0.31886057190E+02  0.00000000000E+00 0.  1.
         11    1    3    3    0    0 -0.78624692076E+01  0.61637097756E+01 -0.50223486153E+01  0.11181848063E+02  0.51100000000E-03 0. -1.
        -11    1    3    3    0    0  0.10139772093E+01  0.75606163250E+01  0.52898110502E+01  0.92829505117E+01  0.51100000000E-03 0.  1.
         12    1    3    3    0    0  0.15828113206E+02 -0.17989467685E+02 -0.30564254564E+02  0.38837144235E+02  0.00000000000E+00 0. -1.
</event>
<event>
 7    1  0.1284777E-011  0.5930209E+02  0.7816164E-02  0.1266604E+00
        -11   -1    0    0    0    0  0.00000000000E+00  0.00000000000E+00  0.45593999997E+02  0.45594000000E+02  0.51100000000E-03 0.  1.
         11   -1    0    0    0    0 -0.00000000000E+00 -0.00000000000E+00 -0.45593999997E+02  0.45594000000E+02  0.51100000000E-03 0. -1.
    9900012    2    1    2    0    0  0.41340528985E+00  0.76496925641E+01 -0.30951942545E+02  0.59302087004E+02  0.50000260754E+02 0.  0.
        -12    1    1    2    0    0 -0.41340528985E+00 -0.76496925641E+01  0.30951942545E+02  0.31885912996E+02  0.00000000000E+00 0.  1.
         11    1    3    3    0    0  0.99946123759E+01  0.14033982806E+02 -0.14786079709E+02  0.22704032756E+02  0.51100000000E-03 0. -1.
        -11    1    3    3    0    0 -0.12074517934E+02  0.47506211275E+01 -0.20608481189E+02  0.24353067191E+02  0.51100000000E-03 0.  1.
        -12    1    3    3    0    0  0.24933108483E+01 -0.11134911370E+02  0.44426183534E+01  0.12244987057E+02  0.00000000000E+00 0.  1.
</event>
<event>
 7    1  0.1284777E-011  0.5930195E+02  0.7816164E-02  0.1266605E+00
        -11   -1    0    0    0    0  0.00000000000E+00  0.00000000000E+00  0.45593999997E+02  0.45594000000E+02  0.51100000000E-03 0.  1.
         11   -1    0    0    0    0 -0.00000000000E+00 -0.00000000000E+00 -0.45593999997E+02  0.45594000000E+02  0.51100000000E-03 0. -1.
    9900012    2    1    2    0    0 -0.13908834553E+02 -0.20947283897E+02 -0.19608060272E+02  0.59301946483E+02  0.50000004477E+02 0.  0.
        -12    1    1    2    0    0  0.13908834553E+02  0.20947283897E+02  0.19608060272E+02  0.31886053517E+02  0.00000000000E+00 0.  1.
         11    1    3    3    0    0 -0.28023542411E+02 -0.98923285532E+01 -0.39191377566E+01  0.29975602320E+02  0.51100000000E-03 0. -1.
        -11    1    3    3    0    0 -0.37757913494E+01 -0.30023419818E+01 -0.51470052791E+01  0.70542413691E+01  0.51100000000E-03 0.  1.
        -12    1    3    3    0    0  0.17890499207E+02 -0.80526133619E+01 -0.10541917236E+02  0.22272102793E+02  0.00000000000E+00 0.  1.
</event>
<event>
 7    1  0.1284777E-011  0.5930193E+02  0.7816164E-02  0.1266605E+00
        -11   -1    0    0    0    0  0.00000000000E+00  0.00000000000E+00  0.45593999997E+02  0.45594000000E+02  0.51100000000E-03 0. -1.
         11   -1    0    0    0    0 -0.00000000000E+00 -0.00000000000E+00 -0.45593999997E+02  0.45594000000E+02  0.51100000000E-03 0.  1.
    9900012    2    1    2    0    0  0.29400193336E+02  0.10575526823E+02 -0.63646359207E+01  0.59301925827E+02  0.49999966806E+02 0.  0.
        -12    1    1    2    0    0 -0.29400193336E+02 -0.10575526823E+02  0.63646359207E+01  0.31886074173E+02  0.00000000000E+00 0.  1.
         11    1    3    3    0    0  0.38382052178E+01  0.15986093531E+02  0.92759932583E+01  0.18876733215E+02  0.51100000000E-03 0. -1.
        -11    1    3    3    0    0  0.19325570923E+02  0.55619665511E+00  0.32977059041E+01  0.19612799665E+02  0.51100000000E-03 0.  1.
        -12    1    3    3    0    0  0.62364171954E+01 -0.59667633629E+01 -0.18938335083E+02  0.20812392947E+02  0.00000000000E+00 0.  1.
</event>
<event>
 7    1  0.1284777E-011  0.5930194E+02  0.7816164E-02  0.1266605E+00
        -11   -1    0    0    0    0  0.00000000000E+00  0.00000000000E+00  0.45593999997E+02  0.45594000000E+02  0.51100000000E-03 0. -1.
         11   -1    0    0    0    0 -0.00000000000E+00 -0.00000000000E+00 -0.45593999997E+02  0.45594000000E+02  0.51100000000E-03 0.  1.
    9900012    2    1    2    0    0  0.25441048721E+02  0.62005505528E+01  0.18194152723E+02  0.59301937520E+02  0.49999988131E+02 0.  0.
        -12    1    1    2    0    0 -0.25441048721E+02 -0.62005505528E+01 -0.18194152723E+02  0.31886062480E+02  0.00000000000E+00 0.  1.
         11    1    3    3    0    0  0.92700962599E+01 -0.10928217149E+02 -0.45796148472E+01  0.15044383907E+02  0.51100000000E-03 0. -1.
        -11    1    3    3    0    0  0.10075000176E+02  0.15993209479E+02 -0.17302895765E+01  0.18981103241E+02  0.51100000000E-03 0.  1.
         12    1    3    3    0    0  0.60959522852E+01  0.11355582231E+01  0.24504057147E+02  0.25276450372E+02  0.00000000000E+00 0. -1.
</event>
<event>
 7    1  0.1284777E-011  0.5930162E+02  0.7816164E-02  0.1266606E+00
        -11   -1    0    0    0    0  0.00000000000E+00  0.00000000000E+00  0.45593999997E+02  0.45594000000E+02  0.51100000000E-03 0. -1.
         11   -1    0    0    0    0 -0.00000000000E+00 -0.00000000000E+00 -0.45593999997E+02  0.45594000000E+02  0.51100000000E-03 0.  1.
    9900012    2    1    2    0    0  0.27899629738E+02 -0.17560111901E+01  0.15338456274E+02  0.59301621157E+02  0.49999411158E+02 0.  0.
        -12    1    1    2    0    0 -0.27899629738E+02  0.17560111901E+01 -0.15338456274E+02  0.31886378843E+02  0.00000000000E+00 0.  1.
         11    1    3    3    0    0 -0.44820399828E+01 -0.32614676875E+01 -0.55301203993E+01  0.78299480059E+01  0.51100000000E-03 0. -1.
        -11    1    3    3    0    0  0.21940906877E+02  0.85710699060E+01 -0.37124256500E+01  0.23846356921E+02  0.51100000000E-03 0.  1.
         12    1    3    3    0    0  0.10440762844E+02 -0.70656134086E+01  0.24581002324E+02  0.27625316231E+02  0.00000000000E+00 0. -1.
</event>
<event>
 7    1  0.1284777E-011  0.5930195E+02  0.7816164E-02  0.1266605E+00
        -11   -1    0    0    0    0  0.00000000000E+00  0.00000000000E+00  0.45593999997E+02  0.45594000000E+02  0.51100000000E-03 0.  1.
         11   -1    0    0    0    0 -0.00000000000E+00 -0.00000000000E+00 -0.45593999997E+02  0.45594000000E+02  0.51100000000E-03 0. -1.
    9900012    2    1    2    0    0  0.16211687599E+02  0.23967520833E+02 -0.13396251804E+02  0.59301946119E+02  0.50000003814E+02 0.  0.
        -12    1    1    2    0    0 -0.16211687599E+02 -0.23967520833E+02  0.13396251804E+02  0.31886053881E+02  0.00000000000E+00 0.  1.
         11    1    3    3    0    0 -0.16341967941E+01 -0.29816683862E+01 -0.41256208367E+01  0.53461849085E+01  0.51100000000E-03 0. -1.
        -11    1    3    3    0    0 -0.13254631977E+02  0.51273760194E+01 -0.71373606472E+01  0.15903369799E+02  0.51100000000E-03 0.  1.
        -12    1    3    3    0    0  0.31100516370E+02  0.21821813200E+02 -0.21332703202E+01  0.38052391411E+02  0.00000000000E+00 0.  1.
</event>
<event>
 7    1  0.1284777E-011  0.5930196E+02  0.7816164E-02  0.1266605E+00
        -11   -1    0    0    0    0  0.00000000000E+00  0.00000000000E+00  0.45593999997E+02  0.45594000000E+02  0.51100000000E-03 0.  1.
         11   -1    0    0    0    0 -0.00000000000E+00 -0.00000000000E+00 -0.45593999997E+02  0.45594000000E+02  0.51100000000E-03 0. -1.
    9900012    2    1    2    0    0 -0.27522007134E+02  0.89089946878E+00 -0.16076849497E+02  0.59301958095E+02  0.50000025656E+02 0.  0.
        -12    1    1    2    0    0  0.27522007134E+02 -0.89089946878E+00  0.16076849497E+02  0.31886041905E+02  0.00000000000E+00 0.  1.
         11    1    3    3    0    0 -0.83536903738E+00 -0.86570633418E+00 -0.87644534605E+00  0.14884372984E+01  0.51100000000E-03 0. -1.
        -11    1    3    3    0    0  0.46066066858E+01 -0.15365939528E+02  0.50212257197E+01  0.16809093691E+02  0.51100000000E-03 0.  1.
         12    1    3    3    0    0 -0.31293244783E+02  0.17122545331E+02 -0.20221629871E+02  0.41004427106E+02  0.00000000000E+00 0. -1.
</event>
<event>
 7    1  0.1284777E-011  0.5930180E+02  0.7816164E-02  0.1266605E+00
        -11   -1    0    0    0    0  0.00000000000E+00  0.00000000000E+00  0.45593999997E+02  0.45594000000E+02  0.51100000000E-03 0. -1.
         11   -1    0    0    0    0 -0.00000000000E+00 -0.00000000000E+00 -0.45593999997E+02  0.45594000000E+02  0.51100000000E-03 0.  1.
    9900012    2    1    2    0    0  0.13462126466E+02  0.26381704781E+02  0.11811298906E+02  0.59301796432E+02  0.49999730820E+02 0.  0.
        -12    1    1    2    0    0 -0.13462126466E+02 -0.26381704781E+02 -0.11811298906E+02  0.31886203568E+02  0.00000000000E+00 0.  1.
         11    1    3    3    0    0 -0.11935118510E+01 -0.34903734245E+01 -0.33073014504E+01  0.49543334896E+01  0.51100000000E-03 0. -1.
        -11    1    3    3    0    0  0.18360842725E+02 -0.51315213833E+00 -0.32433997307E+01  0.18652171797E+02  0.51100000000E-03 0.  1.
         12    1    3    3    0    0 -0.37052044078E+01  0.30385230344E+02  0.18362000087E+02  0.35695291145E+02  0.00000000000E+00 0. -1.
</event>
<event>
 7    1  0.1790875E-011  0.5930194E+02  0.7816164E-02  0.1266605E+00
        -11   -1    0    0    0    0  0.00000000000E+00  0.00000000000E+00  0.45593999997E+02  0.45594000000E+02  0.51100000000E-03 0. -1.
         11   -1    0    0    0    0 -0.00000000000E+00 -0.00000000000E+00 -0.45593999997E+02  0.45594000000E+02  0.51100000000E-03 0.  1.
    9900012    2    1    2    0    0  0.23382289901E+02 -0.14945463888E+02  0.15704214093E+02  0.59301941728E+02  0.49999995805E+02 0.  0.
        -12    1    1    2    0    0 -0.23382289901E+02  0.14945463888E+02 -0.15704214093E+02  0.31886058272E+02  0.00000000000E+00 0.  1.
         11    1    3    3    0    0  0.16971285920E+02 -0.17389686659E+02  0.78307230103E+01  0.25529315913E+02  0.51100000000E-03 0. -1.
        -11    1    3    3    0    0 -0.10180423382E+02 -0.40832874265E+01  0.11154359085E+02  0.15643975943E+02  0.51100000000E-03 0.  1.
         12    1    3    3    0    0  0.16591427363E+02  0.65275101973E+01 -0.32808680021E+01  0.18128649871E+02  0.00000000000E+00 0. -1.
</event>
<event>
 7    1  0.1284777E-011  0.5930200E+02  0.7816164E-02  0.1266605E+00
        -11   -1    0    0    0    0  0.00000000000E+00  0.00000000000E+00  0.45593999997E+02  0.45594000000E+02  0.51100000000E-03 0.  1.
         11   -1    0    0    0    0 -0.00000000000E+00 -0.00000000000E+00 -0.45593999997E+02  0.45594000000E+02  0.51100000000E-03 0. -1.
    9900012    2    1    2    0    0 -0.55727030219E+01 -0.22991190551E+02 -0.21379121862E+02  0.59302004430E+02  0.50000110159E+02 0.  0.
        -12    1    1    2    0    0  0.55727030219E+01  0.22991190551E+02  0.21379121862E+02  0.31885995570E+02  0.00000000000E+00 0.  1.
         11    1    3    3    0    0  0.85523031600E+00 -0.10855636973E+02 -0.17052124048E+02  0.20232429607E+02  0.51100000000E-03 0. -1.
        -11    1    3    3    0    0 -0.13416022505E+01 -0.23889293708E+02 -0.88147449210E+01  0.25498979955E+02  0.51100000000E-03 0.  1.
         12    1    3    3    0    0 -0.50863310874E+01  0.11753740130E+02  0.44877471066E+01  0.13570594868E+02  0.00000000000E+00 0. -1.
</event>
<event>
 7    1  0.1284777E-011  0.5930195E+02  0.7816164E-02  0.1266605E+00
        -11   -1    0    0    0    0  0.00000000000E+00  0.00000000000E+00  0.45593999997E+02  0.45594000000E+02  0.51100000000E-03 0.  1.
         11   -1    0    0    0    0 -0.00000000000E+00 -0.00000000000E+00 -0.45593999997E+02  0.45594000000E+02  0.51100000000E-03 0. -1.
    9900012    2    1    2    0    0  0.19066112434E+02  0.21104878700E+02  0.14414840166E+02  0.59301950303E+02  0.50000011444E+02 0.  0.
        -12    1    1    2    0    0 -0.19066112434E+02 -0.21104878700E+02 -0.14414840166E+02  0.31886049697E+02  0.00000000000E+00 0.  1.
         11    1    3    3    0    0  0.52127476500E+01 -0.49783443265E+01  0.11643911417E+02  0.13694426736E+02  0.51100000000E-03 0. -1.
        -11    1    3    3    0    0  0.13988584663E+02 -0.17567194482E+01  0.94559289439E+01  0.16975899285E+02  0.51100000000E-03 0.  1.
         12    1    3    3    0    0 -0.13521987839E+00  0.27839942474E+02 -0.66850001943E+01  0.28631624281E+02  0.00000000000E+00 0. -1.
</event>
<event>
 7    1  0.1284777E-011  0.5930198E+02  0.7816164E-02  0.1266605E+00
        -11   -1    0    0    0    0  0.00000000000E+00  0.00000000000E+00  0.45593999997E+02  0.45594000000E+02  0.51100000000E-03 0. -1.
         11   -1    0    0    0    0 -0.00000000000E+00 -0.00000000000E+00 -0.45593999997E+02  0.45594000000E+02  0.51100000000E-03 0.  1.
    9900012    2    1    2    0    0 -0.11626824035E+02 -0.24349760570E+02 -0.16988955950E+02  0.59301976397E+02  0.50000059034E+02 0.  0.
        -12    1    1    2    0    0  0.11626824035E+02  0.24349760570E+02  0.16988955950E+02  0.31886023603E+02  0.00000000000E+00 0.  1.
         11    1    3    3    0    0 -0.23201790321E+00 -0.22702788390E+02  0.26142784204E+01  0.22853990569E+02  0.51100000000E-03 0. -1.
        -11    1    3    3    0    0 -0.70902962316E+00 -0.61312208918E+01  0.58355343974E+01  0.84940010946E+01  0.51100000000E-03 0.  1.
        -12    1    3    3    0    0 -0.10685776508E+02  0.44842487120E+01 -0.25438768768E+02  0.27953984734E+02  0.00000000000E+00 0.  1.
</event>
<event>
 7    1  0.1284777E-011  0.5930159E+02  0.7816164E-02  0.1266606E+00
        -11   -1    0    0    0    0  0.00000000000E+00  0.00000000000E+00  0.45593999997E+02  0.45594000000E+02  0.51100000000E-03 0.  1.
         11   -1    0    0    0    0 -0.00000000000E+00 -0.00000000000E+00 -0.45593999997E+02  0.45594000000E+02  0.51100000000E-03 0. -1.
    9900012    2    1    2    0    0 -0.46219842709E+01  0.19497981655E+02 -0.24803405989E+02  0.59301592616E+02  0.49999359105E+02 0.  0.
        -12    1    1    2    0    0  0.46219842709E+01 -0.19497981655E+02  0.24803405989E+02  0.31886407384E+02  0.00000000000E+00 0.  1.
         11    1    3    3    0    0 -0.15623821052E+02  0.68074057409E+00 -0.99628121853E+01  0.18542513823E+02  0.51100000000E-03 0. -1.
        -11    1    3    3    0    0  0.22121316111E+00  0.21486860584E+02 -0.19211318405E+02  0.28823755275E+02  0.51100000000E-03 0.  1.
         12    1    3    3    0    0  0.10780623620E+02 -0.26696195037E+01  0.43707246013E+01  0.11935323517E+02  0.00000000000E+00 0. -1.
</event>
<event>
 7    1  0.1284777E-011  0.5930194E+02  0.7816164E-02  0.1266605E+00
        -11   -1    0    0    0    0  0.00000000000E+00  0.00000000000E+00  0.45593999997E+02  0.45594000000E+02  0.51100000000E-03 0.  1.
         11   -1    0    0    0    0 -0.00000000000E+00 -0.00000000000E+00 -0.45593999997E+02  0.45594000000E+02  0.51100000000E-03 0. -1.
    9900012    2    1    2    0    0 -0.95396882880E+01 -0.12931358831E+02 -0.27540788003E+02  0.59301941955E+02  0.49999996220E+02 0.  0.
        -12    1    1    2    0    0  0.95396882880E+01  0.12931358831E+02  0.27540788003E+02  0.31886058045E+02  0.00000000000E+00 0.  1.
         11    1    3    3    0    0 -0.73048510121E+01  0.32212693367E+01 -0.84614336426E+01  0.11633283457E+02  0.51100000000E-03 0. -1.
        -11    1    3    3    0    0 -0.93170896327E+01  0.88436067187E+01 -0.17408223480E+02  0.21634781811E+02  0.51100000000E-03 0.  1.
         12    1    3    3    0    0  0.70822523568E+01 -0.24996234886E+02 -0.16711308797E+01  0.26033876687E+02  0.00000000000E+00 0. -1.
</event>
<event>
 7    1  0.1284777E-011  0.5930192E+02  0.7816164E-02  0.1266605E+00
        -11   -1    0    0    0    0  0.00000000000E+00  0.00000000000E+00  0.45593999997E+02  0.45594000000E+02  0.51100000000E-03 0.  1.
         11   -1    0    0    0    0 -0.00000000000E+00 -0.00000000000E+00 -0.45593999997E+02  0.45594000000E+02  0.51100000000E-03 0. -1.
    9900012    2    1    2    0    0  0.27802116971E+02 -0.10689007088E+02 -0.11380223055E+02  0.59301920634E+02  0.49999957335E+02 0.  0.
        -12    1    1    2    0    0 -0.27802116971E+02  0.10689007088E+02  0.11380223055E+02  0.31886079366E+02  0.00000000000E+00 0.  1.
         11    1    3    3    0    0  0.31623208057E+00  0.21644744621E+01 -0.13412180155E+01  0.25658952535E+01  0.51100000000E-03 0. -1.
        -11    1    3    3    0    0 -0.99676096833E+01  0.63618151911E+01 -0.85909377423E+01  0.14616092052E+02  0.51100000000E-03 0.  1.
         12    1    3    3    0    0  0.37453494574E+02 -0.19215296742E+02 -0.14480672967E+01  0.42119933328E+02  0.00000000000E+00 0. -1.
</event>
<event>
 7    1  0.1284777E-011  0.5930193E+02  0.7816164E-02  0.1266605E+00
        -11   -1    0    0    0    0  0.00000000000E+00  0.00000000000E+00  0.45593999997E+02  0.45594000000E+02  0.51100000000E-03 0.  1.
         11   -1    0    0    0    0 -0.00000000000E+00 -0.00000000000E+00 -0.45593999997E+02  0.45594000000E+02  0.51100000000E-03 0. -1.
    9900012    2    1    2    0    0 -0.21362853202E+02 -0.14212900093E+02  0.18929954460E+02  0.59301934049E+02  0.49999981802E+02 0.  0.
        -12    1    1    2    0    0  0.21362853202E+02  0.14212900093E+02 -0.18929954460E+02  0.31886065951E+02  0.00000000000E+00 0.  1.
         11    1    3    3    0    0 -0.11551366065E+02 -0.10331703586E+02  0.13863384243E+02  0.20793546593E+02  0.51100000000E-03 0. -1.
        -11    1    3    3    0    0 -0.10647449383E+02 -0.17614752167E+02  0.11213127011E+02  0.23438896942E+02  0.51100000000E-03 0.  1.
        -12    1    3    3    0    0  0.83596224668E+00  0.13733555660E+02 -0.61465567940E+01  0.15069490514E+02  0.00000000000E+00 0.  1.
</event>
<event>
 7    1  0.1284777E-011  0.5930181E+02  0.7816164E-02  0.1266605E+00
        -11   -1    0    0    0    0  0.00000000000E+00  0.00000000000E+00  0.45593999997E+02  0.45594000000E+02  0.51100000000E-03 0.  1.
         11   -1    0    0    0    0 -0.00000000000E+00 -0.00000000000E+00 -0.45593999997E+02  0.45594000000E+02  0.51100000000E-03 0. -1.
    9900012    2    1    2    0    0 -0.14069927186E+02  0.22671439605E+02 -0.17457719243E+02  0.59301811988E+02  0.49999759190E+02 0.  0.
        -12    1    1    2    0    0  0.14069927186E+02 -0.22671439605E+02  0.17457719243E+02  0.31886188012E+02  0.00000000000E+00 0.  1.
         11    1    3    3    0    0 -0.51800223225E+01  0.14699577263E+02  0.11280633105E+02  0.19239617628E+02  0.51100000000E-03 0. -1.
        -11    1    3    3    0    0 -0.10853139705E+01  0.21526017066E+00  0.47163462348E+01  0.48443952588E+01  0.51100000000E-03 0.  1.
         12    1    3    3    0    0 -0.78045908926E+01  0.77566021719E+01 -0.33454698583E+02  0.35217799101E+02  0.00000000000E+00 0. -1.
</event>
<event>
 7    1  0.1284777E-011  0.5930195E+02  0.7816164E-02  0.1266605E+00
        -11   -1    0    0    0    0  0.00000000000E+00  0.00000000000E+00  0.45593999997E+02  0.45594000000E+02  0.51100000000E-03 0. -1.
         11   -1    0    0    0    0 -0.00000000000E+00 -0.00000000000E+00 -0.45593999997E+02  0.45594000000E+02  0.51100000000E-03 0.  1.
    9900012    2    1    2    0    0 -0.18880370298E+02 -0.25523106885E+02  0.29703743645E+01  0.59301945187E+02  0.50000002114E+02 0.  0.
        -12    1    1    2    0    0  0.18880370298E+02  0.25523106885E+02 -0.29703743645E+01  0.31886054813E+02  0.00000000000E+00 0.  1.
         11    1    3    3    0    0  0.69959282912E+01 -0.57278468339E+01  0.73782126033E+00  0.90716934737E+01  0.51100000000E-03 0. -1.
        -11    1    3    3    0    0 -0.83149542676E+01 -0.28863124412E+02 -0.16740972828E+01  0.30083567229E+02  0.51100000000E-03 0.  1.
         12    1    3    3    0    0 -0.17561344322E+02  0.90678643599E+01  0.39066503869E+01  0.20146684484E+02  0.00000000000E+00 0. -1.
</event>
<event>
 7    1  0.1284777E-011  0.5930194E+02  0.7816164E-02  0.1266605E+00
        -11   -1    0    0    0    0  0.00000000000E+00  0.00000000000E+00  0.45593999997E+02  0.45594000000E+02  0.51100000000E-03 0.  1.
         11   -1    0    0    0    0 -0.00000000000E+00 -0.00000000000E+00 -0.45593999997E+02  0.45594000000E+02  0.51100000000E-03 0. -1.
    9900012    2    1    2    0    0  0.46985407560E+01 -0.17506416684E+02 -0.26232998867E+02  0.59301935020E+02  0.49999983572E+02 0.  0.
        -12    1    1    2    0    0 -0.46985407560E+01  0.17506416684E+02  0.26232998867E+02  0.31886064980E+02  0.00000000000E+00 0.  1.
         11    1    3    3    0    0 -0.72222127737E+00 -0.24157692976E+01  0.87959945575E+01  0.91502494715E+01  0.51100000000E-03 0. -1.
        -11    1    3    3    0    0  0.12073114618E+02  0.57902387757E+01 -0.90378465819E+01  0.16154554551E+02  0.51100000000E-03 0.  1.
         12    1    3    3    0    0 -0.66523525844E+01 -0.20880886162E+02 -0.25991146843E+02  0.33997130997E+02  0.00000000000E+00 0. -1.
</event>
<event>
 7    1  0.1284777E-011  0.5930193E+02  0.7816164E-02  0.1266605E+00
        -11   -1    0    0    0    0  0.00000000000E+00  0.00000000000E+00  0.45593999997E+02  0.45594000000E+02  0.51100000000E-03 0.  1.
         11   -1    0    0    0    0 -0.00000000000E+00 -0.00000000000E+00 -0.45593999997E+02  0.45594000000E+02  0.51100000000E-03 0. -1.
    9900012    2    1    2    0    0 -0.25028193168E+02 -0.19335122987E+02 -0.40575863566E+01  0.59301930295E+02  0.49999974954E+02 0.  0.
        -12    1    1    2    0    0  0.25028193168E+02  0.19335122987E+02  0.40575863566E+01  0.31886069705E+02  0.00000000000E+00 0.  1.
         11    1    3    3    0    0 -0.13862551503E+02 -0.10682720452E+02 -0.60183070635E+01  0.18507049214E+02  0.51100000000E-03 0. -1.
        -11    1    3    3    0    0 -0.16600876714E+02  0.21337670600E+01 -0.13267616199E+02  0.21358176641E+02  0.51100000000E-03 0.  1.
        -12    1    3    3    0    0  0.54352350493E+01 -0.10786169596E+02  0.15228336906E+02  0.19436704440E+02  0.00000000000E+00 0.  1.
</event>
<event>
 7    1  0.1284777E-011  0.5930197E+02  0.7816164E-02  0.1266605E+00
        -11   -1    0    0    0    0  0.00000000000E+00  0.00000000000E+00  0.45593999997E+02  0.45594000000E+02  0.51100000000E-03 0.  1.
         11   -1    0    0    0    0 -0.00000000000E+00 -0.00000000000E+00 -0.45593999997E+02  0.45594000000E+02  0.51100000000E-03 0. -1.
    9900012    2    1    2    0    0 -0.14866408002E+02  0.23830057079E+02 -0.15094270284E+02  0.59301973238E+02  0.50000053273E+02 0.  0.
        -12    1    1    2    0    0  0.14866408002E+02 -0.23830057079E+02  0.15094270284E+02  0.31886026762E+02  0.00000000000E+00 0.  1.
         11    1    3    3    0    0 -0.25788129941E+02  0.14905999427E+02 -0.58563240120E+01  0.30356432530E+02  0.51100000000E-03 0. -1.
        -11    1    3    3    0    0 -0.45234106482E+01 -0.48369448568E+01 -0.10853345643E+01  0.67108293689E+01  0.51100000000E-03 0.  1.
        -12    1    3    3    0    0  0.15445132587E+02  0.13761002509E+02 -0.81526117073E+01  0.22234711340E+02  0.00000000000E+00 0.  1.
</event>
<event>
 7    1  0.1284777E-011  0.5930194E+02  0.7816164E-02  0.1266605E+00
        -11   -1    0    0    0    0  0.00000000000E+00  0.00000000000E+00  0.45593999997E+02  0.45594000000E+02  0.51100000000E-03 0. -1.
         11   -1    0    0    0    0 -0.00000000000E+00 -0.00000000000E+00 -0.45593999997E+02  0.45594000000E+02  0.51100000000E-03 0.  1.
    9900012    2    1    2    0    0  0.29400865089E+02  0.46672956768E+01  0.11424814920E+02  0.59301938580E+02  0.49999990065E+02 0.  0.
        -12    1    1    2    0    0 -0.29400865089E+02 -0.46672956768E+01 -0.11424814920E+02  0.31886061420E+02  0.00000000000E+00 0.  1.
         11    1    3    3    0    0 -0.90179051921E+00 -0.37152964076E+01  0.31167304583E+00  0.38358563431E+01  0.51100000000E-03 0. -1.
        -11    1    3    3    0    0 -0.12665017663E+01 -0.52874328994E+01 -0.12573318434E+02  0.13698514887E+02  0.51100000000E-03 0.  1.
         12    1    3    3    0    0  0.31569157375E+02  0.13670024984E+02  0.23686460309E+02  0.41767567350E+02  0.00000000000E+00 0. -1.
</event>
<event>
 7    1  0.1284777E-011  0.5930194E+02  0.7816164E-02  0.1266605E+00
        -11   -1    0    0    0    0  0.00000000000E+00  0.00000000000E+00  0.45593999997E+02  0.45594000000E+02  0.51100000000E-03 0. -1.
         11   -1    0    0    0    0 -0.00000000000E+00 -0.00000000000E+00 -0.45593999997E+02  0.45594000000E+02  0.51100000000E-03 0.  1.
    9900012    2    1    2    0    0  0.28352887228E+02 -0.10953183081E+02  0.96365178922E+01  0.59301938612E+02  0.49999990123E+02 0.  0.
        -12    1    1    2    0    0 -0.28352887228E+02  0.10953183081E+02 -0.96365178922E+01  0.31886061388E+02  0.00000000000E+00 0.  1.
         11    1    3    3    0    0  0.18132062426E+02 -0.67181312928E+01  0.14274272412E+02  0.24034554896E+02  0.51100000000E-03 0. -1.
        -11    1    3    3    0    0  0.84807675023E+01 -0.21501703336E+01  0.13958547080E+02  0.16473848571E+02  0.51100000000E-03 0.  1.
        -12    1    3    3    0    0  0.17400572995E+01 -0.20848814542E+01 -0.18596301599E+02  0.18793535145E+02  0.00000000000E+00 0.  1.
</event>
<event>
 7    1  0.1284777E-011  0.5930194E+02  0.7816164E-02  0.1266605E+00
        -11   -1    0    0    0    0  0.00000000000E+00  0.00000000000E+00  0.45593999997E+02  0.45594000000E+02  0.51100000000E-03 0. -1.
         11   -1    0    0    0    0 -0.00000000000E+00 -0.00000000000E+00 -0.45593999997E+02  0.45594000000E+02  0.51100000000E-03 0.  1.
    9900012    2    1    2    0    0 -0.30837504334E+02  0.72834581034E+01  0.35665660999E+01  0.59301939892E+02  0.49999992457E+02 0.  0.
        -12    1    1    2    0    0  0.30837504334E+02 -0.72834581034E+01 -0.35665660999E+01  0.31886060108E+02  0.00000000000E+00 0.  1.
         11    1    3    3    0    0 -0.44688021619E+00  0.15992396231E+02  0.46114690288E+00  0.16005283373E+02  0.51100000000E-03 0. -1.
        -11    1    3    3    0    0  0.67632903638E+00  0.60872250482E+01  0.62401957311E+01  0.87436704408E+01  0.51100000000E-03 0.  1.
         12    1    3    3    0    0 -0.31066953154E+02 -0.14796163176E+02 -0.31347765342E+01  0.34552986078E+02  0.00000000000E+00 0. -1.
</event>
<event>
 7    1  0.1284777E-011  0.5930200E+02  0.7816164E-02  0.1266605E+00
        -11   -1    0    0    0    0  0.00000000000E+00  0.00000000000E+00  0.45593999997E+02  0.45594000000E+02  0.51100000000E-03 0.  1.
         11   -1    0    0    0    0 -0.00000000000E+00 -0.00000000000E+00 -0.45593999997E+02  0.45594000000E+02  0.51100000000E-03 0. -1.
    9900012    2    1    2    0    0  0.13882668084E+02  0.92469949284E+01 -0.27175019852E+02  0.59301998490E+02  0.50000099327E+02 0.  0.
        -12    1    1    2    0    0 -0.13882668084E+02 -0.92469949284E+01  0.27175019852E+02  0.31886001510E+02  0.00000000000E+00 0.  1.
         11    1    3    3    0    0  0.15027597958E+02 -0.99921201400E+00 -0.11386371826E+02  0.18880587614E+02  0.51100000000E-03 0. -1.
        -11    1    3    3    0    0  0.29960440067E+01 -0.57141277144E+01 -0.21904505086E+02  0.22834948622E+02  0.51100000000E-03 0.  1.
        -12    1    3    3    0    0 -0.41409738809E+01  0.15960334657E+02  0.61158570609E+01  0.17586462254E+02  0.00000000000E+00 0.  1.
</event>
<event>
 7    1  0.1284777E-011  0.5930195E+02  0.7816164E-02  0.1266605E+00
        -11   -1    0    0    0    0  0.00000000000E+00  0.00000000000E+00  0.45593999997E+02  0.45594000000E+02  0.51100000000E-03 0. -1.
         11   -1    0    0    0    0 -0.00000000000E+00 -0.00000000000E+00 -0.45593999997E+02  0.45594000000E+02  0.51100000000E-03 0.  1.
    9900012    2    1    2    0    0 -0.29372587862E+02 -0.12408421867E+02 -0.46837120177E-01  0.59301952195E+02  0.50000014895E+02 0.  0.
        -12    1    1    2    0    0  0.29372587862E+02  0.12408421867E+02  0.46837120177E-01  0.31886047805E+02  0.00000000000E+00 0.  1.
         11    1    3    3    0    0 -0.26061518653E+02 -0.17843019890E+02 -0.95679340503E+00  0.31598917183E+02  0.51100000000E-03 0. -1.
        -11    1    3    3    0    0 -0.90346129978E+01 -0.13672346242E+01  0.10970697505E+02  0.14277596666E+02  0.51100000000E-03 0.  1.
        -12    1    3    3    0    0  0.57235437887E+01  0.68018326475E+01 -0.10060741220E+02  0.13425438346E+02  0.00000000000E+00 0.  1.
</event>
<event>
 7    1  0.1284777E-011  0.5930194E+02  0.7816164E-02  0.1266605E+00
        -11   -1    0    0    0    0  0.00000000000E+00  0.00000000000E+00  0.45593999997E+02  0.45594000000E+02  0.51100000000E-03 0.  1.
         11   -1    0    0    0    0 -0.00000000000E+00 -0.00000000000E+00 -0.45593999997E+02  0.45594000000E+02  0.51100000000E-03 0. -1.
    9900012    2    1    2    0    0 -0.21309546360E+02  0.22959387786E+02 -0.59574046340E+01  0.59301938413E+02  0.49999989760E+02 0.  0.
        -12    1    1    2    0    0  0.21309546360E+02 -0.22959387786E+02  0.59574046340E+01  0.31886061587E+02  0.00000000000E+00 0.  1.
         11    1    3    3    0    0 -0.14487230379E+02  0.16362935082E+02  0.61321549267E+01  0.22698652226E+02  0.51100000000E-03 0. -1.
        -11    1    3    3    0    0 -0.13037106085E+02  0.11504083945E+02 -0.19241036887E+02  0.25933136780E+02  0.51100000000E-03 0.  1.
        -12    1    3    3    0    0  0.62147901035E+01 -0.49076312410E+01  0.71514773265E+01  0.10670149408E+02  0.00000000000E+00 0.  1.
</event>
<event>
 7    1  0.1284777E-011  0.5930193E+02  0.7816164E-02  0.1266605E+00
        -11   -1    0    0    0    0  0.00000000000E+00  0.00000000000E+00  0.45593999997E+02  0.45594000000E+02  0.51100000000E-03 0.  1.
         11   -1    0    0    0    0 -0.00000000000E+00 -0.00000000000E+00 -0.45593999997E+02  0.45594000000E+02  0.51100000000E-03 0. -1.
    9900012    2    1    2    0    0  0.11278102393E+01  0.31628587903E+02 -0.38835296009E+01  0.59301932026E+02  0.49999978112E+02 0.  0.
        -12    1    1    2    0    0 -0.11278102393E+01 -0.31628587903E+02  0.38835296009E+01  0.31886067974E+02  0.00000000000E+00 0.  1.
         11    1    3    3    0    0 -0.73284360774E+00  0.17260840854E+02 -0.56258403329E+01  0.18169308365E+02  0.51100000000E-03 0. -1.
        -11    1    3    3    0    0 -0.47883059355E+01  0.26603899647E+02  0.27463132749E+01  0.27170527912E+02  0.51100000000E-03 0.  1.
         12    1    3    3    0    0  0.66489597825E+01 -0.12236152598E+02 -0.10040025429E+01  0.13962095749E+02  0.00000000000E+00 0. -1.
</event>
<event>
 7    1  0.1284777E-011  0.5930194E+02  0.7816164E-02  0.1266605E+00
        -11   -1    0    0    0    0  0.00000000000E+00  0.00000000000E+00  0.45593999997E+02  0.45594000000E+02  0.51100000000E-03 0. -1.
         11   -1    0    0    0    0 -0.00000000000E+00 -0.00000000000E+00 -0.45593999997E+02  0.45594000000E+02  0.51100000000E-03 0.  1.
    9900012    2    1    2    0    0 -0.34012344564E+00 -0.30459248243E+01  0.31738419402E+02  0.59301943358E+02  0.49999998779E+02 0.  0.
        -12    1    1    2    0    0  0.34012344564E+00  0.30459248243E+01 -0.31738419402E+02  0.31886056642E+02  0.00000000000E+00 0.  1.
         11    1    3    3    0    0 -0.66428941034E+01  0.90015794884E+01  0.20385285301E+02  0.23253307989E+02  0.51100000000E-03 0. -1.
        -11    1    3    3    0    0 -0.11722850785E+02 -0.87237858152E+01  0.99230881017E+01  0.17663446640E+02  0.51100000000E-03 0.  1.
         12    1    3    3    0    0  0.18025621443E+02 -0.33237184975E+01  0.14300459998E+01  0.18385188730E+02  0.00000000000E+00 0. -1.
</event>
<event>
 7    1  0.1284777E-011  0.5930194E+02  0.7816164E-02  0.1266605E+00
        -11   -1    0    0    0    0  0.00000000000E+00  0.00000000000E+00  0.45593999997E+02  0.45594000000E+02  0.51100000000E-03 0.  1.
         11   -1    0    0    0    0 -0.00000000000E+00 -0.00000000000E+00 -0.45593999997E+02  0.45594000000E+02  0.51100000000E-03 0. -1.
    9900012    2    1    2    0    0  0.34007405173E+01 -0.25634226678E+02 -0.18655897250E+02  0.59301935400E+02  0.49999984266E+02 0.  0.
        -12    1    1    2    0    0 -0.34007405173E+01  0.25634226678E+02  0.18655897250E+02  0.31886064600E+02  0.00000000000E+00 0.  1.
         11    1    3    3    0    0 -0.23846101700E+01  0.71136112659E+01 -0.81988006516E+01  0.11113512644E+02  0.51100000000E-03 0. -1.
        -11    1    3    3    0    0 -0.15153875155E+01  0.66911710518E+01 -0.24709369166E+01  0.72920298184E+01  0.51100000000E-03 0.  1.
        -12    1    3    3    0    0  0.73007382028E+01 -0.39439008996E+02 -0.79861596818E+01  0.40896392938E+02  0.00000000000E+00 0.  1.
</event>
