<event>
 7    1  0.5992960E-013  0.5052888E+02  0.7816164E-02  0.1300439E+00
        -11   -1    0    0    0    0  0.00000000000E+00  0.00000000000E+00  0.45593999997E+02  0.45594000000E+02  0.51100000000E-03 0.  1.
         11   -1    0    0    0    0 -0.00000000000E+00 -0.00000000000E+00 -0.45593999997E+02  0.45594000000E+02  0.51100000000E-03 0. -1.
    9900012    2    1    2    0    0 -0.27776090238E+02  0.22659513078E+01 -0.29606053568E+02  0.50528878857E+02  0.30000057775E+02 0.  0.
        -12    1    1    2    0    0  0.27776090238E+02 -0.22659513078E+01  0.29606053568E+02  0.40659121143E+02  0.00000000000E+00 0.  1.
         11    1    3    3    0    0 -0.14873048548E+02  0.53573627915E+01 -0.72481391146E+01  0.17390929535E+02  0.51100000000E-03 0. -1.
        -11    1    3    3    0    0 -0.16560881082E+00  0.65859734838E+01 -0.13079950138E+02  0.14645394118E+02  0.51100000000E-03 0.  1.
        -12    1    3    3    0    0 -0.12737432879E+02 -0.96773849675E+01 -0.92779643154E+01  0.18492555205E+02  0.00000000000E+00 0.  1.
</event>
<event>
 7    1  0.8053327E-013  0.5052880E+02  0.7816164E-02  0.1300439E+00
        -11   -1    0    0    0    0  0.00000000000E+00  0.00000000000E+00  0.45593999997E+02  0.45594000000E+02  0.51100000000E-03 0.  1.
         11   -1    0    0    0    0 -0.00000000000E+00 -0.00000000000E+00 -0.45593999997E+02  0.45594000000E+02  0.51100000000E-03 0. -1.
    9900012    2    1    2    0    0  0.10012693528E+02  0.37759695761E+02 -0.11274821123E+02  0.50528803660E+02  0.29999829204E+02 0.  0.
        -12    1    1    2    0    0 -0.10012693528E+02 -0.37759695761E+02  0.11274821123E+02  0.40659196340E+02  0.00000000000E+00 0.  1.
         11    1    3    3    0    0  0.10647789647E+02  0.15266806973E+02  0.17634942333E+01  0.18696543308E+02  0.51100000000E-03 0. -1.
        -11    1    3    3    0    0 -0.45535507311E+01  0.11798050289E+00  0.15779724384E+01  0.48206577288E+01  0.51100000000E-03 0.  1.
         12    1    3    3    0    0  0.39184546124E+01  0.22374908285E+02 -0.14616287795E+02  0.27011602623E+02  0.00000000000E+00 0. -1.
</event>
<event>
 7    1  0.5992960E-013  0.5052886E+02  0.7816164E-02  0.1300439E+00
        -11   -1    0    0    0    0  0.00000000000E+00  0.00000000000E+00  0.45593999997E+02  0.45594000000E+02  0.51100000000E-03 0. -1.
         11   -1    0    0    0    0 -0.00000000000E+00 -0.00000000000E+00 -0.45593999997E+02  0.45594000000E+02  0.51100000000E-03 0.  1.
    9900012    2    1    2    0    0 -0.12381812733E+02 -0.36181287621E+02  0.13811970200E+02  0.50528863495E+02  0.30000011080E+02 0.  0.
        -12    1    1    2    0    0  0.12381812733E+02  0.36181287621E+02 -0.13811970200E+02  0.40659136505E+02  0.00000000000E+00 0.  1.
         11    1    3    3    0    0  0.44024746166E+01 -0.73258279235E+01  0.14340081677E+02  0.16693935434E+02  0.51100000000E-03 0.  1.
        -11    1    3    3    0    0 -0.34429190308E+01 -0.92515467174E+01 -0.20165402433E+01  0.10075278802E+02  0.51100000000E-03 0. -1.
        -12    1    3    3    0    0 -0.13341368319E+02 -0.19603912981E+02  0.14884287671E+01  0.23759649260E+02  0.00000000000E+00 0.  1.
</event>
<event>
 7    1  0.5992960E-013  0.5052887E+02  0.7816164E-02  0.1300439E+00
        -11   -1    0    0    0    0  0.00000000000E+00  0.00000000000E+00  0.45593999997E+02  0.45594000000E+02  0.51100000000E-03 0.  1.
         11   -1    0    0    0    0 -0.00000000000E+00 -0.00000000000E+00 -0.45593999997E+02  0.45594000000E+02  0.51100000000E-03 0. -1.
    9900012    2    1    2    0    0 -0.11848581751E+02 -0.14075999073E+02 -0.36257997987E+02  0.50528867478E+02  0.30000023187E+02 0.  0.
        -12    1    1    2    0    0  0.11848581751E+02  0.14075999073E+02  0.36257997987E+02  0.40659132522E+02  0.00000000000E+00 0.  1.
         11    1    3    3    0    0 -0.12536653471E+02 -0.11641148714E+02 -0.91722800553E+01  0.19411716702E+02  0.51100000000E-03 0. -1.
        -11    1    3    3    0    0  0.85685074175E+00 -0.33987850626E+01  0.47667266123E+00  0.35373931337E+01  0.51100000000E-03 0.  1.
         12    1    3    3    0    0 -0.16877902132E+00  0.96393470273E+00 -0.27562390592E+02  0.27579757643E+02  0.00000000000E+00 0. -1.
</event>
<event>
 7    1  0.5992960E-013  0.5052885E+02  0.7816164E-02  0.1300439E+00
        -11   -1    0    0    0    0  0.00000000000E+00  0.00000000000E+00  0.45593999997E+02  0.45594000000E+02  0.51100000000E-03 0.  1.
         11   -1    0    0    0    0 -0.00000000000E+00 -0.00000000000E+00 -0.45593999997E+02  0.45594000000E+02  0.51100000000E-03 0. -1.
    9900012    2    1    2    0    0  0.39203756163E+02 -0.12129510647E+01 -0.10712637232E+02  0.50528851656E+02  0.29999975094E+02 0.  0.
        -12    1    1    2    0    0 -0.39203756163E+02  0.12129510647E+01  0.10712637232E+02  0.40659148344E+02  0.00000000000E+00 0.  1.
         11    1    3    3    0    0  0.97164638933E+01  0.56124702203E+01 -0.91611940065E+01  0.14485750531E+02  0.51100000000E-03 0.  1.
        -11    1    3    3    0    0  0.65303260066E+01  0.46676786080E+01 -0.59553326964E+01  0.99949171645E+01  0.51100000000E-03 0. -1.
        -12    1    3    3    0    0  0.22956966263E+02 -0.11493099893E+02  0.44038894705E+01  0.26048183960E+02  0.00000000000E+00 0.  1.
</event>
<event>
 7    1  0.5992960E-013  0.5052886E+02  0.7816164E-02  0.1300439E+00
        -11   -1    0    0    0    0  0.00000000000E+00  0.00000000000E+00  0.45593999997E+02  0.45594000000E+02  0.51100000000E-03 0. -1.
         11   -1    0    0    0    0 -0.00000000000E+00 -0.00000000000E+00 -0.45593999997E+02  0.45594000000E+02  0.51100000000E-03 0.  1.
    9900012    2    1    2    0    0  0.37870957296E+02  0.20925034327E+01 -0.14648468173E+02  0.50528860843E+02  0.30000003019E+02 0.  0.
        -12    1    1    2    0    0 -0.37870957296E+02 -0.20925034327E+01  0.14648468173E+02  0.40659139157E+02  0.00000000000E+00 0.  1.
         11    1    3    3    0    0  0.20360159501E+02 -0.46183219781E+01 -0.11278331070E+02  0.23729006402E+02  0.51100000000E-03 0. -1.
        -11    1    3    3    0    0  0.63768987588E+01 -0.66346540965E+01 -0.92676848807E+00  0.92489119821E+01  0.51100000000E-03 0.  1.
         12    1    3    3    0    0  0.11133899036E+02  0.13345479507E+02 -0.24433686148E+01  0.17550942460E+02  0.00000000000E+00 0. -1.
</event>
<event>
 7    1  0.5992960E-013  0.5052885E+02  0.7816164E-02  0.1300439E+00
        -11   -1    0    0    0    0  0.00000000000E+00  0.00000000000E+00  0.45593999997E+02  0.45594000000E+02  0.51100000000E-03 0. -1.
         11   -1    0    0    0    0 -0.00000000000E+00 -0.00000000000E+00 -0.45593999997E+02  0.45594000000E+02  0.51100000000E-03 0.  1.
    9900012    2    1    2    0    0 -0.30935128523E+02  0.22281871983E+02  0.14131624552E+02  0.50528845947E+02  0.29999957741E+02 0.  0.
        -12    1    1    2    0    0  0.30935128523E+02 -0.22281871983E+02 -0.14131624552E+02  0.40659154053E+02  0.00000000000E+00 0.  1.
         11    1    3    3    0    0 -0.12381814285E+02  0.12391045179E+02  0.32292771868E+01  0.17812230546E+02  0.51100000000E-03 0. -1.
        -11    1    3    3    0    0 -0.17151467504E+02  0.15830291451E+02  0.43131100564E+01  0.23735498385E+02  0.51100000000E-03 0.  1.
        -12    1    3    3    0    0 -0.14018467339E+01 -0.59394646461E+01  0.65892373092E+01  0.89811170165E+01  0.00000000000E+00 0.  1.
</event>
<event>
 7    1  0.5992960E-013  0.5052886E+02  0.7816164E-02  0.1300439E+00
        -11   -1    0    0    0    0  0.00000000000E+00  0.00000000000E+00  0.45593999997E+02  0.45594000000E+02  0.51100000000E-03 0.  1.
         11   -1    0    0    0    0 -0.00000000000E+00 -0.00000000000E+00 -0.45593999997E+02  0.45594000000E+02  0.51100000000E-03 0. -1.
    9900012    2    1    2    0    0  0.19613840368E+02  0.25005574658E+02 -0.25361076670E+02  0.50528859480E+02  0.29999998875E+02 0.  0.
        -12    1    1    2    0    0 -0.19613840368E+02 -0.25005574658E+02  0.25361076670E+02  0.40659140520E+02  0.00000000000E+00 0.  1.
         11    1    3    3    0    0  0.14925860364E+01 -0.20992433393E+01  0.13675173291E+01  0.29162886654E+01  0.51100000000E-03 0. -1.
        -11    1    3    3    0    0 -0.21496872556E+01 -0.25803149375E+01 -0.32809864005E+01  0.46951094231E+01  0.51100000000E-03 0.  1.
         12    1    3    3    0    0  0.20270941587E+02  0.29685132934E+02 -0.23447607599E+02  0.42917461391E+02  0.00000000000E+00 0. -1.
</event>
<event>
 7    1  0.5992960E-013  0.5052888E+02  0.7816164E-02  0.1300439E+00
        -11   -1    0    0    0    0  0.00000000000E+00  0.00000000000E+00  0.45593999997E+02  0.45594000000E+02  0.51100000000E-03 0. -1.
         11   -1    0    0    0    0 -0.00000000000E+00 -0.00000000000E+00 -0.45593999997E+02  0.45594000000E+02  0.51100000000E-03 0.  1.
    9900012    2    1    2    0    0 -0.24596495479E+02 -0.31705567486E+02 -0.65523317758E+01  0.50528884772E+02  0.30000075751E+02 0.  0.
        -12    1    1    2    0    0  0.24596495479E+02  0.31705567486E+02  0.65523317758E+01  0.40659115228E+02  0.00000000000E+00 0.  1.
         11    1    3    3    0    0  0.24362731115E+00 -0.36382111372E+00 -0.33270395312E+01  0.33557282924E+01  0.51100000000E-03 0. -1.
        -11    1    3    3    0    0  0.17006515230E+01 -0.87117754132E+01 -0.80244789917E+01  0.11965764071E+02  0.51100000000E-03 0.  1.
         12    1    3    3    0    0 -0.26540774313E+02 -0.22629970959E+02  0.47991867471E+01  0.35207392408E+02  0.00000000000E+00 0. -1.
</event>
<event>
 7    1  0.5992960E-013  0.5052886E+02  0.7816164E-02  0.1300439E+00
        -11   -1    0    0    0    0  0.00000000000E+00  0.00000000000E+00  0.45593999997E+02  0.45594000000E+02  0.51100000000E-03 0.  1.
         11   -1    0    0    0    0 -0.00000000000E+00 -0.00000000000E+00 -0.45593999997E+02  0.45594000000E+02  0.51100000000E-03 0. -1.
    9900012    2    1    2    0    0 -0.12480497878E+02 -0.34598746334E+02  0.17330023584E+02  0.50528858437E+02  0.29999995706E+02 0.  0.
        -12    1    1    2    0    0  0.12480497878E+02  0.34598746334E+02 -0.17330023584E+02  0.40659141563E+02  0.00000000000E+00 0.  1.
         11    1    3    3    0    0 -0.67494795199E+01 -0.16224267163E+02  0.10913490738E+01  0.17606060372E+02  0.51100000000E-03 0. -1.
        -11    1    3    3    0    0  0.16746018704E+01 -0.14716343666E+02  0.12089651510E+00  0.14811808753E+02  0.51100000000E-03 0.  1.
        -12    1    3    3    0    0 -0.74056202280E+01 -0.36581355053E+01  0.16117777995E+02  0.18110989311E+02  0.00000000000E+00 0.  1.
</event>
<event>
 7    1  0.5992960E-013  0.5052886E+02  0.7816164E-02  0.1300439E+00
        -11   -1    0    0    0    0  0.00000000000E+00  0.00000000000E+00  0.45593999997E+02  0.45594000000E+02  0.51100000000E-03 0.  1.
         11   -1    0    0    0    0 -0.00000000000E+00 -0.00000000000E+00 -0.45593999997E+02  0.45594000000E+02  0.51100000000E-03 0. -1.
    9900012    2    1    2    0    0  0.23294644922E+01 -0.33580000720E+02 -0.22806193826E+02  0.50528864126E+02  0.30000012997E+02 0.  0.
        -12    1    1    2    0    0 -0.23294644922E+01  0.33580000720E+02  0.22806193826E+02  0.40659135874E+02  0.00000000000E+00 0.  1.
         11    1    3    3    0    0 -0.52338980895E+01 -0.19604550230E+02 -0.16653695992E+02  0.26250288939E+02  0.51100000000E-03 0. -1.
        -11    1    3    3    0    0  0.21599840981E+01 -0.16388067394E+02 -0.12197701328E+01  0.16574743547E+02  0.51100000000E-03 0.  1.
         12    1    3    3    0    0  0.54033784835E+01  0.24126169034E+01 -0.49327277016E+01  0.77038316399E+01  0.00000000000E+00 0. -1.
</event>
<event>
 7    1  0.5992960E-013  0.5052886E+02  0.7816164E-02  0.1300439E+00
        -11   -1    0    0    0    0  0.00000000000E+00  0.00000000000E+00  0.45593999997E+02  0.45594000000E+02  0.51100000000E-03 0.  1.
         11   -1    0    0    0    0 -0.00000000000E+00 -0.00000000000E+00 -0.45593999997E+02  0.45594000000E+02  0.51100000000E-03 0. -1.
    9900012    2    1    2    0    0  0.22219024424E+02 -0.10957162074E+02 -0.32240056260E+02  0.50528859887E+02  0.30000000113E+02 0.  0.
        -12    1    1    2    0    0 -0.22219024424E+02  0.10957162074E+02  0.32240056260E+02  0.40659140113E+02  0.00000000000E+00 0.  1.
         11    1    3    3    0    0  0.16604351268E+01 -0.73841668033E+01  0.18140558549E+01  0.77829148200E+01  0.51100000000E-03 0. -1.
        -11    1    3    3    0    0 -0.23146691232E+01 -0.69804875861E+00 -0.14636939207E+01  0.28261927348E+01  0.51100000000E-03 0.  1.
         12    1    3    3    0    0  0.22873258421E+02 -0.28749465125E+01 -0.32590418194E+02  0.39919752332E+02  0.00000000000E+00 0. -1.
</event>
<event>
 7    1  0.5992960E-013  0.5052886E+02  0.7816164E-02  0.1300439E+00
        -11   -1    0    0    0    0  0.00000000000E+00  0.00000000000E+00  0.45593999997E+02  0.45594000000E+02  0.51100000000E-03 0. -1.
         11   -1    0    0    0    0 -0.00000000000E+00 -0.00000000000E+00 -0.45593999997E+02  0.45594000000E+02  0.51100000000E-03 0.  1.
    9900012    2    1    2    0    0 -0.18813749001E+02 -0.28050890006E+02  0.22635288956E+02  0.50528857268E+02  0.29999992151E+02 0.  0.
        -12    1    1    2    0    0  0.18813749001E+02  0.28050890006E+02 -0.22635288956E+02  0.40659142732E+02  0.00000000000E+00 0.  1.
         11    1    3    3    0    0 -0.16915215152E+02 -0.12147596682E+02  0.45718716312E+01  0.21321130816E+02  0.51100000000E-03 0. -1.
        -11    1    3    3    0    0 -0.31838389669E+01 -0.13331283442E+01  0.13427257049E+02  0.13863812385E+02  0.51100000000E-03 0.  1.
        -12    1    3    3    0    0  0.12853051180E+01 -0.14570164979E+02  0.46361602763E+01  0.15343914067E+02  0.00000000000E+00 0.  1.
</event>
<event>
 7    1  0.5992960E-013  0.5052886E+02  0.7816164E-02  0.1300439E+00
        -11   -1    0    0    0    0  0.00000000000E+00  0.00000000000E+00  0.45593999997E+02  0.45594000000E+02  0.51100000000E-03 0. -1.
         11   -1    0    0    0    0 -0.00000000000E+00 -0.00000000000E+00 -0.45593999997E+02  0.45594000000E+02  0.51100000000E-03 0.  1.
    9900012    2    1    2    0    0 -0.29655040370E+02  0.27729696393E+02  0.21927353104E+01  0.50528861180E+02  0.30000004044E+02 0.  0.
        -12    1    1    2    0    0  0.29655040370E+02 -0.27729696393E+02 -0.21927353104E+01  0.40659138820E+02  0.00000000000E+00 0.  1.
         11    1    3    3    0    0 -0.12648515815E+02  0.12205143402E+02 -0.10180623221E+02  0.20312448577E+02  0.51100000000E-03 0. -1.
        -11    1    3    3    0    0 -0.62024207688E+01  0.94580710598E+01 -0.17313329692E+01  0.11442143404E+02  0.51100000000E-03 0.  1.
        -12    1    3    3    0    0 -0.10804103786E+02  0.60664819312E+01  0.14104691500E+02  0.18774269199E+02  0.00000000000E+00 0.  1.
</event>
<event>
 7    1  0.5992960E-013  0.5052885E+02  0.7816164E-02  0.1300439E+00
        -11   -1    0    0    0    0  0.00000000000E+00  0.00000000000E+00  0.45593999997E+02  0.45594000000E+02  0.51100000000E-03 0.  1.
         11   -1    0    0    0    0 -0.00000000000E+00 -0.00000000000E+00 -0.45593999997E+02  0.45594000000E+02  0.51100000000E-03 0. -1.
    9900012    2    1    2    0    0  0.12904502074E+02 -0.27859589977E+02 -0.26654902718E+02  0.50528846463E+02  0.29999959309E+02 0.  0.
        -12    1    1    2    0    0 -0.12904502074E+02  0.27859589977E+02  0.26654902718E+02  0.40659153537E+02  0.00000000000E+00 0.  1.
         11    1    3    3    0    0  0.12498907407E+02 -0.91271863202E+01 -0.13570678086E+02  0.20583768374E+02  0.51100000000E-03 0. -1.
        -11    1    3    3    0    0  0.97361426309E+01 -0.10901697385E+02 -0.86369669306E+01  0.16977534486E+02  0.51100000000E-03 0.  1.
         12    1    3    3    0    0 -0.93305479646E+01 -0.78307062719E+01 -0.44472577018E+01  0.12967543603E+02  0.00000000000E+00 0. -1.
</event>
<event>
 7    1  0.5992960E-013  0.5052883E+02  0.7816164E-02  0.1300439E+00
        -11   -1    0    0    0    0  0.00000000000E+00  0.00000000000E+00  0.45593999997E+02  0.45594000000E+02  0.51100000000E-03 0. -1.
         11   -1    0    0    0    0 -0.00000000000E+00 -0.00000000000E+00 -0.45593999997E+02  0.45594000000E+02  0.51100000000E-03 0.  1.
    9900012    2    1    2    0    0 -0.13758760181E+02 -0.19121887580E+02  0.33139377093E+02  0.50528826614E+02  0.29999898977E+02 0.  0.
        -12    1    1    2    0    0  0.13758760181E+02  0.19121887580E+02 -0.33139377093E+02  0.40659173386E+02  0.00000000000E+00 0.  1.
         11    1    3    3    0    0  0.30300466470E+01 -0.70241245921E+01  0.18292513623E+02  0.19827646453E+02  0.51100000000E-03 0.  1.
        -11    1    3    3    0    0 -0.29276203351E+01 -0.58362457425E+00  0.12112869465E+02  0.12475303019E+02  0.51100000000E-03 0. -1.
         12    1    3    3    0    0 -0.13861186493E+02 -0.11514138413E+02  0.27339940045E+01  0.18225877142E+02  0.00000000000E+00 0. -1.
</event>
<event>
 7    1  0.5992960E-013  0.5052886E+02  0.7816164E-02  0.1300439E+00
        -11   -1    0    0    0    0  0.00000000000E+00  0.00000000000E+00  0.45593999997E+02  0.45594000000E+02  0.51100000000E-03 0.  1.
         11   -1    0    0    0    0 -0.00000000000E+00 -0.00000000000E+00 -0.45593999997E+02  0.45594000000E+02  0.51100000000E-03 0. -1.
    9900012    2    1    2    0    0  0.37101401153E+02 -0.69905143777E+01 -0.15092535119E+02  0.50528857422E+02  0.29999992621E+02 0.  0.
        -12    1    1    2    0    0 -0.37101401153E+02  0.69905143777E+01  0.15092535119E+02  0.40659142578E+02  0.00000000000E+00 0.  1.
         11    1    3    3    0    0  0.17297221231E+02 -0.16242362044E+01 -0.17830705723E+01  0.17464574043E+02  0.51100000000E-03 0. -1.
        -11    1    3    3    0    0  0.10507138162E+02  0.68074991974E+01  0.37326102461E+00  0.12525227412E+02  0.51100000000E-03 0.  1.
         12    1    3    3    0    0  0.92970417604E+01 -0.12173777371E+02 -0.13682725572E+02  0.20539055968E+02  0.00000000000E+00 0. -1.
</event>
<event>
 7    1  0.5992960E-013  0.5052886E+02  0.7816164E-02  0.1300439E+00
        -11   -1    0    0    0    0  0.00000000000E+00  0.00000000000E+00  0.45593999997E+02  0.45594000000E+02  0.51100000000E-03 0. -1.
         11   -1    0    0    0    0 -0.00000000000E+00 -0.00000000000E+00 -0.45593999997E+02  0.45594000000E+02  0.51100000000E-03 0.  1.
    9900012    2    1    2    0    0  0.26356869152E+02  0.24046727335E+02  0.19499644360E+02  0.50528858627E+02  0.29999996284E+02 0.  0.
        -12    1    1    2    0    0 -0.26356869152E+02 -0.24046727335E+02 -0.19499644360E+02  0.40659141373E+02  0.00000000000E+00 0.  1.
         11    1    3    3    0    0  0.24244543409E+02  0.10571344109E+02  0.59737774928E+01  0.27115258051E+02  0.51100000000E-03 0. -1.
        -11    1    3    3    0    0  0.42738048299E+01 -0.10686046611E+01  0.32738206241E+01  0.54886451321E+01  0.51100000000E-03 0.  1.
        -12    1    3    3    0    0 -0.21614790876E+01  0.14543987887E+02  0.10252046243E+02  0.17924955444E+02  0.00000000000E+00 0.  1.
</event>
<event>
 7    1  0.5992960E-013  0.5052886E+02  0.7816164E-02  0.1300439E+00
        -11   -1    0    0    0    0  0.00000000000E+00  0.00000000000E+00  0.45593999997E+02  0.45594000000E+02  0.51100000000E-03 0.  1.
         11   -1    0    0    0    0 -0.00000000000E+00 -0.00000000000E+00 -0.45593999997E+02  0.45594000000E+02  0.51100000000E-03 0. -1.
    9900012    2    1    2    0    0 -0.20544083291E+02  0.28542711216E+02 -0.20406371433E+02  0.50528859369E+02  0.29999998537E+02 0.  0.
        -12    1    1    2    0    0  0.20544083291E+02 -0.28542711216E+02  0.20406371433E+02  0.40659140631E+02  0.00000000000E+00 0.  1.
         11    1    3    3    0    0 -0.10644887882E+02  0.19014813044E+02 -0.19903619930E+02  0.29513231604E+02  0.51100000000E-03 0. -1.
        -11    1    3    3    0    0  0.40359338411E+00  0.57520124828E+01 -0.63538359315E+01  0.85801961823E+01  0.51100000000E-03 0.  1.
         12    1    3    3    0    0 -0.10302788794E+02  0.37758856885E+01  0.58510844284E+01  0.12435431583E+02  0.00000000000E+00 0. -1.
</event>
<event>
 7    1  0.5992960E-013  0.5052885E+02  0.7816164E-02  0.1300439E+00
        -11   -1    0    0    0    0  0.00000000000E+00  0.00000000000E+00  0.45593999997E+02  0.45594000000E+02  0.51100000000E-03 0.  1.
         11   -1    0    0    0    0 -0.00000000000E+00 -0.00000000000E+00 -0.45593999997E+02  0.45594000000E+02  0.51100000000E-03 0. -1.
    9900012    2    1    2    0    0  0.22894641126E+02 -0.19017764732E+01 -0.33546765460E+02  0.50528845818E+02  0.29999957347E+02 0.  0.
        -12    1    1    2    0    0 -0.22894641126E+02  0.19017764732E+01  0.33546765460E+02  0.40659154182E+02  0.00000000000E+00 0.  1.
         11    1    3    3    0    0  0.14577863914E+02  0.73361682696E+01 -0.44543531842E+01  0.16916700143E+02  0.51100000000E-03 0. -1.
        -11    1    3    3    0    0 -0.63837826454E+00  0.44596741199E+00  0.68952323916E+00  0.10401232137E+01  0.51100000000E-03 0.  1.
         12    1    3    3    0    0  0.89551554767E+01 -0.96839121548E+01 -0.29781935515E+02  0.32572022461E+02  0.00000000000E+00 0. -1.
</event>
<event>
 7    1  0.5992960E-013  0.5052886E+02  0.7816164E-02  0.1300439E+00
        -11   -1    0    0    0    0  0.00000000000E+00  0.00000000000E+00  0.45593999997E+02  0.45594000000E+02  0.51100000000E-03 0. -1.
         11   -1    0    0    0    0 -0.00000000000E+00 -0.00000000000E+00 -0.45593999997E+02  0.45594000000E+02  0.51100000000E-03 0.  1.
    9900012    2    1    2    0    0  0.15119816100E+02 -0.37628120390E+02 -0.29464021811E+01  0.50528861189E+02  0.30000004071E+02 0.  0.
        -12    1    1    2    0    0 -0.15119816100E+02  0.37628120390E+02  0.29464021811E+01  0.40659138811E+02  0.00000000000E+00 0.  1.
         11    1    3    3    0    0  0.25080887635E+01 -0.31273912333E+02 -0.34076629431E+01  0.31558838205E+02  0.51100000000E-03 0. -1.
        -11    1    3    3    0    0  0.41927566331E+01 -0.85175009680E+01  0.29271792183E+01  0.99345563243E+01  0.51100000000E-03 0.  1.
        -12    1    3    3    0    0  0.84189707035E+01  0.21632929111E+01 -0.24659184563E+01  0.90354666597E+01  0.00000000000E+00 0.  1.
</event>
<event>
 7    1  0.5992960E-013  0.5052889E+02  0.7816164E-02  0.1300439E+00
        -11   -1    0    0    0    0  0.00000000000E+00  0.00000000000E+00  0.45593999997E+02  0.45594000000E+02  0.51100000000E-03 0.  1.
         11   -1    0    0    0    0 -0.00000000000E+00 -0.00000000000E+00 -0.45593999997E+02  0.45594000000E+02  0.51100000000E-03 0. -1.
    9900012    2    1    2    0    0  0.18072169200E+02 -0.45064262724E+01 -0.36142103784E+02  0.50528894706E+02  0.30000105948E+02 0.  0.
        -12    1    1    2    0    0 -0.18072169200E+02  0.45064262724E+01  0.36142103784E+02  0.40659105294E+02  0.00000000000E+00 0.  1.
         11    1    3    3    0    0  0.19863011594E-01  0.23471123082E+01 -0.22119859848E+01  0.32252461897E+01  0.51100000000E-03 0.  1.
        -11    1    3    3    0    0  0.95716468094E+01  0.39615253747E+01 -0.31738648012E+02  0.33386402679E+02  0.51100000000E-03 0. -1.
         12    1    3    3    0    0  0.84806593792E+01 -0.10815063955E+02 -0.21914697873E+01  0.13917245837E+02  0.00000000000E+00 0. -1.
</event>
<event>
 7    1  0.5992960E-013  0.5052887E+02  0.7816164E-02  0.1300439E+00
        -11   -1    0    0    0    0  0.00000000000E+00  0.00000000000E+00  0.45593999997E+02  0.45594000000E+02  0.51100000000E-03 0.  1.
         11   -1    0    0    0    0 -0.00000000000E+00 -0.00000000000E+00 -0.45593999997E+02  0.45594000000E+02  0.51100000000E-03 0. -1.
    9900012    2    1    2    0    0 -0.96498775475E+01  0.22752032076E+02 -0.32286060709E+02  0.50528870443E+02  0.30000032198E+02 0.  0.
        -12    1    1    2    0    0  0.96498775475E+01 -0.22752032076E+02  0.32286060709E+02  0.40659129557E+02  0.00000000000E+00 0.  1.
         11    1    3    3    0    0 -0.15503854761E+02  0.15291617080E+02 -0.28536739830E+02  0.35896358949E+02  0.51100000000E-03 0. -1.
        -11    1    3    3    0    0 -0.28117833236E+01  0.45506717895E+00  0.80662751904E-01  0.28495119471E+01  0.51100000000E-03 0.  1.
         12    1    3    3    0    0  0.86657605368E+01  0.70053478167E+01 -0.38299836301E+01  0.11782999547E+02  0.00000000000E+00 0. -1.
</event>
<event>
 7    1  0.5992960E-013  0.5052886E+02  0.7816164E-02  0.1300439E+00
        -11   -1    0    0    0    0  0.00000000000E+00  0.00000000000E+00  0.45593999997E+02  0.45594000000E+02  0.51100000000E-03 0.  1.
         11   -1    0    0    0    0 -0.00000000000E+00 -0.00000000000E+00 -0.45593999997E+02  0.45594000000E+02  0.51100000000E-03 0. -1.
    9900012    2    1    2    0    0  0.12106739126E+02  0.37545200176E+02 -0.98463510409E+01  0.50528858133E+02  0.29999994782E+02 0.  0.
        -12    1    1    2    0    0 -0.12106739126E+02 -0.37545200176E+02  0.98463510409E+01  0.40659141867E+02  0.00000000000E+00 0.  1.
         11    1    3    3    0    0  0.12201288618E+02  0.29417454200E+02 -0.55022220106E+01  0.32319228068E+02  0.51100000000E-03 0. -1.
        -11    1    3    3    0    0  0.75269477514E+01  0.58568953232E+01 -0.37042984994E+01  0.10231324104E+02  0.51100000000E-03 0.  1.
        -12    1    3    3    0    0 -0.76214972433E+01  0.22708506525E+01 -0.63983053097E+00  0.79783059621E+01  0.00000000000E+00 0.  1.
</event>
<event>
 7    1  0.5992960E-013  0.5052885E+02  0.7816164E-02  0.1300439E+00
        -11   -1    0    0    0    0  0.00000000000E+00  0.00000000000E+00  0.45593999997E+02  0.45594000000E+02  0.51100000000E-03 0.  1.
         11   -1    0    0    0    0 -0.00000000000E+00 -0.00000000000E+00 -0.45593999997E+02  0.45594000000E+02  0.51100000000E-03 0. -1.
    9900012    2    1    2    0    0 -0.32190825297E+02 -0.15650814929E+02 -0.19286505292E+02  0.50528849398E+02  0.29999968232E+02 0.  0.
        -12    1    1    2    0    0  0.32190825297E+02  0.15650814929E+02  0.19286505292E+02  0.40659150602E+02  0.00000000000E+00 0.  1.
         11    1    3    3    0    0 -0.26490490203E+02 -0.11288424682E+02 -0.63885379939E+01  0.29495559343E+02  0.51100000000E-03 0. -1.
        -11    1    3    3    0    0 -0.80769087148E+01  0.31777981333E+01 -0.61274668122E+01  0.10624533174E+02  0.51100000000E-03 0.  1.
        -12    1    3    3    0    0  0.23765736209E+01 -0.75401883804E+01 -0.67705004861E+01  0.10408756882E+02  0.00000000000E+00 0.  1.
</event>
<event>
 7    1  0.5992960E-013  0.5052885E+02  0.7816164E-02  0.1300439E+00
        -11   -1    0    0    0    0  0.00000000000E+00  0.00000000000E+00  0.45593999997E+02  0.45594000000E+02  0.51100000000E-03 0.  1.
         11   -1    0    0    0    0 -0.00000000000E+00 -0.00000000000E+00 -0.45593999997E+02  0.45594000000E+02  0.51100000000E-03 0. -1.
    9900012    2    1    2    0    0 -0.14409763259E+02  0.11866199159E+01 -0.38001543230E+02  0.50528848116E+02  0.29999964334E+02 0.  0.
        -12    1    1    2    0    0  0.14409763259E+02 -0.11866199159E+01  0.38001543230E+02  0.40659151884E+02  0.00000000000E+00 0.  1.
         11    1    3    3    0    0 -0.14442901617E+01 -0.90917275176E+00 -0.17513565654E+02  0.17596521001E+02  0.51100000000E-03 0. -1.
        -11    1    3    3    0    0 -0.49205419235E+01  0.10721817545E+02 -0.36020470022E+01  0.12334660399E+02  0.51100000000E-03 0.  1.
         12    1    3    3    0    0 -0.80449311741E+01 -0.86260248775E+01 -0.16885930574E+02  0.20597666716E+02  0.00000000000E+00 0. -1.
</event>
<event>
 7    1  0.5992960E-013  0.5052886E+02  0.7816164E-02  0.1300439E+00
        -11   -1    0    0    0    0  0.00000000000E+00  0.00000000000E+00  0.45593999997E+02  0.45594000000E+02  0.51100000000E-03 0.  1.
         11   -1    0    0    0    0 -0.00000000000E+00 -0.00000000000E+00 -0.45593999997E+02  0.45594000000E+02  0.51100000000E-03 0. -1.
    9900012    2    1    2    0    0 -0.17856247986E+02 -0.11057093202E+02 -0.34814661731E+02  0.50528861130E+02  0.30000003890E+02 0.  0.
        -12    1    1    2    0    0  0.17856247986E+02  0.11057093202E+02  0.34814661731E+02  0.40659138870E+02  0.00000000000E+00 0.  1.
         11    1    3    3    0    0 -0.10700583221E+02 -0.17270530985E+02 -0.25365712230E+02  0.32499124280E+02  0.51100000000E-03 0. -1.
        -11    1    3    3    0    0  0.32604778619E+01  0.74820063600E+00 -0.82851440176E+00  0.34462960486E+01  0.51100000000E-03 0.  1.
        -12    1    3    3    0    0 -0.10416142627E+02  0.54652371468E+01 -0.86204350992E+01  0.14583440801E+02  0.00000000000E+00 0.  1.
</event>
<event>
 7    1  0.5992960E-013  0.5052886E+02  0.7816164E-02  0.1300439E+00
        -11   -1    0    0    0    0  0.00000000000E+00  0.00000000000E+00  0.45593999997E+02  0.45594000000E+02  0.51100000000E-03 0.  1.
         11   -1    0    0    0    0 -0.00000000000E+00 -0.00000000000E+00 -0.45593999997E+02  0.45594000000E+02  0.51100000000E-03 0. -1.
    9900012    2    1    2    0    0  0.20565328809E+02  0.31586527464E+02 -0.15248731241E+02  0.50528864855E+02  0.30000015214E+02 0.  0.
        -12    1    1    2    0    0 -0.20565328809E+02 -0.31586527464E+02  0.15248731241E+02  0.40659135145E+02  0.00000000000E+00 0.  1.
         11    1    3    3    0    0  0.33692909977E+01  0.31326078062E+01 -0.14729587665E+02  0.15431335215E+02  0.51100000000E-03 0. -1.
        -11    1    3    3    0    0 -0.45514660915E+00  0.47370831345E+01 -0.26669231018E+01  0.54552354808E+01  0.51100000000E-03 0.  1.
         12    1    3    3    0    0  0.17651184420E+02  0.23716836523E+02  0.21477795252E+01  0.29642294159E+02  0.00000000000E+00 0. -1.
</event>
<event>
 7    1  0.5992960E-013  0.5052888E+02  0.7816164E-02  0.1300439E+00
        -11   -1    0    0    0    0  0.00000000000E+00  0.00000000000E+00  0.45593999997E+02  0.45594000000E+02  0.51100000000E-03 0.  1.
         11   -1    0    0    0    0 -0.00000000000E+00 -0.00000000000E+00 -0.45593999997E+02  0.45594000000E+02  0.51100000000E-03 0. -1.
    9900012    2    1    2    0    0 -0.34199075622E+02  0.61625406456E+01 -0.21109482222E+02  0.50528881462E+02  0.30000065692E+02 0.  0.
        -12    1    1    2    0    0  0.34199075622E+02 -0.61625406456E+01  0.21109482222E+02  0.40659118538E+02  0.00000000000E+00 0.  1.
         11    1    3    3    0    0 -0.10600081465E+02 -0.26055478841E+01 -0.10288755583E+01  0.10963995258E+02  0.51100000000E-03 0. -1.
        -11    1    3    3    0    0 -0.17280839979E+02 -0.34685474531E+01 -0.34283771485E+01  0.17955835317E+02  0.51100000000E-03 0.  1.
         12    1    3    3    0    0 -0.63181541780E+01  0.12236635983E+02 -0.16652229515E+02  0.21609050887E+02  0.00000000000E+00 0. -1.
</event>
<event>
 7    1  0.5992960E-013  0.5052886E+02  0.7816164E-02  0.1300439E+00
        -11   -1    0    0    0    0  0.00000000000E+00  0.00000000000E+00  0.45593999997E+02  0.45594000000E+02  0.51100000000E-03 0. -1.
         11   -1    0    0    0    0 -0.00000000000E+00 -0.00000000000E+00 -0.45593999997E+02  0.45594000000E+02  0.51100000000E-03 0.  1.
    9900012    2    1    2    0    0  0.40439206388E+02  0.22132508657E+01 -0.35968769676E+01  0.50528863061E+02  0.30000009760E+02 0.  0.
        -12    1    1    2    0    0 -0.40439206388E+02 -0.22132508657E+01  0.35968769676E+01  0.40659136939E+02  0.00000000000E+00 0.  1.
         11    1    3    3    0    0  0.23573265478E+02 -0.90780865886E+00  0.10598053648E+01  0.23614532591E+02  0.51100000000E-03 0. -1.
        -11    1    3    3    0    0  0.74643246681E+01  0.10111250030E+02  0.29969721425E+01  0.12920346830E+02  0.51100000000E-03 0.  1.
        -12    1    3    3    0    0  0.94016162426E+01 -0.69901905058E+01 -0.76536544748E+01  0.13993983639E+02  0.00000000000E+00 0.  1.
</event>
<event>
 7    1  0.5992960E-013  0.5052885E+02  0.7816164E-02  0.1300439E+00
        -11   -1    0    0    0    0  0.00000000000E+00  0.00000000000E+00  0.45593999997E+02  0.45594000000E+02  0.51100000000E-03 0.  1.
         11   -1    0    0    0    0 -0.00000000000E+00 -0.00000000000E+00 -0.45593999997E+02  0.45594000000E+02  0.51100000000E-03 0. -1.
    9900012    2    1    2    0    0  0.24923129475E+01 -0.94797578233E+01 -0.39459965292E+02  0.50528852283E+02  0.29999977000E+02 0.  0.
        -12    1    1    2    0    0 -0.24923129475E+01  0.94797578233E+01  0.39459965292E+02  0.40659147717E+02  0.00000000000E+00 0.  1.
         11    1    3    3    0    0  0.28104194719E+01  0.46376709260E+01 -0.23867444707E+02  0.24475730149E+02  0.51100000000E-03 0. -1.
        -11    1    3    3    0    0 -0.28781710333E+01  0.40754857759E+00 -0.97755491178E+01  0.10198594274E+02  0.51100000000E-03 0.  1.
        -12    1    3    3    0    0  0.25600645089E+01 -0.14524977327E+02 -0.58169714668E+01  0.15854527861E+02  0.00000000000E+00 0.  1.
</event>
<event>
 7    1  0.5992960E-013  0.5052886E+02  0.7816164E-02  0.1300439E+00
        -11   -1    0    0    0    0  0.00000000000E+00  0.00000000000E+00  0.45593999997E+02  0.45594000000E+02  0.51100000000E-03 0.  1.
         11   -1    0    0    0    0 -0.00000000000E+00 -0.00000000000E+00 -0.45593999997E+02  0.45594000000E+02  0.51100000000E-03 0. -1.
    9900012    2    1    2    0    0  0.12364572881E+02  0.30133857372E+02 -0.24335848235E+02  0.50528861643E+02  0.30000005449E+02 0.  0.
        -12    1    1    2    0    0 -0.12364572881E+02 -0.30133857372E+02  0.24335848235E+02  0.40659138357E+02  0.00000000000E+00 0.  1.
         11    1    3    3    0    0  0.67856900811E+01  0.78191326802E+00 -0.80970683500E+01  0.10593370302E+02  0.51100000000E-03 0. -1.
        -11    1    3    3    0    0  0.12610878567E+02  0.20303274842E+02 -0.15426252423E+02  0.28446906538E+02  0.51100000000E-03 0.  1.
        -12    1    3    3    0    0 -0.70319957665E+01  0.90486692620E+01 -0.81252746212E+00  0.11488584802E+02  0.00000000000E+00 0.  1.
</event>
<event>
 7    1  0.5992960E-013  0.5052886E+02  0.7816164E-02  0.1300439E+00
        -11   -1    0    0    0    0  0.00000000000E+00  0.00000000000E+00  0.45593999997E+02  0.45594000000E+02  0.51100000000E-03 0.  1.
         11   -1    0    0    0    0 -0.00000000000E+00 -0.00000000000E+00 -0.45593999997E+02  0.45594000000E+02  0.51100000000E-03 0. -1.
    9900012    2    1    2    0    0  0.28800721962E+02 -0.96954038602E+01  0.27012644318E+02  0.50528863332E+02  0.30000010583E+02 0.  0.
        -12    1    1    2    0    0 -0.28800721962E+02  0.96954038602E+01 -0.27012644318E+02  0.40659136668E+02  0.00000000000E+00 0.  1.
         11    1    3    3    0    0  0.38088879867E+01  0.79349510043E+01  0.94859793457E+01  0.12940435833E+02  0.51100000000E-03 0. -1.
        -11    1    3    3    0    0 -0.11257255622E+01 -0.59514508281E+00  0.28570589638E+01  0.31279772849E+01  0.51100000000E-03 0.  1.
         12    1    3    3    0    0  0.26117559538E+02 -0.17035209782E+02  0.14669606008E+02  0.34460450214E+02  0.00000000000E+00 0. -1.
</event>
<event>
 7    1  0.5992960E-013  0.5052886E+02  0.7816164E-02  0.1300439E+00
        -11   -1    0    0    0    0  0.00000000000E+00  0.00000000000E+00  0.45593999997E+02  0.45594000000E+02  0.51100000000E-03 0.  1.
         11   -1    0    0    0    0 -0.00000000000E+00 -0.00000000000E+00 -0.45593999997E+02  0.45594000000E+02  0.51100000000E-03 0. -1.
    9900012    2    1    2    0    0  0.77706995827E+01  0.31319521565E+02 -0.24735991042E+02  0.50528862578E+02  0.30000008292E+02 0.  0.
        -12    1    1    2    0    0 -0.77706995827E+01 -0.31319521565E+02  0.24735991042E+02  0.40659137422E+02  0.00000000000E+00 0.  1.
         11    1    3    3    0    0 -0.19629895733E+01  0.15693974253E+02 -0.14400244640E+02  0.21389745250E+02  0.51100000000E-03 0. -1.
        -11    1    3    3    0    0 -0.20726371095E+01  0.13919882441E+02 -0.98918418568E+01  0.17201961729E+02  0.51100000000E-03 0.  1.
        -12    1    3    3    0    0  0.11806326265E+02  0.17056648712E+01 -0.44390454578E+00  0.11937155599E+02  0.00000000000E+00 0.  1.
</event>
<event>
 7    1  0.5992960E-013  0.5052886E+02  0.7816164E-02  0.1300439E+00
        -11   -1    0    0    0    0  0.00000000000E+00  0.00000000000E+00  0.45593999997E+02  0.45594000000E+02  0.51100000000E-03 0.  1.
         11   -1    0    0    0    0 -0.00000000000E+00 -0.00000000000E+00 -0.45593999997E+02  0.45594000000E+02  0.51100000000E-03 0. -1.
    9900012    2    1    2    0    0  0.25585911873E+02  0.16396808701E+02 -0.27012429907E+02  0.50528860911E+02  0.30000003226E+02 0.  0.
        -12    1    1    2    0    0 -0.25585911873E+02 -0.16396808701E+02  0.27012429907E+02  0.40659139089E+02  0.00000000000E+00 0.  1.
         11    1    3    3    0    0  0.27447759245E+02  0.82824341999E+01 -0.20862045185E+02  0.35457060417E+02  0.51100000000E-03 0. -1.
        -11    1    3    3    0    0 -0.12540676628E+01 -0.26583128568E+01 -0.91135262983E+00  0.30773164973E+01  0.51100000000E-03 0.  1.
        -12    1    3    3    0    0 -0.60777970904E+00  0.10772687358E+02 -0.52390320923E+01  0.11994483997E+02  0.00000000000E+00 0.  1.
</event>
<event>
 7    1  0.5992960E-013  0.5052886E+02  0.7816164E-02  0.1300439E+00
        -11   -1    0    0    0    0  0.00000000000E+00  0.00000000000E+00  0.45593999997E+02  0.45594000000E+02  0.51100000000E-03 0.  1.
         11   -1    0    0    0    0 -0.00000000000E+00 -0.00000000000E+00 -0.45593999997E+02  0.45594000000E+02  0.51100000000E-03 0. -1.
    9900012    2    1    2    0    0  0.14487367432E+02  0.37829968685E+02  0.34893379468E+01  0.50528858038E+02  0.29999994493E+02 0.  0.
        -12    1    1    2    0    0 -0.14487367432E+02 -0.37829968685E+02 -0.34893379468E+01  0.40659141962E+02  0.00000000000E+00 0.  1.
         11    1    3    3    0    0 -0.31093216045E+00 -0.13220914550E+01 -0.50512709266E+01  0.52306732702E+01  0.51100000000E-03 0. -1.
        -11    1    3    3    0    0  0.89539751052E+01  0.70278945894E+01  0.50768155733E+01  0.12463507900E+02  0.51100000000E-03 0.  1.
         12    1    3    3    0    0  0.58443244868E+01  0.32124165550E+02  0.34637933001E+01  0.32834676868E+02  0.00000000000E+00 0. -1.
</event>
<event>
 7    1  0.5992960E-013  0.5052887E+02  0.7816164E-02  0.1300439E+00
        -11   -1    0    0    0    0  0.00000000000E+00  0.00000000000E+00  0.45593999997E+02  0.45594000000E+02  0.51100000000E-03 0.  1.
         11   -1    0    0    0    0 -0.00000000000E+00 -0.00000000000E+00 -0.45593999997E+02  0.45594000000E+02  0.51100000000E-03 0. -1.
    9900012    2    1    2    0    0 -0.28626313157E+02  0.28721742517E+02  0.29598410745E+01  0.50528868708E+02  0.30000026925E+02 0.  0.
        -12    1    1    2    0    0  0.28626313157E+02 -0.28721742517E+02 -0.29598410745E+01  0.40659131292E+02  0.00000000000E+00 0.  1.
         11    1    3    3    0    0 -0.99299245173E+01  0.36418343653E+01  0.78049086817E+01  0.13144693159E+02  0.51100000000E-03 0. -1.
        -11    1    3    3    0    0 -0.12145150163E+02  0.20430224502E+02  0.53917181990E+01  0.24371486847E+02  0.51100000000E-03 0.  1.
         12    1    3    3    0    0 -0.65512384766E+01  0.46496836497E+01 -0.10236785806E+02  0.13012688702E+02  0.00000000000E+00 0. -1.
</event>
<event>
 7    1  0.5992960E-013  0.5052888E+02  0.7816164E-02  0.1300439E+00
        -11   -1    0    0    0    0  0.00000000000E+00  0.00000000000E+00  0.45593999997E+02  0.45594000000E+02  0.51100000000E-03 0. -1.
         11   -1    0    0    0    0 -0.00000000000E+00 -0.00000000000E+00 -0.45593999997E+02  0.45594000000E+02  0.51100000000E-03 0.  1.
    9900012    2    1    2    0    0  0.35966693034E+01 -0.26507269664E+02 -0.30620131454E+02  0.50528882629E+02  0.30000069239E+02 0.  0.
        -12    1    1    2    0    0 -0.35966693034E+01  0.26507269664E+02  0.30620131454E+02  0.40659117371E+02  0.00000000000E+00 0.  1.
         11    1    3    3    0    0 -0.35562017576E+01 -0.46283197797E+01 -0.29006834540E+00  0.58439759436E+01  0.51100000000E-03 0. -1.
        -11    1    3    3    0    0 -0.16265494011E+01 -0.20025101614E+02 -0.29475223932E+02  0.35671265519E+02  0.51100000000E-03 0.  1.
         12    1    3    3    0    0  0.87794204621E+01 -0.18538482704E+01 -0.85483917657E+00  0.90136411664E+01  0.00000000000E+00 0. -1.
</event>
<event>
 7    1  0.5992960E-013  0.5052886E+02  0.7816164E-02  0.1300439E+00
        -11   -1    0    0    0    0  0.00000000000E+00  0.00000000000E+00  0.45593999997E+02  0.45594000000E+02  0.51100000000E-03 0.  1.
         11   -1    0    0    0    0 -0.00000000000E+00 -0.00000000000E+00 -0.45593999997E+02  0.45594000000E+02  0.51100000000E-03 0. -1.
    9900012    2    1    2    0    0  0.11627946148E+01  0.27692526016E+02 -0.29747906512E+02  0.50528855515E+02  0.29999986822E+02 0.  0.
        -12    1    1    2    0    0 -0.11627946148E+01 -0.27692526016E+02  0.29747906512E+02  0.40659144485E+02  0.00000000000E+00 0.  1.
         11    1    3    3    0    0  0.18601161726E+01  0.15928471782E+02 -0.29909186781E+02  0.33937231761E+02  0.51100000000E-03 0. -1.
        -11    1    3    3    0    0 -0.41994590575E+01  0.22000439347E+00  0.14757305239E+01  0.44566398945E+01  0.51100000000E-03 0.  1.
        -12    1    3    3    0    0  0.35021374997E+01  0.11544049840E+02 -0.13144502552E+01  0.12134983859E+02  0.00000000000E+00 0.  1.
</event>
<event>
 7    1  0.5992960E-013  0.5052886E+02  0.7816164E-02  0.1300439E+00
        -11   -1    0    0    0    0  0.00000000000E+00  0.00000000000E+00  0.45593999997E+02  0.45594000000E+02  0.51100000000E-03 0.  1.
         11   -1    0    0    0    0 -0.00000000000E+00 -0.00000000000E+00 -0.45593999997E+02  0.45594000000E+02  0.51100000000E-03 0. -1.
    9900012    2    1    2    0    0  0.30391553846E+02  0.47492651447E+01 -0.26588782723E+02  0.50528862881E+02  0.30000009213E+02 0.  0.
        -12    1    1    2    0    0 -0.30391553846E+02 -0.47492651447E+01  0.26588782723E+02  0.40659137119E+02  0.00000000000E+00 0.  1.
         11    1    3    3    0    0  0.41298704119E+01 -0.17465050831E+01 -0.47552841867E+01  0.65359649312E+01  0.51100000000E-03 0.  1.
        -11    1    3    3    0    0  0.10021734747E+02  0.16283255333E+02 -0.92850921836E+01  0.21255411281E+02  0.51100000000E-03 0. -1.
         12    1    3    3    0    0  0.16239948687E+02 -0.97874851057E+01 -0.12548406352E+02  0.22737486669E+02  0.00000000000E+00 0. -1.
</event>
<event>
 7    1  0.5992960E-013  0.5052886E+02  0.7816164E-02  0.1300439E+00
        -11   -1    0    0    0    0  0.00000000000E+00  0.00000000000E+00  0.45593999997E+02  0.45594000000E+02  0.51100000000E-03 0.  1.
         11   -1    0    0    0    0 -0.00000000000E+00 -0.00000000000E+00 -0.45593999997E+02  0.45594000000E+02  0.51100000000E-03 0. -1.
    9900012    2    1    2    0    0 -0.49159836532E+01  0.12148481443E+01 -0.40342565112E+02  0.50528864359E+02  0.30000013705E+02 0.  0.
        -12    1    1    2    0    0  0.49159836532E+01 -0.12148481443E+01  0.40342565112E+02  0.40659135641E+02  0.00000000000E+00 0.  1.
         11    1    3    3    0    0  0.55654132136E+01  0.16490779908E+01 -0.88861566044E+00  0.58722159796E+01  0.51100000000E-03 0. -1.
        -11    1    3    3    0    0  0.40104614920E+01  0.35101339294E+01 -0.62496999067E+01  0.82136222683E+01  0.51100000000E-03 0.  1.
         12    1    3    3    0    0 -0.14491858359E+02 -0.39443637759E+01 -0.33204249545E+02  0.36443026111E+02  0.00000000000E+00 0. -1.
</event>
<event>
 7    1  0.5992960E-013  0.5052887E+02  0.7816164E-02  0.1300439E+00
        -11   -1    0    0    0    0  0.00000000000E+00  0.00000000000E+00  0.45593999997E+02  0.45594000000E+02  0.51100000000E-03 0.  1.
         11   -1    0    0    0    0 -0.00000000000E+00 -0.00000000000E+00 -0.45593999997E+02  0.45594000000E+02  0.51100000000E-03 0. -1.
    9900012    2    1    2    0    0 -0.30780551982E+02  0.25007101064E+02 -0.89647932304E+01  0.50528868164E+02  0.30000025272E+02 0.  0.
        -12    1    1    2    0    0  0.30780551982E+02 -0.25007101064E+02  0.89647932304E+01  0.40659131836E+02  0.00000000000E+00 0.  1.
         11    1    3    3    0    0 -0.11158240342E+02  0.13612412409E+02 -0.14689818805E+02  0.22925856056E+02  0.51100000000E-03 0. -1.
        -11    1    3    3    0    0  0.20291677455E+01  0.23001879797E+01  0.23792507789E+01  0.38819094543E+01  0.51100000000E-03 0.  1.
        -12    1    3    3    0    0 -0.21651479386E+02  0.90945006748E+01  0.33457747954E+01  0.23721102654E+02  0.00000000000E+00 0.  1.
</event>
<event>
 7    1  0.5992960E-013  0.5052887E+02  0.7816164E-02  0.1300439E+00
        -11   -1    0    0    0    0  0.00000000000E+00  0.00000000000E+00  0.45593999997E+02  0.45594000000E+02  0.51100000000E-03 0.  1.
         11   -1    0    0    0    0 -0.00000000000E+00 -0.00000000000E+00 -0.45593999997E+02  0.45594000000E+02  0.51100000000E-03 0. -1.
    9900012    2    1    2    0    0 -0.33715026810E+02 -0.16333068197E+02 -0.15801654948E+02  0.50528874965E+02  0.30000045943E+02 0.  0.
        -12    1    1    2    0    0  0.33715026810E+02  0.16333068197E+02  0.15801654948E+02  0.40659125035E+02  0.00000000000E+00 0.  1.
         11    1    3    3    0    0 -0.16639136060E+02  0.32190863039E+01 -0.53224057078E+01  0.17763765598E+02  0.51100000000E-03 0. -1.
        -11    1    3    3    0    0 -0.25764440595E+01 -0.48459996041E+01  0.46265365616E+01  0.71782042999E+01  0.51100000000E-03 0.  1.
         12    1    3    3    0    0 -0.14499446691E+02 -0.14706154897E+02 -0.15105785802E+02  0.25586905067E+02  0.00000000000E+00 0. -1.
</event>
<event>
 7    1  0.5992960E-013  0.5052886E+02  0.7816164E-02  0.1300439E+00
        -11   -1    0    0    0    0  0.00000000000E+00  0.00000000000E+00  0.45593999997E+02  0.45594000000E+02  0.51100000000E-03 0.  1.
         11   -1    0    0    0    0 -0.00000000000E+00 -0.00000000000E+00 -0.45593999997E+02  0.45594000000E+02  0.51100000000E-03 0. -1.
    9900012    2    1    2    0    0 -0.94820109704E+01 -0.33927504838E+02 -0.20302256097E+02  0.50528859340E+02  0.29999998450E+02 0.  0.
        -12    1    1    2    0    0  0.94820109704E+01  0.33927504838E+02  0.20302256097E+02  0.40659140660E+02  0.00000000000E+00 0.  1.
         11    1    3    3    0    0 -0.67537284184E+01 -0.16527823726E+02 -0.20112945909E+02  0.26894467797E+02  0.51100000000E-03 0. -1.
        -11    1    3    3    0    0 -0.22827714498E+01 -0.13917991551E+02 -0.71693052306E+01  0.15821519271E+02  0.51100000000E-03 0.  1.
        -12    1    3    3    0    0 -0.44551110228E+00 -0.34816895609E+01  0.69799950428E+01  0.78128722719E+01  0.00000000000E+00 0.  1.
</event>
<event>
 7    1  0.5992960E-013  0.5052886E+02  0.7816164E-02  0.1300439E+00
        -11   -1    0    0    0    0  0.00000000000E+00  0.00000000000E+00  0.45593999997E+02  0.45594000000E+02  0.51100000000E-03 0. -1.
         11   -1    0    0    0    0 -0.00000000000E+00 -0.00000000000E+00 -0.45593999997E+02  0.45594000000E+02  0.51100000000E-03 0.  1.
    9900012    2    1    2    0    0 -0.34173696717E+02  0.20437811570E+02  0.82231361934E+01  0.50528860094E+02  0.30000000741E+02 0.  0.
        -12    1    1    2    0    0  0.34173696717E+02 -0.20437811570E+02 -0.82231361934E+01  0.40659139906E+02  0.00000000000E+00 0.  1.
         11    1    3    3    0    0 -0.31491081386E+01  0.29645444382E+01  0.11989528905E+02  0.12745752603E+02  0.51100000000E-03 0. -1.
        -11    1    3    3    0    0 -0.11382383188E+02  0.52301196116E+00  0.86935654260E+00  0.11427509335E+02  0.51100000000E-03 0.  1.
        -12    1    3    3    0    0 -0.19642205390E+02  0.16950255171E+02 -0.46357492545E+01  0.26355598155E+02  0.00000000000E+00 0.  1.
</event>
<event>
 7    1  0.5992960E-013  0.5052886E+02  0.7816164E-02  0.1300439E+00
        -11   -1    0    0    0    0  0.00000000000E+00  0.00000000000E+00  0.45593999997E+02  0.45594000000E+02  0.51100000000E-03 0.  1.
         11   -1    0    0    0    0 -0.00000000000E+00 -0.00000000000E+00 -0.45593999997E+02  0.45594000000E+02  0.51100000000E-03 0. -1.
    9900012    2    1    2    0    0  0.28523359443E+02 -0.36164170284E+01 -0.28748998568E+02  0.50528862961E+02  0.30000009458E+02 0.  0.
        -12    1    1    2    0    0 -0.28523359443E+02  0.36164170284E+01  0.28748998568E+02  0.40659137039E+02  0.00000000000E+00 0.  1.
         11    1    3    3    0    0  0.12902694055E+01  0.41610265350E+01 -0.13991737767E+02  0.14654271150E+02  0.51100000000E-03 0. -1.
        -11    1    3    3    0    0 -0.20787473079E-01  0.32191064706E+01 -0.22909275807E+01  0.39511299686E+01  0.51100000000E-03 0.  1.
        -12    1    3    3    0    0  0.27253877511E+02 -0.10996550034E+02 -0.12466333221E+02  0.31923461842E+02  0.00000000000E+00 0.  1.
</event>
<event>
 7    1  0.5992960E-013  0.5052886E+02  0.7816164E-02  0.1300439E+00
        -11   -1    0    0    0    0  0.00000000000E+00  0.00000000000E+00  0.45593999997E+02  0.45594000000E+02  0.51100000000E-03 0. -1.
         11   -1    0    0    0    0 -0.00000000000E+00 -0.00000000000E+00 -0.45593999997E+02  0.45594000000E+02  0.51100000000E-03 0.  1.
    9900012    2    1    2    0    0  0.14719234346E+02  0.10958205704E+02  0.36282606433E+02  0.50528860049E+02  0.30000000604E+02 0.  0.
        -12    1    1    2    0    0 -0.14719234346E+02 -0.10958205704E+02 -0.36282606433E+02  0.40659139951E+02  0.00000000000E+00 0.  1.
         11    1    3    3    0    0  0.43632576680E+01  0.64689643120E+01 -0.21471834699E+01  0.80929545817E+01  0.51100000000E-03 0. -1.
        -11    1    3    3    0    0  0.49072576523E+01  0.11835698253E+01  0.19626807900E+01  0.54160992736E+01  0.51100000000E-03 0.  1.
         12    1    3    3    0    0  0.54487190253E+01  0.33056715672E+01  0.36467109113E+02  0.37019806193E+02  0.00000000000E+00 0. -1.
</event>
<event>
 7    1  0.5992960E-013  0.5052886E+02  0.7816164E-02  0.1300439E+00
        -11   -1    0    0    0    0  0.00000000000E+00  0.00000000000E+00  0.45593999997E+02  0.45594000000E+02  0.51100000000E-03 0.  1.
         11   -1    0    0    0    0 -0.00000000000E+00 -0.00000000000E+00 -0.45593999997E+02  0.45594000000E+02  0.51100000000E-03 0. -1.
    9900012    2    1    2    0    0  0.32365165278E+02 -0.35969675216E+01 -0.24345911466E+02  0.50528861987E+02  0.30000006497E+02 0.  0.
        -12    1    1    2    0    0 -0.32365165278E+02  0.35969675216E+01  0.24345911466E+02  0.40659138013E+02  0.00000000000E+00 0.  1.
         11    1    3    3    0    0  0.30849834951E+01 -0.11770451772E+01  0.30720371454E+01  0.45099856982E+01  0.51100000000E-03 0. -1.
        -11    1    3    3    0    0 -0.32222584698E+00 -0.55608763326E+01 -0.33301680140E-01  0.55703037929E+01  0.51100000000E-03 0.  1.
         12    1    3    3    0    0  0.29602407630E+02  0.31409539882E+01 -0.27384646931E+02  0.40448572496E+02  0.00000000000E+00 0. -1.
</event>
<event>
 7    1  0.5992960E-013  0.5052886E+02  0.7816164E-02  0.1300439E+00
        -11   -1    0    0    0    0  0.00000000000E+00  0.00000000000E+00  0.45593999997E+02  0.45594000000E+02  0.51100000000E-03 0.  1.
         11   -1    0    0    0    0 -0.00000000000E+00 -0.00000000000E+00 -0.45593999997E+02  0.45594000000E+02  0.51100000000E-03 0. -1.
    9900012    2    1    2    0    0  0.16538678857E+02  0.26274003268E+02 -0.26254795497E+02  0.50528862864E+02  0.30000009161E+02 0.  0.
        -12    1    1    2    0    0 -0.16538678857E+02 -0.26274003268E+02  0.26254795497E+02  0.40659137136E+02  0.00000000000E+00 0.  1.
         11    1    3    3    0    0  0.34295934446E+01  0.17561911544E+02 -0.17802959546E+02  0.25241398875E+02  0.51100000000E-03 0. -1.
        -11    1    3    3    0    0  0.72885266013E+00 -0.16617934760E+01 -0.89457106975E+01  0.91278981097E+01  0.51100000000E-03 0.  1.
        -12    1    3    3    0    0  0.12380232753E+02  0.10373885200E+02  0.49387474716E+00  0.16159565879E+02  0.00000000000E+00 0.  1.
</event>
<event>
 7    1  0.5992960E-013  0.5052887E+02  0.7816164E-02  0.1300439E+00
        -11   -1    0    0    0    0  0.00000000000E+00  0.00000000000E+00  0.45593999997E+02  0.45594000000E+02  0.51100000000E-03 0.  1.
         11   -1    0    0    0    0 -0.00000000000E+00 -0.00000000000E+00 -0.45593999997E+02  0.45594000000E+02  0.51100000000E-03 0. -1.
    9900012    2    1    2    0    0  0.30024162835E+02  0.20156251647E+02 -0.18586010225E+02  0.50528872975E+02  0.30000039894E+02 0.  0.
        -12    1    1    2    0    0 -0.30024162835E+02 -0.20156251647E+02  0.18586010225E+02  0.40659127025E+02  0.00000000000E+00 0.  1.
         11    1    3    3    0    0  0.18311395410E+02  0.17428220478E+02 -0.11987011964E+02  0.27977464628E+02  0.51100000000E-03 0. -1.
        -11    1    3    3    0    0  0.14772662310E+02  0.39381618056E+00 -0.96419148353E+01  0.17645202318E+02  0.51100000000E-03 0.  1.
        -12    1    3    3    0    0 -0.30598948855E+01  0.23342149880E+01  0.30429165739E+01  0.49062060287E+01  0.00000000000E+00 0.  1.
</event>
<event>
 7    1  0.5992960E-013  0.5052885E+02  0.7816164E-02  0.1300439E+00
        -11   -1    0    0    0    0  0.00000000000E+00  0.00000000000E+00  0.45593999997E+02  0.45594000000E+02  0.51100000000E-03 0.  1.
         11   -1    0    0    0    0 -0.00000000000E+00 -0.00000000000E+00 -0.45593999997E+02  0.45594000000E+02  0.51100000000E-03 0. -1.
    9900012    2    1    2    0    0  0.24338974293E+02  0.72606445747E+01 -0.31750015732E+02  0.50528854310E+02  0.29999983159E+02 0.  0.
        -12    1    1    2    0    0 -0.24338974293E+02 -0.72606445747E+01  0.31750015732E+02  0.40659145690E+02  0.00000000000E+00 0.  1.
         11    1    3    3    0    0  0.10476594387E+02  0.82372228579E+01 -0.98472833574E+01  0.16570451416E+02  0.51100000000E-03 0. -1.
        -11    1    3    3    0    0  0.10082784326E+02  0.89904332801E+01 -0.59247305900E+01  0.14751029224E+02  0.51100000000E-03 0.  1.
         12    1    3    3    0    0  0.37795955804E+01 -0.99670115633E+01 -0.15978001785E+02  0.19207373670E+02  0.00000000000E+00 0. -1.
</event>
<event>
 7    1  0.5992960E-013  0.5052884E+02  0.7816164E-02  0.1300439E+00
        -11   -1    0    0    0    0  0.00000000000E+00  0.00000000000E+00  0.45593999997E+02  0.45594000000E+02  0.51100000000E-03 0.  1.
         11   -1    0    0    0    0 -0.00000000000E+00 -0.00000000000E+00 -0.45593999997E+02  0.45594000000E+02  0.51100000000E-03 0. -1.
    9900012    2    1    2    0    0  0.53710814530E+01  0.32426653144E+02 -0.23933884763E+02  0.50528841254E+02  0.29999943475E+02 0.  0.
        -12    1    1    2    0    0 -0.53710814530E+01 -0.32426653144E+02  0.23933884763E+02  0.40659158746E+02  0.00000000000E+00 0.  1.
         11    1    3    3    0    0  0.27122743394E+00  0.97598948935E+01  0.34136401551E+00  0.97696285654E+01  0.51100000000E-03 0. -1.
        -11    1    3    3    0    0  0.16764994843E+01  0.48648744813E+01  0.44427471868E+01  0.67982098428E+01  0.51100000000E-03 0.  1.
         12    1    3    3    0    0  0.34233545347E+01  0.17801883769E+02 -0.28717995965E+02  0.33961002845E+02  0.00000000000E+00 0. -1.
</event>
<event>
 7    1  0.5992960E-013  0.5052885E+02  0.7816164E-02  0.1300439E+00
        -11   -1    0    0    0    0  0.00000000000E+00  0.00000000000E+00  0.45593999997E+02  0.45594000000E+02  0.51100000000E-03 0.  1.
         11   -1    0    0    0    0 -0.00000000000E+00 -0.00000000000E+00 -0.45593999997E+02  0.45594000000E+02  0.51100000000E-03 0. -1.
    9900012    2    1    2    0    0  0.23565638050E+02  0.35014939839E+01 -0.32947933501E+02  0.50528854918E+02  0.29999985008E+02 0.  0.
        -12    1    1    2    0    0 -0.23565638050E+02 -0.35014939839E+01  0.32947933501E+02  0.40659145082E+02  0.00000000000E+00 0.  1.
         11    1    3    3    0    0  0.28311465092E+01 -0.37675821900E+01  0.42604957541E+01  0.63531008529E+01  0.51100000000E-03 0.  1.
        -11    1    3    3    0    0  0.11726050521E+02  0.17112910745E+00 -0.13808500671E+02  0.18116407950E+02  0.51100000000E-03 0. -1.
        -12    1    3    3    0    0  0.90084410198E+01  0.70979470664E+01 -0.23399928584E+02  0.26059346115E+02  0.00000000000E+00 0.  1.
</event>
<event>
 7    1  0.5992960E-013  0.5052887E+02  0.7816164E-02  0.1300439E+00
        -11   -1    0    0    0    0  0.00000000000E+00  0.00000000000E+00  0.45593999997E+02  0.45594000000E+02  0.51100000000E-03 0.  1.
         11   -1    0    0    0    0 -0.00000000000E+00 -0.00000000000E+00 -0.45593999997E+02  0.45594000000E+02  0.51100000000E-03 0. -1.
    9900012    2    1    2    0    0 -0.46336311516E+01  0.40393373985E+02 -0.26444906143E+00  0.50528866551E+02  0.30000020369E+02 0.  0.
        -12    1    1    2    0    0  0.46336311516E+01 -0.40393373985E+02  0.26444906143E+00  0.40659133449E+02  0.00000000000E+00 0.  1.
         11    1    3    3    0    0 -0.24086919948E+01  0.13471329552E+02 -0.10603300862E+02  0.17312091337E+02  0.51100000000E-03 0. -1.
        -11    1    3    3    0    0 -0.25400373779E+01 -0.54887538193E+00 -0.18210793817E+01  0.31732293396E+01  0.51100000000E-03 0.  1.
        -12    1    3    3    0    0  0.31509822108E+00  0.27470919815E+02  0.12159931183E+02  0.30043545875E+02  0.00000000000E+00 0.  1.
</event>
<event>
 7    1  0.5992960E-013  0.5052886E+02  0.7816164E-02  0.1300439E+00
        -11   -1    0    0    0    0  0.00000000000E+00  0.00000000000E+00  0.45593999997E+02  0.45594000000E+02  0.51100000000E-03 0. -1.
         11   -1    0    0    0    0 -0.00000000000E+00 -0.00000000000E+00 -0.45593999997E+02  0.45594000000E+02  0.51100000000E-03 0.  1.
    9900012    2    1    2    0    0 -0.29137123737E+02  0.28161928109E+02  0.33315327260E+01  0.50528864683E+02  0.30000014690E+02 0.  0.
        -12    1    1    2    0    0  0.29137123737E+02 -0.28161928109E+02 -0.33315327260E+01  0.40659135317E+02  0.00000000000E+00 0.  1.
         11    1    3    3    0    0 -0.24027229390E+02  0.18169689288E+02  0.88380123190E+00  0.30136795880E+02  0.51100000000E-03 0. -1.
        -11    1    3    3    0    0 -0.10292179930E+02  0.47199861949E+01 -0.23697521730E+01  0.11568187542E+02  0.51100000000E-03 0.  1.
         12    1    3    3    0    0  0.51822855840E+01  0.52722526255E+01  0.48174836671E+01  0.88238812607E+01  0.00000000000E+00 0. -1.
</event>
<event>
 7    1  0.5992960E-013  0.5052886E+02  0.7816164E-02  0.1300439E+00
        -11   -1    0    0    0    0  0.00000000000E+00  0.00000000000E+00  0.45593999997E+02  0.45594000000E+02  0.51100000000E-03 0.  1.
         11   -1    0    0    0    0 -0.00000000000E+00 -0.00000000000E+00 -0.45593999997E+02  0.45594000000E+02  0.51100000000E-03 0. -1.
    9900012    2    1    2    0    0  0.14903672178E+02  0.12295494945E+02 -0.35775223654E+02  0.50528864891E+02  0.30000015322E+02 0.  0.
        -12    1    1    2    0    0 -0.14903672178E+02 -0.12295494945E+02  0.35775223654E+02  0.40659135109E+02  0.00000000000E+00 0.  1.
         11    1    3    3    0    0  0.17877309625E+02  0.81653127387E+01 -0.18445834509E+02  0.26954022752E+02  0.51100000000E-03 0. -1.
        -11    1    3    3    0    0  0.53543425792E+01  0.13816528676E+01 -0.19364969920E+01  0.58590075920E+01  0.51100000000E-03 0.  1.
        -12    1    3    3    0    0 -0.83279800256E+01  0.27485293382E+01 -0.15392892153E+02  0.17715834546E+02  0.00000000000E+00 0.  1.
</event>
<event>
 7    1  0.5992960E-013  0.5052887E+02  0.7816164E-02  0.1300439E+00
        -11   -1    0    0    0    0  0.00000000000E+00  0.00000000000E+00  0.45593999997E+02  0.45594000000E+02  0.51100000000E-03 0.  1.
         11   -1    0    0    0    0 -0.00000000000E+00 -0.00000000000E+00 -0.45593999997E+02  0.45594000000E+02  0.51100000000E-03 0. -1.
    9900012    2    1    2    0    0  0.27270384789E+02 -0.26522744096E+02 -0.14353928552E+02  0.50528866883E+02  0.30000021379E+02 0.  0.
        -12    1    1    2    0    0 -0.27270384789E+02  0.26522744096E+02  0.14353928552E+02  0.40659133117E+02  0.00000000000E+00 0.  1.
         11    1    3    3    0    0 -0.10258746090E+01 -0.46975120634E+01 -0.18038311026E+01  0.51354498544E+01  0.51100000000E-03 0. -1.
        -11    1    3    3    0    0  0.87434998096E+01 -0.22280344468E+02 -0.51509818086E+01  0.24482547915E+02  0.51100000000E-03 0.  1.
         12    1    3    3    0    0  0.19552759589E+02  0.45511243577E+00 -0.73991156405E+01  0.20910869115E+02  0.00000000000E+00 0. -1.
</event>
<event>
 7    1  0.5992960E-013  0.5052886E+02  0.7816164E-02  0.1300439E+00
        -11   -1    0    0    0    0  0.00000000000E+00  0.00000000000E+00  0.45593999997E+02  0.45594000000E+02  0.51100000000E-03 0.  1.
         11   -1    0    0    0    0 -0.00000000000E+00 -0.00000000000E+00 -0.45593999997E+02  0.45594000000E+02  0.51100000000E-03 0. -1.
    9900012    2    1    2    0    0 -0.28184259752E+02  0.27072730816E+02 -0.11219649487E+02  0.50528858516E+02  0.29999995946E+02 0.  0.
        -12    1    1    2    0    0  0.28184259752E+02 -0.27072730816E+02  0.11219649487E+02  0.40659141484E+02  0.00000000000E+00 0.  1.
         11    1    3    3    0    0  0.20063836395E+01  0.19523397827E+01 -0.41793193383E+01  0.50302998249E+01  0.51100000000E-03 0. -1.
        -11    1    3    3    0    0  0.92055435096E+00 -0.22285696975E+01  0.19619225346E+01  0.31085500643E+01  0.51100000000E-03 0.  1.
        -12    1    3    3    0    0 -0.31111197743E+02  0.27348960731E+02 -0.90022526830E+01  0.42390008627E+02  0.00000000000E+00 0.  1.
</event>
<event>
 7    1  0.5992960E-013  0.5052889E+02  0.7816164E-02  0.1300439E+00
        -11   -1    0    0    0    0  0.00000000000E+00  0.00000000000E+00  0.45593999997E+02  0.45594000000E+02  0.51100000000E-03 0.  1.
         11   -1    0    0    0    0 -0.00000000000E+00 -0.00000000000E+00 -0.45593999997E+02  0.45594000000E+02  0.51100000000E-03 0. -1.
    9900012    2    1    2    0    0  0.39201799129E+02  0.93246172185E+01 -0.54253145535E+01  0.50528885656E+02  0.30000078441E+02 0.  0.
        -12    1    1    2    0    0 -0.39201799129E+02 -0.93246172185E+01  0.54253145535E+01  0.40659114344E+02  0.00000000000E+00 0.  1.
         11    1    3    3    0    0  0.10737144864E+01 -0.48483752816E+01 -0.32949532632E+01  0.59595572770E+01  0.51100000000E-03 0. -1.
        -11    1    3    3    0    0  0.37253379876E+01  0.34403082230E+01 -0.65256504825E+01  0.82642590879E+01  0.51100000000E-03 0.  1.
         12    1    3    3    0    0  0.34402746655E+02  0.10732684277E+02  0.43952891922E+01  0.36305069292E+02  0.00000000000E+00 0. -1.
</event>
<event>
 7    1  0.5992960E-013  0.5052885E+02  0.7816164E-02  0.1300439E+00
        -11   -1    0    0    0    0  0.00000000000E+00  0.00000000000E+00  0.45593999997E+02  0.45594000000E+02  0.51100000000E-03 0.  1.
         11   -1    0    0    0    0 -0.00000000000E+00 -0.00000000000E+00 -0.45593999997E+02  0.45594000000E+02  0.51100000000E-03 0. -1.
    9900012    2    1    2    0    0  0.83304492905E+01  0.34029516334E+02 -0.20633998493E+02  0.50528852676E+02  0.29999978195E+02 0.  0.
        -12    1    1    2    0    0 -0.83304492905E+01 -0.34029516334E+02  0.20633998493E+02  0.40659147324E+02  0.00000000000E+00 0.  1.
         11    1    3    3    0    0  0.85436694415E+01  0.11958748560E+02 -0.37652629077E+00  0.14701963371E+02  0.51100000000E-03 0. -1.
        -11    1    3    3    0    0  0.95322775303E+01  0.86304105238E+01 -0.10231153801E+02  0.16432431624E+02  0.51100000000E-03 0.  1.
        -12    1    3    3    0    0 -0.97454976813E+01  0.13440357250E+02 -0.10026318401E+02  0.19394457681E+02  0.00000000000E+00 0.  1.
</event>
<event>
 7    1  0.5992960E-013  0.5052886E+02  0.7816164E-02  0.1300439E+00
        -11   -1    0    0    0    0  0.00000000000E+00  0.00000000000E+00  0.45593999997E+02  0.45594000000E+02  0.51100000000E-03 0.  1.
         11   -1    0    0    0    0 -0.00000000000E+00 -0.00000000000E+00 -0.45593999997E+02  0.45594000000E+02  0.51100000000E-03 0. -1.
    9900012    2    1    2    0    0  0.31340698324E+02 -0.11033122666E+02 -0.23434941118E+02  0.50528860408E+02  0.30000001695E+02 0.  0.
        -12    1    1    2    0    0 -0.31340698324E+02  0.11033122666E+02  0.23434941118E+02  0.40659139592E+02  0.00000000000E+00 0.  1.
         11    1    3    3    0    0  0.87625727819E+01 -0.92598593465E+01 -0.20268790122E+01  0.12908753451E+02  0.51100000000E-03 0. -1.
        -11    1    3    3    0    0  0.14144245206E+01 -0.85501973207E+01 -0.50965072541E+01  0.10053897622E+02  0.51100000000E-03 0.  1.
        -12    1    3    3    0    0  0.21163701022E+02  0.67769340012E+01 -0.16311554851E+02  0.27566209334E+02  0.00000000000E+00 0.  1.
</event>
<event>
 7    1  0.5992960E-013  0.5052886E+02  0.7816164E-02  0.1300439E+00
        -11   -1    0    0    0    0  0.00000000000E+00  0.00000000000E+00  0.45593999997E+02  0.45594000000E+02  0.51100000000E-03 0. -1.
         11   -1    0    0    0    0 -0.00000000000E+00 -0.00000000000E+00 -0.45593999997E+02  0.45594000000E+02  0.51100000000E-03 0.  1.
    9900012    2    1    2    0    0 -0.34923527601E+02 -0.49130487089E+01  0.20233005928E+02  0.50528863799E+02  0.30000012004E+02 0.  0.
        -12    1    1    2    0    0  0.34923527601E+02  0.49130487089E+01 -0.20233005928E+02  0.40659136201E+02  0.00000000000E+00 0.  1.
         11    1    3    3    0    0  0.12531826078E+01 -0.23108434563E+01  0.58625352065E+00  0.26933543361E+01  0.51100000000E-03 0.  1.
        -11    1    3    3    0    0 -0.45026569692E+01  0.84312596819E+01  0.75485602237E+01  0.12179524675E+02  0.51100000000E-03 0. -1.
         12    1    3    3    0    0 -0.31674053239E+02 -0.11033464935E+02  0.12098192184E+02  0.35655984788E+02  0.00000000000E+00 0. -1.
</event>
<event>
 7    1  0.5992960E-013  0.5052886E+02  0.7816164E-02  0.1300439E+00
        -11   -1    0    0    0    0  0.00000000000E+00  0.00000000000E+00  0.45593999997E+02  0.45594000000E+02  0.51100000000E-03 0. -1.
         11   -1    0    0    0    0 -0.00000000000E+00 -0.00000000000E+00 -0.45593999997E+02  0.45594000000E+02  0.51100000000E-03 0.  1.
    9900012    2    1    2    0    0 -0.39710301441E+02  0.33189464804E+01  0.80772686676E+01  0.50528859387E+02  0.29999998592E+02 0.  0.
        -12    1    1    2    0    0  0.39710301441E+02 -0.33189464804E+01 -0.80772686676E+01  0.40659140613E+02  0.00000000000E+00 0.  1.
         11    1    3    3    0    0  0.11534612838E+01 -0.26422794650E+01 -0.28835935515E+01  0.40776495357E+01  0.51100000000E-03 0. -1.
        -11    1    3    3    0    0 -0.70507051134E+01  0.48918923423E+01  0.91917417323E+01  0.12575021655E+02  0.51100000000E-03 0.  1.
        -12    1    3    3    0    0 -0.33813057612E+02  0.10693336031E+01  0.17691204868E+01  0.33876188196E+02  0.00000000000E+00 0.  1.
</event>
<event>
 7    1  0.5992960E-013  0.5052886E+02  0.7816164E-02  0.1300439E+00
        -11   -1    0    0    0    0  0.00000000000E+00  0.00000000000E+00  0.45593999997E+02  0.45594000000E+02  0.51100000000E-03 0. -1.
         11   -1    0    0    0    0 -0.00000000000E+00 -0.00000000000E+00 -0.45593999997E+02  0.45594000000E+02  0.51100000000E-03 0.  1.
    9900012    2    1    2    0    0  0.14031625336E+02  0.12830731628E+02  0.35939557906E+02  0.50528855812E+02  0.29999987725E+02 0.  0.
        -12    1    1    2    0    0 -0.14031625336E+02 -0.12830731628E+02 -0.35939557906E+02  0.40659144188E+02  0.00000000000E+00 0.  1.
         11    1    3    3    0    0  0.12578481928E+02  0.70251970993E+01  0.28104362731E+02  0.31582064636E+02  0.51100000000E-03 0. -1.
        -11    1    3    3    0    0  0.20415115886E+01 -0.90273781600E+00  0.11199042595E+02  0.11419337128E+02  0.51100000000E-03 0.  1.
        -12    1    3    3    0    0 -0.58836818050E+00  0.67082723452E+01 -0.33638474206E+01  0.75274540478E+01  0.00000000000E+00 0.  1.
</event>
<event>
 7    1  0.5992960E-013  0.5052886E+02  0.7816164E-02  0.1300439E+00
        -11   -1    0    0    0    0  0.00000000000E+00  0.00000000000E+00  0.45593999997E+02  0.45594000000E+02  0.51100000000E-03 0.  1.
         11   -1    0    0    0    0 -0.00000000000E+00 -0.00000000000E+00 -0.45593999997E+02  0.45594000000E+02  0.51100000000E-03 0. -1.
    9900012    2    1    2    0    0  0.26056609100E+02  0.50471634618E+01 -0.30801699762E+02  0.50528862711E+02  0.30000008697E+02 0.  0.
        -12    1    1    2    0    0 -0.26056609100E+02 -0.50471634618E+01  0.30801699762E+02  0.40659137289E+02  0.00000000000E+00 0.  1.
         11    1    3    3    0    0  0.12098862707E+01  0.30406249154E+01 -0.75751043405E+01  0.82517531891E+01  0.51100000000E-03 0. -1.
        -11    1    3    3    0    0 -0.11089812766E+01  0.70992783670E+01 -0.10996444511E+02  0.13135881583E+02  0.51100000000E-03 0.  1.
        -12    1    3    3    0    0  0.25955704106E+02 -0.50927398207E+01 -0.12230150911E+02  0.29141227940E+02  0.00000000000E+00 0.  1.
</event>
<event>
 7    1  0.5992960E-013  0.5052887E+02  0.7816164E-02  0.1300439E+00
        -11   -1    0    0    0    0  0.00000000000E+00  0.00000000000E+00  0.45593999997E+02  0.45594000000E+02  0.51100000000E-03 0. -1.
         11   -1    0    0    0    0 -0.00000000000E+00 -0.00000000000E+00 -0.45593999997E+02  0.45594000000E+02  0.51100000000E-03 0.  1.
    9900012    2    1    2    0    0 -0.11776148824E+02  0.13135117011E+02  0.36632714945E+02  0.50528870837E+02  0.30000033397E+02 0.  0.
        -12    1    1    2    0    0  0.11776148824E+02 -0.13135117011E+02 -0.36632714945E+02  0.40659129163E+02  0.00000000000E+00 0.  1.
         11    1    3    3    0    0  0.20603440053E+01 -0.19737853561E+01  0.17506832551E+02  0.17737813627E+02  0.51100000000E-03 0. -1.
        -11    1    3    3    0    0 -0.13846348618E+01 -0.37721274359E+01  0.28615193656E+01  0.49329962938E+01  0.51100000000E-03 0.  1.
         12    1    3    3    0    0 -0.12451857968E+02  0.18881029803E+02  0.16264363029E+02  0.27858060916E+02  0.00000000000E+00 0. -1.
</event>
<event>
 7    1  0.5992960E-013  0.5052886E+02  0.7816164E-02  0.1300439E+00
        -11   -1    0    0    0    0  0.00000000000E+00  0.00000000000E+00  0.45593999997E+02  0.45594000000E+02  0.51100000000E-03 0.  1.
         11   -1    0    0    0    0 -0.00000000000E+00 -0.00000000000E+00 -0.45593999997E+02  0.45594000000E+02  0.51100000000E-03 0. -1.
    9900012    2    1    2    0    0 -0.33398567680E+02  0.12525185720E+02 -0.19514646469E+02  0.50528855553E+02  0.29999986938E+02 0.  0.
        -12    1    1    2    0    0  0.33398567680E+02 -0.12525185720E+02  0.19514646469E+02  0.40659144447E+02  0.00000000000E+00 0.  1.
         11    1    3    3    0    0 -0.12614020250E+02  0.13754367800E+02  0.15230741866E+01  0.18724740204E+02  0.51100000000E-03 0. -1.
        -11    1    3    3    0    0 -0.37905675649E+01  0.45290488524E+01 -0.54265417369E+01  0.80204763857E+01  0.51100000000E-03 0.  1.
         12    1    3    3    0    0 -0.16993979865E+02 -0.57582309326E+01 -0.15611178918E+02  0.23783638963E+02  0.00000000000E+00 0. -1.
</event>
<event>
 7    1  0.5992960E-013  0.5052887E+02  0.7816164E-02  0.1300439E+00
        -11   -1    0    0    0    0  0.00000000000E+00  0.00000000000E+00  0.45593999997E+02  0.45594000000E+02  0.51100000000E-03 0.  1.
         11   -1    0    0    0    0 -0.00000000000E+00 -0.00000000000E+00 -0.45593999997E+02  0.45594000000E+02  0.51100000000E-03 0. -1.
    9900012    2    1    2    0    0 -0.24274505326E+02  0.74320874691E+01 -0.31759685777E+02  0.50528866049E+02  0.30000018843E+02 0.  0.
        -12    1    1    2    0    0  0.24274505326E+02 -0.74320874691E+01  0.31759685777E+02  0.40659133951E+02  0.00000000000E+00 0.  1.
         11    1    3    3    0    0 -0.52354003266E+01 -0.83813245609E+01 -0.28302595314E+01  0.10279415706E+02  0.51100000000E-03 0. -1.
        -11    1    3    3    0    0 -0.28219842347E+01 -0.13994149594E+01 -0.82621840011E+01  0.88422645278E+01  0.51100000000E-03 0.  1.
        -12    1    3    3    0    0 -0.16217120765E+02  0.17212826989E+02 -0.20667242245E+02  0.31407185816E+02  0.00000000000E+00 0.  1.
</event>
<event>
 7    1  0.5992960E-013  0.5052888E+02  0.7816164E-02  0.1300439E+00
        -11   -1    0    0    0    0  0.00000000000E+00  0.00000000000E+00  0.45593999997E+02  0.45594000000E+02  0.51100000000E-03 0. -1.
         11   -1    0    0    0    0 -0.00000000000E+00 -0.00000000000E+00 -0.45593999997E+02  0.45594000000E+02  0.51100000000E-03 0.  1.
    9900012    2    1    2    0    0 -0.23744817269E+02  0.33001561812E+02  0.49476693418E+00  0.50528877734E+02  0.30000054359E+02 0.  0.
        -12    1    1    2    0    0  0.23744817269E+02 -0.33001561812E+02 -0.49476693418E+00  0.40659122266E+02  0.00000000000E+00 0.  1.
         11    1    3    3    0    0 -0.18614334979E+02  0.16532817685E+02 -0.14820148066E+01  0.24940406883E+02  0.51100000000E-03 0. -1.
        -11    1    3    3    0    0 -0.10547978792E+01 -0.41673420045E+01 -0.79584938384E+00  0.43718090593E+01  0.51100000000E-03 0.  1.
        -12    1    3    3    0    0 -0.40756844106E+01  0.20636086131E+02  0.27726311246E+01  0.21216661792E+02  0.00000000000E+00 0.  1.
</event>
<event>
 7    1  0.5992960E-013  0.5052891E+02  0.7816164E-02  0.1300439E+00
        -11   -1    0    0    0    0  0.00000000000E+00  0.00000000000E+00  0.45593999997E+02  0.45594000000E+02  0.51100000000E-03 0.  1.
         11   -1    0    0    0    0 -0.00000000000E+00 -0.00000000000E+00 -0.45593999997E+02  0.45594000000E+02  0.51100000000E-03 0. -1.
    9900012    2    1    2    0    0 -0.17309750684E+02 -0.35685636576E+02 -0.89481541437E+01  0.50528910129E+02  0.30000152827E+02 0.  0.
        -12    1    1    2    0    0  0.17309750684E+02  0.35685636576E+02  0.89481541437E+01  0.40659089871E+02  0.00000000000E+00 0.  1.
         11    1    3    3    0    0 -0.14409581101E+02 -0.19180049182E+02  0.12662275703E+01  0.24023189768E+02  0.51100000000E-03 0. -1.
        -11    1    3    3    0    0 -0.42354860989E+01 -0.17458253631E+01  0.39175469229E+01  0.60278041480E+01  0.51100000000E-03 0.  1.
         12    1    3    3    0    0  0.13353165156E+01 -0.14759762031E+02 -0.14131928637E+02  0.20477916212E+02  0.00000000000E+00 0. -1.
</event>
<event>
 7    1  0.5992960E-013  0.5052886E+02  0.7816164E-02  0.1300439E+00
        -11   -1    0    0    0    0  0.00000000000E+00  0.00000000000E+00  0.45593999997E+02  0.45594000000E+02  0.51100000000E-03 0.  1.
         11   -1    0    0    0    0 -0.00000000000E+00 -0.00000000000E+00 -0.45593999997E+02  0.45594000000E+02  0.51100000000E-03 0. -1.
    9900012    2    1    2    0    0 -0.11307902678E+02 -0.72832553051E+00 -0.39048258036E+02  0.50528861093E+02  0.30000003777E+02 0.  0.
        -12    1    1    2    0    0  0.11307902678E+02  0.72832553051E+00  0.39048258036E+02  0.40659138907E+02  0.00000000000E+00 0.  1.
         11    1    3    3    0    0 -0.43802262615E+01 -0.81294821544E+00 -0.23645190176E+02  0.24061219538E+02  0.51100000000E-03 0. -1.
        -11    1    3    3    0    0 -0.11493795985E+02  0.31281809878E+01 -0.16995024425E+02  0.20753884406E+02  0.51100000000E-03 0.  1.
        -12    1    3    3    0    0  0.45661195683E+01 -0.30435583028E+01  0.15919565661E+01  0.57137571495E+01  0.00000000000E+00 0.  1.
</event>
<event>
 7    1  0.5992960E-013  0.5052886E+02  0.7816164E-02  0.1300439E+00
        -11   -1    0    0    0    0  0.00000000000E+00  0.00000000000E+00  0.45593999997E+02  0.45594000000E+02  0.51100000000E-03 0.  1.
         11   -1    0    0    0    0 -0.00000000000E+00 -0.00000000000E+00 -0.45593999997E+02  0.45594000000E+02  0.51100000000E-03 0. -1.
    9900012    2    1    2    0    0  0.93777423437E+01  0.12854078971E+02 -0.37416525447E+02  0.50528858664E+02  0.29999996395E+02 0.  0.
        -12    1    1    2    0    0 -0.93777423437E+01 -0.12854078971E+02  0.37416525447E+02  0.40659141336E+02  0.00000000000E+00 0.  1.
         11    1    3    3    0    0 -0.16275060134E+01  0.95355659046E+01 -0.21028677344E+02  0.23146945026E+02  0.51100000000E-03 0. -1.
        -11    1    3    3    0    0 -0.13660998242E+01  0.82355738563E+01 -0.84702486627E+01  0.11892687591E+02  0.51100000000E-03 0.  1.
        -12    1    3    3    0    0  0.12371348181E+02 -0.49170607901E+01 -0.79175994407E+01  0.15489226047E+02  0.00000000000E+00 0.  1.
</event>
<event>
 7    1  0.5992960E-013  0.5052886E+02  0.7816164E-02  0.1300439E+00
        -11   -1    0    0    0    0  0.00000000000E+00  0.00000000000E+00  0.45593999997E+02  0.45594000000E+02  0.51100000000E-03 0.  1.
         11   -1    0    0    0    0 -0.00000000000E+00 -0.00000000000E+00 -0.45593999997E+02  0.45594000000E+02  0.51100000000E-03 0. -1.
    9900012    2    1    2    0    0 -0.11830483816E+02  0.27293662840E+01 -0.38804074584E+02  0.50528855986E+02  0.29999988254E+02 0.  0.
        -12    1    1    2    0    0  0.11830483816E+02 -0.27293662840E+01  0.38804074584E+02  0.40659144014E+02  0.00000000000E+00 0.  1.
         11    1    3    3    0    0 -0.74577371062E+01 -0.98038361297E+01 -0.25571353153E+02  0.28383571797E+02  0.51100000000E-03 0. -1.
        -11    1    3    3    0    0  0.26884147910E+01  0.12201947325E+01 -0.66444157759E+01  0.72708122338E+01  0.51100000000E-03 0.  1.
        -12    1    3    3    0    0 -0.70611615008E+01  0.11313007681E+02 -0.65883056552E+01  0.14874471955E+02  0.00000000000E+00 0.  1.
</event>
<event>
 7    1  0.5992960E-013  0.5052886E+02  0.7816164E-02  0.1300439E+00
        -11   -1    0    0    0    0  0.00000000000E+00  0.00000000000E+00  0.45593999997E+02  0.45594000000E+02  0.51100000000E-03 0.  1.
         11   -1    0    0    0    0 -0.00000000000E+00 -0.00000000000E+00 -0.45593999997E+02  0.45594000000E+02  0.51100000000E-03 0. -1.
    9900012    2    1    2    0    0  0.26761554403E+01 -0.35584134415E+02 -0.19487776509E+02  0.50528857568E+02  0.29999993064E+02 0.  0.
        -12    1    1    2    0    0 -0.26761554403E+01  0.35584134415E+02  0.19487776509E+02  0.40659142432E+02  0.00000000000E+00 0.  1.
         11    1    3    3    0    0 -0.52097001171E+01 -0.15754990206E+02  0.26758596428E+01  0.16808358539E+02  0.51100000000E-03 0. -1.
        -11    1    3    3    0    0  0.15830372187E+01 -0.64908526658E+01  0.47650037808E+00  0.66980764430E+01  0.51100000000E-03 0.  1.
         12    1    3    3    0    0  0.63028183387E+01 -0.13338291544E+02 -0.22640136530E+02  0.27022422586E+02  0.00000000000E+00 0. -1.
</event>
<event>
 7    1  0.5992960E-013  0.5052887E+02  0.7816164E-02  0.1300439E+00
        -11   -1    0    0    0    0  0.00000000000E+00  0.00000000000E+00  0.45593999997E+02  0.45594000000E+02  0.51100000000E-03 0.  1.
         11   -1    0    0    0    0 -0.00000000000E+00 -0.00000000000E+00 -0.45593999997E+02  0.45594000000E+02  0.51100000000E-03 0. -1.
    9900012    2    1    2    0    0  0.29870216753E+02  0.21211308194E+02 -0.17635640335E+02  0.50528865058E+02  0.30000015830E+02 0.  0.
        -12    1    1    2    0    0 -0.29870216753E+02 -0.21211308194E+02  0.17635640335E+02  0.40659134942E+02  0.00000000000E+00 0.  1.
         11    1    3    3    0    0  0.49433131520E+01  0.99064992036E+01  0.67675687654E+01  0.12975941532E+02  0.51100000000E-03 0. -1.
        -11    1    3    3    0    0  0.16429133074E+02  0.10178814118E+02 -0.13020939701E+02  0.23303852501E+02  0.51100000000E-03 0.  1.
        -12    1    3    3    0    0  0.84977705271E+01  0.11259948730E+01 -0.11382269400E+02  0.14249071025E+02  0.00000000000E+00 0.  1.
</event>
<event>
 7    1  0.5992960E-013  0.5052886E+02  0.7816164E-02  0.1300439E+00
        -11   -1    0    0    0    0  0.00000000000E+00  0.00000000000E+00  0.45593999997E+02  0.45594000000E+02  0.51100000000E-03 0. -1.
         11   -1    0    0    0    0 -0.00000000000E+00 -0.00000000000E+00 -0.45593999997E+02  0.45594000000E+02  0.51100000000E-03 0.  1.
    9900012    2    1    2    0    0  0.10526444704E+02  0.36224705827E+02 -0.15170050008E+02  0.50528858745E+02  0.29999996641E+02 0.  0.
        -12    1    1    2    0    0 -0.10526444704E+02 -0.36224705827E+02  0.15170050008E+02  0.40659141255E+02  0.00000000000E+00 0.  1.
         11    1    3    3    0    0  0.14705068390E+01  0.16690343634E+02 -0.16136652137E+01  0.16832524370E+02  0.51100000000E-03 0. -1.
        -11    1    3    3    0    0 -0.14532926718E+01  0.16772086555E+02 -0.68128125457E+00  0.16848711862E+02  0.51100000000E-03 0.  1.
        -12    1    3    3    0    0  0.10509230536E+02  0.27622756376E+01 -0.12875103540E+02  0.16847622513E+02  0.00000000000E+00 0.  1.
</event>
<event>
 7    1  0.5992960E-013  0.5052887E+02  0.7816164E-02  0.1300439E+00
        -11   -1    0    0    0    0  0.00000000000E+00  0.00000000000E+00  0.45593999997E+02  0.45594000000E+02  0.51100000000E-03 0. -1.
         11   -1    0    0    0    0 -0.00000000000E+00 -0.00000000000E+00 -0.45593999997E+02  0.45594000000E+02  0.51100000000E-03 0.  1.
    9900012    2    1    2    0    0 -0.29331998922E+02 -0.26028054494E+02  0.10739604339E+02  0.50528869625E+02  0.30000029712E+02 0.  0.
        -12    1    1    2    0    0  0.29331998922E+02  0.26028054494E+02 -0.10739604339E+02  0.40659130375E+02  0.00000000000E+00 0.  1.
         11    1    3    3    0    0 -0.12655441291E+02 -0.12767876635E+02  0.17249119136E+01  0.18059739461E+02  0.51100000000E-03 0. -1.
        -11    1    3    3    0    0 -0.14063034511E+02 -0.16568032049E+02 -0.84272114754E+00  0.21748075888E+02  0.51100000000E-03 0.  1.
        -12    1    3    3    0    0 -0.26135231199E+01  0.33078541901E+01  0.98574135728E+01  0.10721054276E+02  0.00000000000E+00 0.  1.
</event>
<event>
 7    1  0.5992960E-013  0.5052886E+02  0.7816164E-02  0.1300439E+00
        -11   -1    0    0    0    0  0.00000000000E+00  0.00000000000E+00  0.45593999997E+02  0.45594000000E+02  0.51100000000E-03 0.  1.
         11   -1    0    0    0    0 -0.00000000000E+00 -0.00000000000E+00 -0.45593999997E+02  0.45594000000E+02  0.51100000000E-03 0. -1.
    9900012    2    1    2    0    0  0.21161096012E+02 -0.34146826561E+02 -0.62743683044E+01  0.50528862697E+02  0.30000008654E+02 0.  0.
        -12    1    1    2    0    0 -0.21161096012E+02  0.34146826561E+02  0.62743683044E+01  0.40659137303E+02  0.00000000000E+00 0.  1.
         11    1    3    3    0    0  0.15773844646E+02 -0.93126083213E+01 -0.88892537270E+01  0.20360689594E+02  0.51100000000E-03 0. -1.
        -11    1    3    3    0    0  0.66896232455E+01 -0.16834409596E+02 -0.52644452541E+01  0.18864325848E+02  0.51100000000E-03 0.  1.
        -12    1    3    3    0    0 -0.13023718799E+01 -0.79998086441E+01  0.78793306766E+01  0.11303847255E+02  0.00000000000E+00 0.  1.
</event>
<event>
 7    1  0.5992960E-013  0.5052887E+02  0.7816164E-02  0.1300439E+00
        -11   -1    0    0    0    0  0.00000000000E+00  0.00000000000E+00  0.45593999997E+02  0.45594000000E+02  0.51100000000E-03 0. -1.
         11   -1    0    0    0    0 -0.00000000000E+00 -0.00000000000E+00 -0.45593999997E+02  0.45594000000E+02  0.51100000000E-03 0.  1.
    9900012    2    1    2    0    0 -0.11644768007E+02 -0.30655089197E+02  0.24038089492E+02  0.50528869881E+02  0.30000030491E+02 0.  0.
        -12    1    1    2    0    0  0.11644768007E+02  0.30655089197E+02 -0.24038089492E+02  0.40659130119E+02  0.00000000000E+00 0.  1.
         11    1    3    3    0    0 -0.52703178547E+01 -0.49566841163E+01  0.16574113129E+02  0.18084418542E+02  0.51100000000E-03 0. -1.
        -11    1    3    3    0    0  0.20652027343E+01 -0.83251191013E+01  0.97602996441E+01  0.12993695386E+02  0.51100000000E-03 0.  1.
        -12    1    3    3    0    0 -0.84396528867E+01 -0.17373285979E+02 -0.22963232809E+01  0.19450755953E+02  0.00000000000E+00 0.  1.
</event>
<event>
 7    1  0.5992960E-013  0.5052886E+02  0.7816164E-02  0.1300439E+00
        -11   -1    0    0    0    0  0.00000000000E+00  0.00000000000E+00  0.45593999997E+02  0.45594000000E+02  0.51100000000E-03 0.  1.
         11   -1    0    0    0    0 -0.00000000000E+00 -0.00000000000E+00 -0.45593999997E+02  0.45594000000E+02  0.51100000000E-03 0. -1.
    9900012    2    1    2    0    0  0.17458486568E+02 -0.36574137484E+02 -0.32709613633E+01  0.50528862353E+02  0.30000007608E+02 0.  0.
        -12    1    1    2    0    0 -0.17458486568E+02  0.36574137484E+02  0.32709613633E+01  0.40659137647E+02  0.00000000000E+00 0.  1.
         11    1    3    3    0    0  0.10298205393E+02 -0.38503532559E+02 -0.54526510251E+01  0.40228179890E+02  0.51100000000E-03 0. -1.
        -11    1    3    3    0    0  0.15891379638E+01 -0.24753642767E+01  0.96029077009E+00  0.30943410275E+01  0.51100000000E-03 0.  1.
        -12    1    3    3    0    0  0.55711432116E+01  0.44047593513E+01  0.12213988917E+01  0.72063414351E+01  0.00000000000E+00 0.  1.
</event>
<event>
 7    1  0.5992960E-013  0.5052887E+02  0.7816164E-02  0.1300439E+00
        -11   -1    0    0    0    0  0.00000000000E+00  0.00000000000E+00  0.45593999997E+02  0.45594000000E+02  0.51100000000E-03 0.  1.
         11   -1    0    0    0    0 -0.00000000000E+00 -0.00000000000E+00 -0.45593999997E+02  0.45594000000E+02  0.51100000000E-03 0. -1.
    9900012    2    1    2    0    0  0.25784309762E+02 -0.17971874895E+02 -0.25794308153E+02  0.50528865108E+02  0.30000015981E+02 0.  0.
        -12    1    1    2    0    0 -0.25784309762E+02  0.17971874895E+02  0.25794308153E+02  0.40659134892E+02  0.00000000000E+00 0.  1.
         11    1    3    3    0    0  0.73469030098E+01 -0.13167266256E+02 -0.10821504034E+02  0.18559602213E+02  0.51100000000E-03 0. -1.
        -11    1    3    3    0    0  0.35098895702E+01 -0.86466395491E+01 -0.13600659500E+02  0.16494291115E+02  0.51100000000E-03 0.  1.
        -12    1    3    3    0    0  0.14927517182E+02  0.38420309105E+01 -0.13721446195E+01  0.15474971780E+02  0.00000000000E+00 0.  1.
</event>
<event>
 7    1  0.5992960E-013  0.5052886E+02  0.7816164E-02  0.1300439E+00
        -11   -1    0    0    0    0  0.00000000000E+00  0.00000000000E+00  0.45593999997E+02  0.45594000000E+02  0.51100000000E-03 0.  1.
         11   -1    0    0    0    0 -0.00000000000E+00 -0.00000000000E+00 -0.45593999997E+02  0.45594000000E+02  0.51100000000E-03 0. -1.
    9900012    2    1    2    0    0  0.37305032609E+02  0.15814837367E+02 -0.33750590206E+01  0.50528861270E+02  0.30000004316E+02 0.  0.
        -12    1    1    2    0    0 -0.37305032609E+02 -0.15814837367E+02  0.33750590206E+01  0.40659138730E+02  0.00000000000E+00 0.  1.
         11    1    3    3    0    0  0.19529960202E+02  0.17048110727E+02  0.22225527772E+01  0.26019169202E+02  0.51100000000E-03 0. -1.
        -11    1    3    3    0    0  0.92988250592E+01  0.50742324840E+01  0.28638859548E+01  0.10973505630E+02  0.51100000000E-03 0.  1.
         12    1    3    3    0    0  0.84762473477E+01 -0.63075058442E+01 -0.84614977525E+01  0.13536186438E+02  0.00000000000E+00 0. -1.
</event>
<event>
 7    1  0.5992960E-013  0.5052888E+02  0.7816164E-02  0.1300439E+00
        -11   -1    0    0    0    0  0.00000000000E+00  0.00000000000E+00  0.45593999997E+02  0.45594000000E+02  0.51100000000E-03 0. -1.
         11   -1    0    0    0    0 -0.00000000000E+00 -0.00000000000E+00 -0.45593999997E+02  0.45594000000E+02  0.51100000000E-03 0.  1.
    9900012    2    1    2    0    0  0.91390668516E+01  0.37265742525E+02  0.13450132431E+02  0.50528878376E+02  0.30000056311E+02 0.  0.
        -12    1    1    2    0    0 -0.91390668516E+01 -0.37265742525E+02 -0.13450132431E+02  0.40659121624E+02  0.00000000000E+00 0.  1.
         11    1    3    3    0    0  0.95634418277E-01  0.35883930080E+00 -0.92763319563E+00  0.99920728205E+00  0.51100000000E-03 0. -1.
        -11    1    3    3    0    0  0.79119574797E+01  0.17288107289E+02 -0.72130079555E+01  0.20334827484E+02  0.51100000000E-03 0.  1.
         12    1    3    3    0    0  0.11314749537E+01  0.19618795935E+02  0.21590773582E+02  0.29194843610E+02  0.00000000000E+00 0. -1.
</event>
<event>
 7    1  0.5992960E-013  0.5052885E+02  0.7816164E-02  0.1300439E+00
        -11   -1    0    0    0    0  0.00000000000E+00  0.00000000000E+00  0.45593999997E+02  0.45594000000E+02  0.51100000000E-03 0.  1.
         11   -1    0    0    0    0 -0.00000000000E+00 -0.00000000000E+00 -0.45593999997E+02  0.45594000000E+02  0.51100000000E-03 0. -1.
    9900012    2    1    2    0    0 -0.28894369967E+02 -0.25361546512E+02 -0.13231535635E+02  0.50528853519E+02  0.29999980757E+02 0.  0.
        -12    1    1    2    0    0  0.28894369967E+02  0.25361546512E+02  0.13231535635E+02  0.40659146481E+02  0.00000000000E+00 0.  1.
         11    1    3    3    0    0 -0.95823606502E+01 -0.31027817143E+01  0.65621906008E+01  0.12021282616E+02  0.51100000000E-03 0. -1.
        -11    1    3    3    0    0 -0.33151410413E+00 -0.32865591032E+01  0.20647728382E+01  0.38954665285E+01  0.51100000000E-03 0.  1.
         12    1    3    3    0    0 -0.18980495213E+02 -0.18972205695E+02 -0.21858499074E+02  0.34612104374E+02  0.00000000000E+00 0. -1.
</event>
<event>
 7    1  0.5992960E-013  0.5052885E+02  0.7816164E-02  0.1300439E+00
        -11   -1    0    0    0    0  0.00000000000E+00  0.00000000000E+00  0.45593999997E+02  0.45594000000E+02  0.51100000000E-03 0.  1.
         11   -1    0    0    0    0 -0.00000000000E+00 -0.00000000000E+00 -0.45593999997E+02  0.45594000000E+02  0.51100000000E-03 0. -1.
    9900012    2    1    2    0    0  0.21205112973E+02  0.18555232686E+01 -0.34641980382E+02  0.50528848661E+02  0.29999965990E+02 0.  0.
        -12    1    1    2    0    0 -0.21205112973E+02 -0.18555232686E+01  0.34641980382E+02  0.40659151339E+02  0.00000000000E+00 0.  1.
         11    1    3    3    0    0  0.98806984750E+01 -0.84420174397E+01 -0.41144392389E+01  0.13631744984E+02  0.51100000000E-03 0. -1.
        -11    1    3    3    0    0  0.45666540371E+01 -0.28222332885E+01 -0.46272875693E+01  0.70873916457E+01  0.51100000000E-03 0.  1.
         12    1    3    3    0    0  0.67577604605E+01  0.13119773997E+02 -0.25900253574E+02  0.29809712031E+02  0.00000000000E+00 0. -1.
</event>
<event>
 7    1  0.5992960E-013  0.5052886E+02  0.7816164E-02  0.1300439E+00
        -11   -1    0    0    0    0  0.00000000000E+00  0.00000000000E+00  0.45593999997E+02  0.45594000000E+02  0.51100000000E-03 0.  1.
         11   -1    0    0    0    0 -0.00000000000E+00 -0.00000000000E+00 -0.45593999997E+02  0.45594000000E+02  0.51100000000E-03 0. -1.
    9900012    2    1    2    0    0  0.15675598377E+02 -0.23929668407E+01 -0.37439484245E+02  0.50528860126E+02  0.30000000840E+02 0.  0.
        -12    1    1    2    0    0 -0.15675598377E+02  0.23929668407E+01  0.37439484245E+02  0.40659139874E+02  0.00000000000E+00 0.  1.
         11    1    3    3    0    0  0.27059713839E+01 -0.79448076693E+01 -0.78912986893E+01  0.11520192937E+02  0.51100000000E-03 0. -1.
        -11    1    3    3    0    0 -0.14558481645E+01 -0.54138759190E+01 -0.18379833056E+01  0.58998075593E+01  0.51100000000E-03 0.  1.
        -12    1    3    3    0    0  0.14425475157E+02  0.10965716748E+02 -0.27710202250E+02  0.33108859630E+02  0.00000000000E+00 0.  1.
</event>
<event>
 7    1  0.5992960E-013  0.5052887E+02  0.7816164E-02  0.1300439E+00
        -11   -1    0    0    0    0  0.00000000000E+00  0.00000000000E+00  0.45593999997E+02  0.45594000000E+02  0.51100000000E-03 0.  1.
         11   -1    0    0    0    0 -0.00000000000E+00 -0.00000000000E+00 -0.45593999997E+02  0.45594000000E+02  0.51100000000E-03 0. -1.
    9900012    2    1    2    0    0 -0.10093467985E+02  0.16758778111E+02 -0.35643093612E+02  0.50528869882E+02  0.30000030492E+02 0.  0.
        -12    1    1    2    0    0  0.10093467985E+02 -0.16758778111E+02  0.35643093612E+02  0.40659130118E+02  0.00000000000E+00 0.  1.
         11    1    3    3    0    0 -0.33945731369E+01  0.15456459146E+01 -0.21505458212E+02  0.21826517845E+02  0.51100000000E-03 0. -1.
        -11    1    3    3    0    0  0.13512002151E+00 -0.35778313490E+01  0.89039974898E+00  0.36894371598E+01  0.51100000000E-03 0.  1.
         12    1    3    3    0    0 -0.68340148698E+01  0.18790963545E+02 -0.15028035150E+02  0.25012914877E+02  0.00000000000E+00 0. -1.
</event>
<event>
 7    1  0.5992960E-013  0.5052886E+02  0.7816164E-02  0.1300439E+00
        -11   -1    0    0    0    0  0.00000000000E+00  0.00000000000E+00  0.45593999997E+02  0.45594000000E+02  0.51100000000E-03 0.  1.
         11   -1    0    0    0    0 -0.00000000000E+00 -0.00000000000E+00 -0.45593999997E+02  0.45594000000E+02  0.51100000000E-03 0. -1.
    9900012    2    1    2    0    0 -0.17077746658E+02  0.28862156297E+02 -0.22988956110E+02  0.50528860805E+02  0.30000002904E+02 0.  0.
        -12    1    1    2    0    0  0.17077746658E+02 -0.28862156297E+02  0.22988956110E+02  0.40659139195E+02  0.00000000000E+00 0.  1.
         11    1    3    3    0    0 -0.29546200390E+01  0.25307764993E+01  0.41869202677E+01  0.57153224628E+01  0.51100000000E-03 0. -1.
        -11    1    3    3    0    0  0.21097947367E+01 -0.11421666749E+01  0.63801698254E+00  0.24825076989E+01  0.51100000000E-03 0.  1.
         12    1    3    3    0    0 -0.16232921355E+02  0.27473546472E+02 -0.27813893360E+02  0.42331030644E+02  0.00000000000E+00 0. -1.
</event>
<event>
 7    1  0.5992960E-013  0.5052886E+02  0.7816164E-02  0.1300439E+00
        -11   -1    0    0    0    0  0.00000000000E+00  0.00000000000E+00  0.45593999997E+02  0.45594000000E+02  0.51100000000E-03 0.  1.
         11   -1    0    0    0    0 -0.00000000000E+00 -0.00000000000E+00 -0.45593999997E+02  0.45594000000E+02  0.51100000000E-03 0. -1.
    9900012    2    1    2    0    0 -0.32287095242E+02 -0.61858467135E+01 -0.23925810957E+02  0.50528860207E+02  0.30000001085E+02 0.  0.
        -12    1    1    2    0    0  0.32287095242E+02  0.61858467135E+01  0.23925810957E+02  0.40659139793E+02  0.00000000000E+00 0.  1.
         11    1    3    3    0    0 -0.10559403720E+02  0.42001277047E+01 -0.16439988617E+02  0.19985377296E+02  0.51100000000E-03 0. -1.
        -11    1    3    3    0    0 -0.60203349961E+01 -0.88113091105E+01 -0.99207784499E+01  0.14570705097E+02  0.51100000000E-03 0.  1.
        -12    1    3    3    0    0 -0.15707356526E+02 -0.15746653077E+01  0.24349561095E+01  0.15972777814E+02  0.00000000000E+00 0.  1.
</event>
<event>
 7    1  0.5992960E-013  0.5052886E+02  0.7816164E-02  0.1300439E+00
        -11   -1    0    0    0    0  0.00000000000E+00  0.00000000000E+00  0.45593999997E+02  0.45594000000E+02  0.51100000000E-03 0.  1.
         11   -1    0    0    0    0 -0.00000000000E+00 -0.00000000000E+00 -0.45593999997E+02  0.45594000000E+02  0.51100000000E-03 0. -1.
    9900012    2    1    2    0    0  0.27926196856E+02  0.29411050580E+02  0.28780386758E+01  0.50528862360E+02  0.30000007628E+02 0.  0.
        -12    1    1    2    0    0 -0.27926196856E+02 -0.29411050580E+02 -0.28780386758E+01  0.40659137640E+02  0.00000000000E+00 0.  1.
         11    1    3    3    0    0  0.21833492849E+02  0.17272042401E+02  0.39162348781E+01  0.28113373234E+02  0.51100000000E-03 0. -1.
        -11    1    3    3    0    0  0.10174821233E+02  0.14463292085E+02 -0.54346361176E+00  0.17692064832E+02  0.51100000000E-03 0.  1.
        -12    1    3    3    0    0 -0.40821172259E+01 -0.23242839066E+01 -0.49473259059E+00  0.47234242940E+01  0.00000000000E+00 0.  1.
</event>
<event>
 7    1  0.5992960E-013  0.5052886E+02  0.7816164E-02  0.1300439E+00
        -11   -1    0    0    0    0  0.00000000000E+00  0.00000000000E+00  0.45593999997E+02  0.45594000000E+02  0.51100000000E-03 0. -1.
         11   -1    0    0    0    0 -0.00000000000E+00 -0.00000000000E+00 -0.45593999997E+02  0.45594000000E+02  0.51100000000E-03 0.  1.
    9900012    2    1    2    0    0 -0.31980288240E+02  0.24776715308E+02  0.40670839947E+01  0.50528860442E+02  0.30000001801E+02 0.  0.
        -12    1    1    2    0    0  0.31980288240E+02 -0.24776715308E+02 -0.40670839947E+01  0.40659139558E+02  0.00000000000E+00 0.  1.
         11    1    3    3    0    0 -0.96095888397E+01  0.76226313860E+01 -0.38592728278E+01  0.12858565003E+02  0.51100000000E-03 0. -1.
        -11    1    3    3    0    0 -0.84217578211E+01  0.19483424617E+02 -0.45607704125E+00  0.21230587513E+02  0.51100000000E-03 0.  1.
         12    1    3    3    0    0 -0.13948941579E+02 -0.23293406950E+01  0.83824338637E+01  0.16439707927E+02  0.00000000000E+00 0. -1.
</event>
<event>
 7    1  0.5992960E-013  0.5052884E+02  0.7816164E-02  0.1300439E+00
        -11   -1    0    0    0    0  0.00000000000E+00  0.00000000000E+00  0.45593999997E+02  0.45594000000E+02  0.51100000000E-03 0.  1.
         11   -1    0    0    0    0 -0.00000000000E+00 -0.00000000000E+00 -0.45593999997E+02  0.45594000000E+02  0.51100000000E-03 0. -1.
    9900012    2    1    2    0    0 -0.38687885395E+02 -0.24465040997E+01  0.12264964372E+02  0.50528841011E+02  0.29999942737E+02 0.  0.
        -12    1    1    2    0    0  0.38687885395E+02  0.24465040997E+01 -0.12264964372E+02  0.40659158989E+02  0.00000000000E+00 0.  1.
         11    1    3    3    0    0 -0.18117820524E+01  0.12105890232E+01  0.13613080511E+01  0.25692878117E+01  0.51100000000E-03 0. -1.
        -11    1    3    3    0    0 -0.19657636139E+02 -0.14337443114E+02 -0.11954783816E+01  0.24360092415E+02  0.51100000000E-03 0.  1.
        -12    1    3    3    0    0 -0.17218467204E+02  0.10680349991E+02  0.12099134703E+02  0.23599460785E+02  0.00000000000E+00 0.  1.
</event>
<event>
 7    1  0.5992960E-013  0.5052886E+02  0.7816164E-02  0.1300439E+00
        -11   -1    0    0    0    0  0.00000000000E+00  0.00000000000E+00  0.45593999997E+02  0.45594000000E+02  0.51100000000E-03 0.  1.
         11   -1    0    0    0    0 -0.00000000000E+00 -0.00000000000E+00 -0.45593999997E+02  0.45594000000E+02  0.51100000000E-03 0. -1.
    9900012    2    1    2    0    0 -0.31472997410E+02  0.24646361203E+02  0.74278411618E+01  0.50528861902E+02  0.30000006237E+02 0.  0.
        -12    1    1    2    0    0  0.31472997410E+02 -0.24646361203E+02 -0.74278411618E+01  0.40659138098E+02  0.00000000000E+00 0.  1.
         11    1    3    3    0    0 -0.15765061717E+01  0.32508836293E+01 -0.45787059537E+01  0.58325092844E+01  0.51100000000E-03 0.  1.
        -11    1    3    3    0    0 -0.16338412105E+02  0.86252406172E+01 -0.53533215688E+01  0.19235294068E+02  0.51100000000E-03 0. -1.
         12    1    3    3    0    0 -0.13558079134E+02  0.12770236956E+02  0.17359868684E+02  0.25461058550E+02  0.00000000000E+00 0. -1.
</event>
<event>
 7    1  0.5992960E-013  0.5052886E+02  0.7816164E-02  0.1300439E+00
        -11   -1    0    0    0    0  0.00000000000E+00  0.00000000000E+00  0.45593999997E+02  0.45594000000E+02  0.51100000000E-03 0.  1.
         11   -1    0    0    0    0 -0.00000000000E+00 -0.00000000000E+00 -0.45593999997E+02  0.45594000000E+02  0.51100000000E-03 0. -1.
    9900012    2    1    2    0    0  0.15228323968E+02 -0.27230171685E+01 -0.37601186164E+02  0.50528857433E+02  0.29999992653E+02 0.  0.
        -12    1    1    2    0    0 -0.15228323968E+02  0.27230171685E+01  0.37601186164E+02  0.40659142567E+02  0.00000000000E+00 0.  1.
         11    1    3    3    0    0  0.60060330271E+01  0.13938180708E+01 -0.18820975749E+01  0.64465070449E+01  0.51100000000E-03 0. -1.
        -11    1    3    3    0    0  0.34257055111E+01 -0.44521746858E+00  0.31120914060E+01  0.46496010607E+01  0.51100000000E-03 0.  1.
         12    1    3    3    0    0  0.57965854300E+01 -0.36716177708E+01 -0.38831179995E+02  0.39432749327E+02  0.00000000000E+00 0. -1.
</event>
<event>
 7    1  0.5992960E-013  0.5052886E+02  0.7816164E-02  0.1300439E+00
        -11   -1    0    0    0    0  0.00000000000E+00  0.00000000000E+00  0.45593999997E+02  0.45594000000E+02  0.51100000000E-03 0.  1.
         11   -1    0    0    0    0 -0.00000000000E+00 -0.00000000000E+00 -0.45593999997E+02  0.45594000000E+02  0.51100000000E-03 0. -1.
    9900012    2    1    2    0    0  0.23811607439E+02  0.41187275904E+01 -0.32698764751E+02  0.50528858568E+02  0.29999996103E+02 0.  0.
        -12    1    1    2    0    0 -0.23811607439E+02 -0.41187275904E+01  0.32698764751E+02  0.40659141432E+02  0.00000000000E+00 0.  1.
         11    1    3    3    0    0  0.10149989162E+02 -0.87163273786E+01 -0.16150118808E+02  0.20971957008E+02  0.51100000000E-03 0. -1.
        -11    1    3    3    0    0  0.14242531506E+02  0.53590834514E+01 -0.15934073351E+02  0.22033251530E+02  0.51100000000E-03 0.  1.
        -12    1    3    3    0    0 -0.58091322994E+00  0.74759715176E+01 -0.61457259158E+00  0.75236500306E+01  0.00000000000E+00 0.  1.
</event>
<event>
 7    1  0.5992960E-013  0.5052885E+02  0.7816164E-02  0.1300439E+00
        -11   -1    0    0    0    0  0.00000000000E+00  0.00000000000E+00  0.45593999997E+02  0.45594000000E+02  0.51100000000E-03 0. -1.
         11   -1    0    0    0    0 -0.00000000000E+00 -0.00000000000E+00 -0.45593999997E+02  0.45594000000E+02  0.51100000000E-03 0.  1.
    9900012    2    1    2    0    0 -0.36442102453E+02  0.53223750725E+01  0.17228224182E+02  0.50528853229E+02  0.29999979876E+02 0.  0.
        -12    1    1    2    0    0  0.36442102453E+02 -0.53223750725E+01 -0.17228224182E+02  0.40659146771E+02  0.00000000000E+00 0.  1.
         11    1    3    3    0    0 -0.13094390948E+02  0.29698889050E+01  0.53249503406E+01  0.14444321057E+02  0.51100000000E-03 0. -1.
        -11    1    3    3    0    0 -0.14185364066E+02  0.13089613505E+02  0.10301659981E+02  0.21878910714E+02  0.51100000000E-03 0.  1.
        -12    1    3    3    0    0 -0.91623474396E+01 -0.10737127338E+02  0.16016138608E+01  0.14205621459E+02  0.00000000000E+00 0.  1.
</event>
<event>
 7    1  0.5992960E-013  0.5052886E+02  0.7816164E-02  0.1300439E+00
        -11   -1    0    0    0    0  0.00000000000E+00  0.00000000000E+00  0.45593999997E+02  0.45594000000E+02  0.51100000000E-03 0.  1.
         11   -1    0    0    0    0 -0.00000000000E+00 -0.00000000000E+00 -0.45593999997E+02  0.45594000000E+02  0.51100000000E-03 0. -1.
    9900012    2    1    2    0    0 -0.66766479201E+01  0.20455172884E+02 -0.34498894676E+02  0.50528862540E+02  0.30000008176E+02 0.  0.
        -12    1    1    2    0    0  0.66766479201E+01 -0.20455172884E+02  0.34498894676E+02  0.40659137460E+02  0.00000000000E+00 0.  1.
         11    1    3    3    0    0 -0.35844936156E+01  0.96023393746E+00 -0.50141400142E+01  0.62379679414E+01  0.51100000000E-03 0. -1.
        -11    1    3    3    0    0 -0.14553174530E+02  0.11606676545E+02 -0.12924444622E+02  0.22661665834E+02  0.51100000000E-03 0.  1.
         12    1    3    3    0    0  0.11461020226E+02  0.78882624015E+01 -0.16560310039E+02  0.21629228764E+02  0.00000000000E+00 0. -1.
</event>
<event>
 7    1  0.5992960E-013  0.5052883E+02  0.7816164E-02  0.1300439E+00
        -11   -1    0    0    0    0  0.00000000000E+00  0.00000000000E+00  0.45593999997E+02  0.45594000000E+02  0.51100000000E-03 0.  1.
         11   -1    0    0    0    0 -0.00000000000E+00 -0.00000000000E+00 -0.45593999997E+02  0.45594000000E+02  0.51100000000E-03 0. -1.
    9900012    2    1    2    0    0 -0.27159524356E+01  0.28368068586E+02 -0.29000763599E+02  0.50528831265E+02  0.29999913113E+02 0.  0.
        -12    1    1    2    0    0  0.27159524356E+01 -0.28368068586E+02  0.29000763599E+02  0.40659168735E+02  0.00000000000E+00 0.  1.
         11    1    3    3    0    0 -0.36085270685E+01  0.74341095283E+00  0.25838427544E+01  0.45000412319E+01  0.51100000000E-03 0. -1.
        -11    1    3    3    0    0 -0.40425830883E+00  0.32620221077E+01 -0.17607229416E+02  0.17911413707E+02  0.51100000000E-03 0.  1.
         12    1    3    3    0    0  0.12968329417E+01  0.24362635525E+02 -0.13977376936E+02  0.28117376326E+02  0.00000000000E+00 0. -1.
</event>
<event>
 7    1  0.5992960E-013  0.5052886E+02  0.7816164E-02  0.1300439E+00
        -11   -1    0    0    0    0  0.00000000000E+00  0.00000000000E+00  0.45593999997E+02  0.45594000000E+02  0.51100000000E-03 0. -1.
         11   -1    0    0    0    0 -0.00000000000E+00 -0.00000000000E+00 -0.45593999997E+02  0.45594000000E+02  0.51100000000E-03 0.  1.
    9900012    2    1    2    0    0  0.34984393977E+02  0.11086814908E+02  0.17502572782E+02  0.50528863994E+02  0.30000012597E+02 0.  0.
        -12    1    1    2    0    0 -0.34984393977E+02 -0.11086814908E+02 -0.17502572782E+02  0.40659136006E+02  0.00000000000E+00 0.  1.
         11    1    3    3    0    0 -0.12112612538E+01  0.41118881184E+01  0.23266635240E+01  0.48773088008E+01  0.51100000000E-03 0. -1.
        -11    1    3    3    0    0 -0.27189618888E+01  0.23435995281E+01  0.28066929247E+01  0.45566147451E+01  0.51100000000E-03 0.  1.
         12    1    3    3    0    0  0.38914617120E+02  0.46313272610E+01  0.12369216333E+02  0.41094940449E+02  0.00000000000E+00 0. -1.
</event>
<event>
 7    1  0.5992960E-013  0.5052886E+02  0.7816164E-02  0.1300439E+00
        -11   -1    0    0    0    0  0.00000000000E+00  0.00000000000E+00  0.45593999997E+02  0.45594000000E+02  0.51100000000E-03 0.  1.
         11   -1    0    0    0    0 -0.00000000000E+00 -0.00000000000E+00 -0.45593999997E+02  0.45594000000E+02  0.51100000000E-03 0. -1.
    9900012    2    1    2    0    0  0.10155950957E+02 -0.39292823666E+02 -0.24690486867E+01  0.50528861631E+02  0.30000005413E+02 0.  0.
        -12    1    1    2    0    0 -0.10155950957E+02  0.39292823666E+02  0.24690486867E+01  0.40659138369E+02  0.00000000000E+00 0.  1.
         11    1    3    3    0    0  0.14385496608E+02 -0.27902366256E+02 -0.52427808477E+00  0.31396805938E+02  0.51100000000E-03 0. -1.
        -11    1    3    3    0    0  0.74500932234E+00 -0.12313563925E+02  0.22746614179E+01  0.12544041623E+02  0.51100000000E-03 0.  1.
         12    1    3    3    0    0 -0.49745549729E+01  0.92310651412E+00 -0.42194320198E+01  0.65880140699E+01  0.00000000000E+00 0. -1.
</event>
<event>
 7    1  0.5992960E-013  0.5052887E+02  0.7816164E-02  0.1300439E+00
        -11   -1    0    0    0    0  0.00000000000E+00  0.00000000000E+00  0.45593999997E+02  0.45594000000E+02  0.51100000000E-03 0. -1.
         11   -1    0    0    0    0 -0.00000000000E+00 -0.00000000000E+00 -0.45593999997E+02  0.45594000000E+02  0.51100000000E-03 0.  1.
    9900012    2    1    2    0    0  0.81459946939E+01  0.10987165956E+02  0.38289547479E+02  0.50528874439E+02  0.30000044343E+02 0.  0.
        -12    1    1    2    0    0 -0.81459946939E+01 -0.10987165956E+02 -0.38289547479E+02  0.40659125561E+02  0.00000000000E+00 0.  1.
         11    1    3    3    0    0  0.90863562895E+00  0.65956007673E+01  0.16767511938E+01  0.68657893221E+01  0.51100000000E-03 0. -1.
        -11    1    3    3    0    0 -0.57923850238E+01  0.40849683000E+01  0.31588650802E+01  0.77599690162E+01  0.51100000000E-03 0.  1.
        -12    1    3    3    0    0  0.13029744089E+02  0.30659688916E+00  0.33453931205E+02  0.35903116100E+02  0.00000000000E+00 0.  1.
</event>
<event>
 7    1  0.5992960E-013  0.5052886E+02  0.7816164E-02  0.1300439E+00
        -11   -1    0    0    0    0  0.00000000000E+00  0.00000000000E+00  0.45593999997E+02  0.45594000000E+02  0.51100000000E-03 0. -1.
         11   -1    0    0    0    0 -0.00000000000E+00 -0.00000000000E+00 -0.45593999997E+02  0.45594000000E+02  0.51100000000E-03 0.  1.
    9900012    2    1    2    0    0  0.12932379661E+02 -0.16682401015E+02  0.34750780405E+02  0.50528859748E+02  0.29999999689E+02 0.  0.
        -12    1    1    2    0    0 -0.12932379661E+02  0.16682401015E+02 -0.34750780405E+02  0.40659140252E+02  0.00000000000E+00 0.  1.
         11    1    3    3    0    0  0.12844570178E+02 -0.18768813983E+02  0.20555173863E+02  0.30655611789E+02  0.51100000000E-03 0. -1.
        -11    1    3    3    0    0 -0.59650922165E+01  0.67678553170E-01  0.23367952102E+01  0.64068336683E+01  0.51100000000E-03 0.  1.
        -12    1    3    3    0    0  0.60529017000E+01  0.20187344150E+01  0.11858811332E+02  0.13466414290E+02  0.00000000000E+00 0.  1.
</event>
<event>
 7    1  0.5992960E-013  0.5052886E+02  0.7816164E-02  0.1300439E+00
        -11   -1    0    0    0    0  0.00000000000E+00  0.00000000000E+00  0.45593999997E+02  0.45594000000E+02  0.51100000000E-03 0.  1.
         11   -1    0    0    0    0 -0.00000000000E+00 -0.00000000000E+00 -0.45593999997E+02  0.45594000000E+02  0.51100000000E-03 0. -1.
    9900012    2    1    2    0    0  0.10394584744E+02 -0.12284450649E+02 -0.37339124105E+02  0.50528864389E+02  0.30000013796E+02 0.  0.
        -12    1    1    2    0    0 -0.10394584744E+02  0.12284450649E+02  0.37339124105E+02  0.40659135611E+02  0.00000000000E+00 0.  1.
         11    1    3    3    0    0  0.14340745313E+02 -0.11383203163E+02 -0.14441236129E+02  0.23319167900E+02  0.51100000000E-03 0. -1.
        -11    1    3    3    0    0  0.17152895124E+01 -0.55535954418E+01 -0.43295180650E+01  0.72477146315E+01  0.51100000000E-03 0.  1.
        -12    1    3    3    0    0 -0.56614500808E+01  0.46523479557E+01 -0.18568369911E+02  0.19961981857E+02  0.00000000000E+00 0.  1.
</event>
<event>
 7    1  0.5992960E-013  0.5052881E+02  0.7816164E-02  0.1300439E+00
        -11   -1    0    0    0    0  0.00000000000E+00  0.00000000000E+00  0.45593999997E+02  0.45594000000E+02  0.51100000000E-03 0.  1.
         11   -1    0    0    0    0 -0.00000000000E+00 -0.00000000000E+00 -0.45593999997E+02  0.45594000000E+02  0.51100000000E-03 0. -1.
    9900012    2    1    2    0    0 -0.25237552759E+02 -0.13322264790E+02 -0.28961234443E+02  0.50528807818E+02  0.29999841843E+02 0.  0.
        -12    1    1    2    0    0  0.25237552759E+02  0.13322264790E+02  0.28961234443E+02  0.40659192182E+02  0.00000000000E+00 0.  1.
         11    1    3    3    0    0  0.18285228589E+01 -0.42002306502E+01 -0.12258630700E+02  0.13086613782E+02  0.51100000000E-03 0. -1.
        -11    1    3    3    0    0 -0.61402306681E+01 -0.10439222071E+02 -0.90621898143E+01  0.15126237953E+02  0.51100000000E-03 0.  1.
        -12    1    3    3    0    0 -0.20925844950E+02  0.13171879308E+01 -0.76404139285E+01  0.22315956084E+02  0.00000000000E+00 0.  1.
</event>
<event>
 7    1  0.5992960E-013  0.5052885E+02  0.7816164E-02  0.1300439E+00
        -11   -1    0    0    0    0  0.00000000000E+00  0.00000000000E+00  0.45593999997E+02  0.45594000000E+02  0.51100000000E-03 0. -1.
         11   -1    0    0    0    0 -0.00000000000E+00 -0.00000000000E+00 -0.45593999997E+02  0.45594000000E+02  0.51100000000E-03 0.  1.
    9900012    2    1    2    0    0  0.21101216451E+02 -0.32919870929E+02  0.11143919050E+02  0.50528853803E+02  0.29999981618E+02 0.  0.
        -12    1    1    2    0    0 -0.21101216451E+02  0.32919870929E+02 -0.11143919050E+02  0.40659146197E+02  0.00000000000E+00 0.  1.
         11    1    3    3    0    0  0.10724033690E+02 -0.20949507888E+02  0.54428873313E+01  0.24155988949E+02  0.51100000000E-03 0.  1.
        -11    1    3    3    0    0  0.12599369102E+02 -0.15855099461E+02  0.74349757590E+01  0.21573297047E+02  0.51100000000E-03 0. -1.
        -12    1    3    3    0    0 -0.22221863406E+01  0.38847364209E+01 -0.17339440398E+01  0.47995678061E+01  0.00000000000E+00 0.  1.
</event>
<event>
 7    1  0.5992960E-013  0.5052886E+02  0.7816164E-02  0.1300439E+00
        -11   -1    0    0    0    0  0.00000000000E+00  0.00000000000E+00  0.45593999997E+02  0.45594000000E+02  0.51100000000E-03 0. -1.
         11   -1    0    0    0    0 -0.00000000000E+00 -0.00000000000E+00 -0.45593999997E+02  0.45594000000E+02  0.51100000000E-03 0.  1.
    9900012    2    1    2    0    0 -0.38712344993E+02 -0.56278463019E+01 -0.11083663309E+02  0.50528857102E+02  0.29999991647E+02 0.  0.
        -12    1    1    2    0    0  0.38712344993E+02  0.56278463019E+01  0.11083663309E+02  0.40659142898E+02  0.00000000000E+00 0.  1.
         11    1    3    3    0    0 -0.17982201862E+02  0.36040636942E+01 -0.13239123505E+01  0.18387539343E+02  0.51100000000E-03 0.  1.
        -11    1    3    3    0    0 -0.18594370059E+02 -0.53608606221E+01  0.21181313379E+01  0.19467303489E+02  0.51100000000E-03 0. -1.
        -12    1    3    3    0    0 -0.21357730718E+01 -0.38710493739E+01 -0.11877882296E+02  0.12674014270E+02  0.00000000000E+00 0.  1.
</event>
<event>
 7    1  0.5992960E-013  0.5052886E+02  0.7816164E-02  0.1300439E+00
        -11   -1    0    0    0    0  0.00000000000E+00  0.00000000000E+00  0.45593999997E+02  0.45594000000E+02  0.51100000000E-03 0.  1.
         11   -1    0    0    0    0 -0.00000000000E+00 -0.00000000000E+00 -0.45593999997E+02  0.45594000000E+02  0.51100000000E-03 0. -1.
    9900012    2    1    2    0    0 -0.24312866997E+02 -0.96211604720E+01 -0.31136528499E+02  0.50528860346E+02  0.30000001506E+02 0.  0.
        -12    1    1    2    0    0  0.24312866997E+02  0.96211604720E+01  0.31136528499E+02  0.40659139654E+02  0.00000000000E+00 0.  1.
         11    1    3    3    0    0 -0.11402642997E+02 -0.10793111725E+02 -0.11220173415E+02  0.19297767221E+02  0.51100000000E-03 0. -1.
        -11    1    3    3    0    0 -0.16728276215E+02 -0.27445405257E+01 -0.94156857333E+01  0.19391309030E+02  0.51100000000E-03 0.  1.
        -12    1    3    3    0    0  0.38180522140E+01  0.39164917789E+01 -0.10500669351E+02  0.11839784094E+02  0.00000000000E+00 0.  1.
</event>
<event>
 7    1  0.5992960E-013  0.5052885E+02  0.7816164E-02  0.1300439E+00
        -11   -1    0    0    0    0  0.00000000000E+00  0.00000000000E+00  0.45593999997E+02  0.45594000000E+02  0.51100000000E-03 0. -1.
         11   -1    0    0    0    0 -0.00000000000E+00 -0.00000000000E+00 -0.45593999997E+02  0.45594000000E+02  0.51100000000E-03 0.  1.
    9900012    2    1    2    0    0 -0.26402551245E+02 -0.27165423899E+02  0.14768593290E+02  0.50528852006E+02  0.29999976157E+02 0.  0.
        -12    1    1    2    0    0  0.26402551245E+02  0.27165423899E+02 -0.14768593290E+02  0.40659147994E+02  0.00000000000E+00 0.  1.
         11    1    3    3    0    0  0.19955245376E+01 -0.76364653486E+01  0.34707585900E+01  0.86222901048E+01  0.51100000000E-03 0. -1.
        -11    1    3    3    0    0 -0.23982934003E+00  0.37594813758E+01  0.47745382937E+00  0.37972596366E+01  0.51100000000E-03 0.  1.
         12    1    3    3    0    0 -0.28158246443E+02 -0.23288439926E+02  0.10820380870E+02  0.38109302265E+02  0.00000000000E+00 0. -1.
</event>
<event>
 7    1  0.5992960E-013  0.5052886E+02  0.7816164E-02  0.1300439E+00
        -11   -1    0    0    0    0  0.00000000000E+00  0.00000000000E+00  0.45593999997E+02  0.45594000000E+02  0.51100000000E-03 0.  1.
         11   -1    0    0    0    0 -0.00000000000E+00 -0.00000000000E+00 -0.45593999997E+02  0.45594000000E+02  0.51100000000E-03 0. -1.
    9900012    2    1    2    0    0 -0.32052166148E+02 -0.20637822459E+02 -0.14138766051E+02  0.50528858640E+02  0.29999996323E+02 0.  0.
        -12    1    1    2    0    0  0.32052166148E+02  0.20637822459E+02  0.14138766051E+02  0.40659141360E+02  0.00000000000E+00 0.  1.
         11    1    3    3    0    0 -0.66040828054E+01 -0.38767467578E+01 -0.56874529913E+01  0.95388781790E+01  0.51100000000E-03 0. -1.
        -11    1    3    3    0    0  0.94464999461E+00 -0.10306489743E+02 -0.91442251272E+01  0.13810609975E+02  0.51100000000E-03 0.  1.
        -12    1    3    3    0    0 -0.26392733338E+02 -0.64545859585E+01  0.69291206756E+00  0.27179370487E+02  0.00000000000E+00 0.  1.
</event>
<event>
 7    1  0.5992960E-013  0.5052887E+02  0.7816164E-02  0.1300439E+00
        -11   -1    0    0    0    0  0.00000000000E+00  0.00000000000E+00  0.45593999997E+02  0.45594000000E+02  0.51100000000E-03 0.  1.
         11   -1    0    0    0    0 -0.00000000000E+00 -0.00000000000E+00 -0.45593999997E+02  0.45594000000E+02  0.51100000000E-03 0. -1.
    9900012    2    1    2    0    0 -0.19355591061E+01 -0.10717904723E+02 -0.39173272138E+02  0.50528866700E+02  0.30000020821E+02 0.  0.
        -12    1    1    2    0    0  0.19355591061E+01  0.10717904723E+02  0.39173272138E+02  0.40659133300E+02  0.00000000000E+00 0.  1.
         11    1    3    3    0    0  0.24782135321E+01 -0.72665881519E+00 -0.15380330454E+02  0.15595644921E+02  0.51100000000E-03 0. -1.
        -11    1    3    3    0    0  0.66233671479E+01 -0.71770794966E+01 -0.14753809791E+01  0.98770548126E+01  0.51100000000E-03 0.  1.
         12    1    3    3    0    0 -0.11037139786E+02 -0.28141664110E+01 -0.22317560705E+02  0.25056166967E+02  0.00000000000E+00 0. -1.
</event>
<event>
 7    1  0.7034152E-013  0.5052888E+02  0.7816164E-02  0.1300439E+00
        -11   -1    0    0    0    0  0.00000000000E+00  0.00000000000E+00  0.45593999997E+02  0.45594000000E+02  0.51100000000E-03 0. -1.
         11   -1    0    0    0    0 -0.00000000000E+00 -0.00000000000E+00 -0.45593999997E+02  0.45594000000E+02  0.51100000000E-03 0.  1.
    9900012    2    1    2    0    0 -0.36562541060E+02  0.13868299198E+02  0.11136192742E+02  0.50528881463E+02  0.30000065694E+02 0.  0.
        -12    1    1    2    0    0  0.36562541060E+02 -0.13868299198E+02 -0.11136192742E+02  0.40659118537E+02  0.00000000000E+00 0.  1.
         11    1    3    3    0    0 -0.12554194775E+02  0.12028726258E+02  0.77174009048E+01  0.19022521884E+02  0.51100000000E-03 0. -1.
        -11    1    3    3    0    0 -0.15338493262E+01  0.78278085267E+01 -0.13513583103E+00  0.79778156183E+01  0.51100000000E-03 0.  1.
         12    1    3    3    0    0 -0.22474496960E+02 -0.59882355871E+01  0.35539276682E+01  0.23528543960E+02  0.00000000000E+00 0. -1.
</event>
<event>
 7    1  0.5992960E-013  0.5052886E+02  0.7816164E-02  0.1300439E+00
        -11   -1    0    0    0    0  0.00000000000E+00  0.00000000000E+00  0.45593999997E+02  0.45594000000E+02  0.51100000000E-03 0.  1.
         11   -1    0    0    0    0 -0.00000000000E+00 -0.00000000000E+00 -0.45593999997E+02  0.45594000000E+02  0.51100000000E-03 0. -1.
    9900012    2    1    2    0    0  0.17943214269E+02 -0.96226765955E+01 -0.35193899141E+02  0.50528863513E+02  0.30000011134E+02 0.  0.
        -12    1    1    2    0    0 -0.17943214269E+02  0.96226765955E+01  0.35193899141E+02  0.40659136487E+02  0.00000000000E+00 0.  1.
         11    1    3    3    0    0  0.75064746207E+01  0.57120839299E+00 -0.12421612838E+02  0.14524803132E+02  0.51100000000E-03 0. -1.
        -11    1    3    3    0    0  0.41625520183E+01 -0.88729361967E+00 -0.24305953881E+02  0.24675767943E+02  0.51100000000E-03 0.  1.
        -12    1    3    3    0    0  0.62741876297E+01 -0.93065913688E+01  0.15336675782E+01  0.11328292438E+02  0.00000000000E+00 0.  1.
</event>
<event>
 7    1  0.5992960E-013  0.5052886E+02  0.7816164E-02  0.1300439E+00
        -11   -1    0    0    0    0  0.00000000000E+00  0.00000000000E+00  0.45593999997E+02  0.45594000000E+02  0.51100000000E-03 0.  1.
         11   -1    0    0    0    0 -0.00000000000E+00 -0.00000000000E+00 -0.45593999997E+02  0.45594000000E+02  0.51100000000E-03 0. -1.
    9900012    2    1    2    0    0 -0.11504947813E+02  0.19589274809E+02 -0.33720354252E+02  0.50528858315E+02  0.29999995334E+02 0.  0.
        -12    1    1    2    0    0  0.11504947813E+02 -0.19589274809E+02  0.33720354252E+02  0.40659141685E+02  0.00000000000E+00 0.  1.
         11    1    3    3    0    0 -0.28681048016E+01  0.77262670377E+01 -0.25130272890E+02  0.26447151893E+02  0.51100000000E-03 0. -1.
        -11    1    3    3    0    0 -0.16326112696E+01 -0.24532037799E+01 -0.75561343418E+01  0.81104127389E+01  0.51100000000E-03 0.  1.
        -12    1    3    3    0    0 -0.70042317414E+01  0.14316211551E+02 -0.10339470206E+01  0.15971293683E+02  0.00000000000E+00 0.  1.
</event>
<event>
 7    1  0.5992960E-013  0.5052893E+02  0.7816164E-02  0.1300439E+00
        -11   -1    0    0    0    0  0.00000000000E+00  0.00000000000E+00  0.45593999997E+02  0.45594000000E+02  0.51100000000E-03 0. -1.
         11   -1    0    0    0    0 -0.00000000000E+00 -0.00000000000E+00 -0.45593999997E+02  0.45594000000E+02  0.51100000000E-03 0.  1.
    9900012    2    1    2    0    0  0.69400145695E+01 -0.28584208664E+02  0.28070254248E+02  0.50528930154E+02  0.30000213697E+02 0.  0.
        -12    1    1    2    0    0 -0.69400145695E+01  0.28584208664E+02 -0.28070254248E+02  0.40659069846E+02  0.00000000000E+00 0.  1.
         11    1    3    3    0    0  0.31267655845E+01 -0.36211637421E+01  0.11678419189E+02  0.12620418570E+02  0.51100000000E-03 0.  1.
        -11    1    3    3    0    0  0.29575686937E+01  0.35242894801E+01  0.60264088087E+01  0.75819148181E+01  0.51100000000E-03 0. -1.
         12    1    3    3    0    0  0.85568029128E+00 -0.28487334402E+02  0.10365426250E+02  0.30326596766E+02  0.00000000000E+00 0. -1.
</event>
<event>
 7    1  0.5992960E-013  0.5052884E+02  0.7816164E-02  0.1300439E+00
        -11   -1    0    0    0    0  0.00000000000E+00  0.00000000000E+00  0.45593999997E+02  0.45594000000E+02  0.51100000000E-03 0.  1.
         11   -1    0    0    0    0 -0.00000000000E+00 -0.00000000000E+00 -0.45593999997E+02  0.45594000000E+02  0.51100000000E-03 0. -1.
    9900012    2    1    2    0    0  0.25201588180E+02 -0.28191281806E+02 -0.14943187240E+02  0.50528840373E+02  0.29999940799E+02 0.  0.
        -12    1    1    2    0    0 -0.25201588180E+02  0.28191281806E+02  0.14943187240E+02  0.40659159627E+02  0.00000000000E+00 0.  1.
         11    1    3    3    0    0  0.75723497854E+01  0.12415256155E+01  0.43944949495E+00  0.76860251916E+01  0.51100000000E-03 0.  1.
        -11    1    3    3    0    0  0.12814560658E+02 -0.45859855873E+01 -0.80156948010E+00  0.13634028845E+02  0.51100000000E-03 0. -1.
         12    1    3    3    0    0  0.48146777364E+01 -0.24846821834E+02 -0.14581067255E+02  0.29208786337E+02  0.00000000000E+00 0. -1.
</event>
<event>
 7    1  0.5992960E-013  0.5052887E+02  0.7816164E-02  0.1300439E+00
        -11   -1    0    0    0    0  0.00000000000E+00  0.00000000000E+00  0.45593999997E+02  0.45594000000E+02  0.51100000000E-03 0. -1.
         11   -1    0    0    0    0 -0.00000000000E+00 -0.00000000000E+00 -0.45593999997E+02  0.45594000000E+02  0.51100000000E-03 0.  1.
    9900012    2    1    2    0    0  0.28539767713E+02 -0.13258070856E+02  0.25746271069E+02  0.50528865013E+02  0.30000015694E+02 0.  0.
        -12    1    1    2    0    0 -0.28539767713E+02  0.13258070856E+02 -0.25746271069E+02  0.40659134987E+02  0.00000000000E+00 0.  1.
         11    1    3    3    0    0  0.62085295436E+01  0.92518338975E-01  0.15533872362E+02  0.16728884887E+02  0.51100000000E-03 0. -1.
        -11    1    3    3    0    0  0.14814206789E+02  0.19442641594E+01  0.27350081143E+01  0.15189508075E+02  0.51100000000E-03 0.  1.
         12    1    3    3    0    0  0.75170313796E+01 -0.15294853354E+02  0.74773905931E+01  0.18610472051E+02  0.00000000000E+00 0. -1.
</event>
<event>
 7    1  0.5992960E-013  0.5052894E+02  0.7816164E-02  0.1300439E+00
        -11   -1    0    0    0    0  0.00000000000E+00  0.00000000000E+00  0.45593999997E+02  0.45594000000E+02  0.51100000000E-03 0. -1.
         11   -1    0    0    0    0 -0.00000000000E+00 -0.00000000000E+00 -0.45593999997E+02  0.45594000000E+02  0.51100000000E-03 0.  1.
    9900012    2    1    2    0    0  0.24809806207E+01  0.38757317068E+02  0.12036370105E+02  0.50528940783E+02  0.30000246002E+02 0.  0.
        -12    1    1    2    0    0 -0.24809806207E+01 -0.38757317068E+02 -0.12036370105E+02  0.40659059217E+02  0.00000000000E+00 0.  1.
         11    1    3    3    0    0  0.18917406818E+01  0.56325040667E+01 -0.77226988572E+01  0.97439141400E+01  0.51100000000E-03 0. -1.
        -11    1    3    3    0    0  0.18288329953E+00  0.16254343535E+01  0.63337637619E+01  0.65415630236E+01  0.51100000000E-03 0.  1.
         12    1    3    3    0    0  0.40635663936E+00  0.31499378648E+02  0.13425305200E+02  0.34243463619E+02  0.00000000000E+00 0. -1.
</event>
<event>
 7    1  0.5992960E-013  0.5052886E+02  0.7816164E-02  0.1300439E+00
        -11   -1    0    0    0    0  0.00000000000E+00  0.00000000000E+00  0.45593999997E+02  0.45594000000E+02  0.51100000000E-03 0.  1.
         11   -1    0    0    0    0 -0.00000000000E+00 -0.00000000000E+00 -0.45593999997E+02  0.45594000000E+02  0.51100000000E-03 0. -1.
    9900012    2    1    2    0    0  0.54671023526E+01  0.18741654153E+02 -0.35665487881E+02  0.50528857925E+02  0.29999994148E+02 0.  0.
        -12    1    1    2    0    0 -0.54671023526E+01 -0.18741654153E+02  0.35665487881E+02  0.40659142075E+02  0.00000000000E+00 0.  1.
         11    1    3    3    0    0 -0.62308894102E+01  0.72096648107E+01 -0.15246611578E+02  0.17979499837E+02  0.51100000000E-03 0. -1.
        -11    1    3    3    0    0 -0.29548442712E+01 -0.17118942046E+00  0.18080332755E+01  0.34683418331E+01  0.51100000000E-03 0.  1.
         12    1    3    3    0    0  0.14652836034E+02  0.11703178763E+02 -0.22226909579E+02  0.29081016255E+02  0.00000000000E+00 0. -1.
</event>
<event>
 7    1  0.5992960E-013  0.5052886E+02  0.7816164E-02  0.1300439E+00
        -11   -1    0    0    0    0  0.00000000000E+00  0.00000000000E+00  0.45593999997E+02  0.45594000000E+02  0.51100000000E-03 0.  1.
         11   -1    0    0    0    0 -0.00000000000E+00 -0.00000000000E+00 -0.45593999997E+02  0.45594000000E+02  0.51100000000E-03 0. -1.
    9900012    2    1    2    0    0  0.87324139638E+01 -0.36957130361E+02 -0.14528643933E+02  0.50528855485E+02  0.29999986732E+02 0.  0.
        -12    1    1    2    0    0 -0.87324139638E+01  0.36957130361E+02  0.14528643933E+02  0.40659144515E+02  0.00000000000E+00 0.  1.
         11    1    3    3    0    0 -0.22508857555E+01 -0.11239339360E+02 -0.11234696332E+02  0.16050160058E+02  0.51100000000E-03 0. -1.
        -11    1    3    3    0    0 -0.27558834819E+01 -0.10326199040E+02 -0.79597373439E+01  0.13326015880E+02  0.51100000000E-03 0.  1.
        -12    1    3    3    0    0  0.13739183201E+02 -0.15391591960E+02  0.46657897431E+01  0.21152679547E+02  0.00000000000E+00 0.  1.
</event>
<event>
 7    1  0.5992960E-013  0.5052886E+02  0.7816164E-02  0.1300439E+00
        -11   -1    0    0    0    0  0.00000000000E+00  0.00000000000E+00  0.45593999997E+02  0.45594000000E+02  0.51100000000E-03 0. -1.
         11   -1    0    0    0    0 -0.00000000000E+00 -0.00000000000E+00 -0.45593999997E+02  0.45594000000E+02  0.51100000000E-03 0.  1.
    9900012    2    1    2    0    0 -0.26856439182E+02  0.28324925390E+02 -0.11384019280E+02  0.50528860574E+02  0.30000002200E+02 0.  0.
        -12    1    1    2    0    0  0.26856439182E+02 -0.28324925390E+02  0.11384019280E+02  0.40659139426E+02  0.00000000000E+00 0.  1.
         11    1    3    3    0    0 -0.28389442225E+01  0.15556111531E+02 -0.35125021216E+01  0.16198453065E+02  0.51100000000E-03 0. -1.
        -11    1    3    3    0    0  0.26942326621E+01  0.14370623898E+01 -0.40376474359E+01  0.50622756768E+01  0.51100000000E-03 0.  1.
        -12    1    3    3    0    0 -0.26711727622E+02  0.11331751469E+02 -0.38338697228E+01  0.29268131832E+02  0.00000000000E+00 0.  1.
</event>
<event>
 7    1  0.5992960E-013  0.5052886E+02  0.7816164E-02  0.1300439E+00
        -11   -1    0    0    0    0  0.00000000000E+00  0.00000000000E+00  0.45593999997E+02  0.45594000000E+02  0.51100000000E-03 0.  1.
         11   -1    0    0    0    0 -0.00000000000E+00 -0.00000000000E+00 -0.45593999997E+02  0.45594000000E+02  0.51100000000E-03 0. -1.
    9900012    2    1    2    0    0  0.31825232914E+02  0.21858423813E+02 -0.12748692479E+02  0.50528864476E+02  0.30000014062E+02 0.  0.
        -12    1    1    2    0    0 -0.31825232914E+02 -0.21858423813E+02  0.12748692479E+02  0.40659135524E+02  0.00000000000E+00 0.  1.
         11    1    3    3    0    0  0.41162996225E+01  0.75746068133E+01  0.13866724649E+01  0.87316351129E+01  0.51100000000E-03 0. -1.
        -11    1    3    3    0    0 -0.34183307508E+01  0.62816399322E+01 -0.18234790970E+01  0.73803158223E+01  0.51100000000E-03 0.  1.
         12    1    3    3    0    0  0.31127264042E+02  0.80021770677E+01 -0.12311885847E+02  0.34416913541E+02  0.00000000000E+00 0. -1.
</event>
<event>
 7    1  0.5992960E-013  0.5052887E+02  0.7816164E-02  0.1300439E+00
        -11   -1    0    0    0    0  0.00000000000E+00  0.00000000000E+00  0.45593999997E+02  0.45594000000E+02  0.51100000000E-03 0.  1.
         11   -1    0    0    0    0 -0.00000000000E+00 -0.00000000000E+00 -0.45593999997E+02  0.45594000000E+02  0.51100000000E-03 0. -1.
    9900012    2    1    2    0    0 -0.26706501061E+02  0.42280695955E+01 -0.30365298298E+02  0.50528866805E+02  0.30000021140E+02 0.  0.
        -12    1    1    2    0    0  0.26706501061E+02 -0.42280695955E+01  0.30365298298E+02  0.40659133195E+02  0.00000000000E+00 0.  1.
         11    1    3    3    0    0 -0.69029733399E+01  0.17382024399E+01 -0.40626256714E+01  0.81961769295E+01  0.51100000000E-03 0. -1.
        -11    1    3    3    0    0 -0.15937906993E+02 -0.10765197057E+02 -0.17137321401E+02  0.25760320884E+02  0.51100000000E-03 0.  1.
        -12    1    3    3    0    0 -0.38656207285E+01  0.13255064212E+02 -0.91653512257E+01  0.16572368991E+02  0.00000000000E+00 0.  1.
</event>
<event>
 7    1  0.5992960E-013  0.5052886E+02  0.7816164E-02  0.1300439E+00
        -11   -1    0    0    0    0  0.00000000000E+00  0.00000000000E+00  0.45593999997E+02  0.45594000000E+02  0.51100000000E-03 0.  1.
         11   -1    0    0    0    0 -0.00000000000E+00 -0.00000000000E+00 -0.45593999997E+02  0.45594000000E+02  0.51100000000E-03 0. -1.
    9900012    2    1    2    0    0  0.39596406871E+01  0.15689724741E+02 -0.37300394069E+02  0.50528860628E+02  0.30000002364E+02 0.  0.
        -12    1    1    2    0    0 -0.39596406871E+01 -0.15689724741E+02  0.37300394069E+02  0.40659139372E+02  0.00000000000E+00 0.  1.
         11    1    3    3    0    0  0.10384132021E+01 -0.21315771617E+01 -0.59281653103E-01  0.23718005291E+01  0.51100000000E-03 0. -1.
        -11    1    3    3    0    0  0.63459627377E+01  0.44069792112E+01  0.71085125739E+00  0.77587382097E+01  0.51100000000E-03 0.  1.
         12    1    3    3    0    0 -0.34247352527E+01  0.13414322691E+02 -0.37951963673E+02  0.40398321889E+02  0.00000000000E+00 0. -1.
</event>
<event>
 7    1  0.5992960E-013  0.5052890E+02  0.7816164E-02  0.1300439E+00
        -11   -1    0    0    0    0  0.00000000000E+00  0.00000000000E+00  0.45593999997E+02  0.45594000000E+02  0.51100000000E-03 0.  1.
         11   -1    0    0    0    0 -0.00000000000E+00 -0.00000000000E+00 -0.45593999997E+02  0.45594000000E+02  0.51100000000E-03 0. -1.
    9900012    2    1    2    0    0 -0.23091784107E+02 -0.71627413527E+00 -0.33457716052E+02  0.50528901322E+02  0.30000126058E+02 0.  0.
        -12    1    1    2    0    0  0.23091784107E+02  0.71627413527E+00  0.33457716052E+02  0.40659098678E+02  0.00000000000E+00 0.  1.
         11    1    3    3    0    0 -0.21672754019E+01  0.39514999117E+01 -0.15559034223E+01  0.47678370296E+01  0.51100000000E-03 0. -1.
        -11    1    3    3    0    0 -0.17899921899E+02  0.80501864165E+01 -0.20946780265E+02  0.28705057204E+02  0.51100000000E-03 0.  1.
        -12    1    3    3    0    0 -0.30245868056E+01 -0.12717960463E+02 -0.10955032365E+02  0.17056007089E+02  0.00000000000E+00 0.  1.
</event>
<event>
 7    1  0.5992960E-013  0.5052886E+02  0.7816164E-02  0.1300439E+00
        -11   -1    0    0    0    0  0.00000000000E+00  0.00000000000E+00  0.45593999997E+02  0.45594000000E+02  0.51100000000E-03 0.  1.
         11   -1    0    0    0    0 -0.00000000000E+00 -0.00000000000E+00 -0.45593999997E+02  0.45594000000E+02  0.51100000000E-03 0. -1.
    9900012    2    1    2    0    0  0.19135244039E+02  0.34338498738E+02 -0.10386337634E+02  0.50528855033E+02  0.29999985358E+02 0.  0.
        -12    1    1    2    0    0 -0.19135244039E+02 -0.34338498738E+02  0.10386337634E+02  0.40659144967E+02  0.00000000000E+00 0.  1.
         11    1    3    3    0    0 -0.42095465430E+00  0.70309410504E+01 -0.88850527900E+01  0.11338231706E+02  0.51100000000E-03 0. -1.
        -11    1    3    3    0    0  0.10030388247E+02  0.19240659359E+02 -0.10199975167E+02  0.23976053775E+02  0.51100000000E-03 0.  1.
        -12    1    3    3    0    0  0.95258104466E+01  0.80668983287E+01  0.86986903233E+01  0.15214569552E+02  0.00000000000E+00 0.  1.
</event>
<event>
 7    1  0.5992960E-013  0.5052885E+02  0.7816164E-02  0.1300439E+00
        -11   -1    0    0    0    0  0.00000000000E+00  0.00000000000E+00  0.45593999997E+02  0.45594000000E+02  0.51100000000E-03 0.  1.
         11   -1    0    0    0    0 -0.00000000000E+00 -0.00000000000E+00 -0.45593999997E+02  0.45594000000E+02  0.51100000000E-03 0. -1.
    9900012    2    1    2    0    0  0.35382897483E+02 -0.12103218623E+02 -0.15960229738E+02  0.50528852584E+02  0.29999977914E+02 0.  0.
        -12    1    1    2    0    0 -0.35382897483E+02  0.12103218623E+02  0.15960229738E+02  0.40659147416E+02  0.00000000000E+00 0.  1.
         11    1    3    3    0    0  0.16392559405E+01  0.18723730013E+01 -0.51533486562E+01  0.57227566197E+01  0.51100000000E-03 0. -1.
        -11    1    3    3    0    0 -0.33046615971E+01  0.29941408277E+00 -0.27131469980E+01  0.42862109093E+01  0.51100000000E-03 0.  1.
        -12    1    3    3    0    0  0.37048303140E+02 -0.14275005707E+02 -0.80937340833E+01  0.40519885055E+02  0.00000000000E+00 0.  1.
</event>
<event>
 7    1  0.5992960E-013  0.5052887E+02  0.7816164E-02  0.1300439E+00
        -11   -1    0    0    0    0  0.00000000000E+00  0.00000000000E+00  0.45593999997E+02  0.45594000000E+02  0.51100000000E-03 0. -1.
         11   -1    0    0    0    0 -0.00000000000E+00 -0.00000000000E+00 -0.45593999997E+02  0.45594000000E+02  0.51100000000E-03 0.  1.
    9900012    2    1    2    0    0  0.36147784216E+02 -0.18508860661E+02 -0.19811350395E+01  0.50528866674E+02  0.30000020744E+02 0.  0.
        -12    1    1    2    0    0 -0.36147784216E+02  0.18508860661E+02  0.19811350395E+01  0.40659133326E+02  0.00000000000E+00 0.  1.
         11    1    3    3    0    0  0.21810943722E+02 -0.38604156085E+01  0.45007474323E+01  0.22602583977E+02  0.51100000000E-03 0. -1.
        -11    1    3    3    0    0  0.43719163637E+01 -0.32335744596E+01  0.61426461855E+01  0.82037649221E+01  0.51100000000E-03 0.  1.
        -12    1    3    3    0    0  0.99649241309E+01 -0.11414870593E+02 -0.12624528657E+02  0.19722517776E+02  0.00000000000E+00 0.  1.
</event>
<event>
 7    1  0.5992960E-013  0.5052881E+02  0.7816164E-02  0.1300439E+00
        -11   -1    0    0    0    0  0.00000000000E+00  0.00000000000E+00  0.45593999997E+02  0.45594000000E+02  0.51100000000E-03 0.  1.
         11   -1    0    0    0    0 -0.00000000000E+00 -0.00000000000E+00 -0.45593999997E+02  0.45594000000E+02  0.51100000000E-03 0. -1.
    9900012    2    1    2    0    0 -0.10068210962E+02 -0.64947694913E+01 -0.38853811115E+02  0.50528812344E+02  0.29999855600E+02 0.  0.
        -12    1    1    2    0    0  0.10068210962E+02  0.64947694913E+01  0.38853811115E+02  0.40659187656E+02  0.00000000000E+00 0.  1.
         11    1    3    3    0    0 -0.62452580722E+01 -0.62724917468E+01 -0.15329469025E+02  0.17701412993E+02  0.51100000000E-03 0. -1.
        -11    1    3    3    0    0 -0.82915556481E+01  0.99964405785E+00 -0.26185314002E+02  0.27484902273E+02  0.51100000000E-03 0.  1.
        -12    1    3    3    0    0  0.44686027588E+01 -0.12219218023E+01  0.26609719122E+01  0.53424970776E+01  0.00000000000E+00 0.  1.
</event>
<event>
 7    1  0.5992960E-013  0.5052886E+02  0.7816164E-02  0.1300439E+00
        -11   -1    0    0    0    0  0.00000000000E+00  0.00000000000E+00  0.45593999997E+02  0.45594000000E+02  0.51100000000E-03 0. -1.
         11   -1    0    0    0    0 -0.00000000000E+00 -0.00000000000E+00 -0.45593999997E+02  0.45594000000E+02  0.51100000000E-03 0.  1.
    9900012    2    1    2    0    0  0.17908814204E+02  0.17941452760E+02 -0.31789061530E+02  0.50528858515E+02  0.29999995943E+02 0.  0.
        -12    1    1    2    0    0 -0.17908814204E+02 -0.17941452760E+02  0.31789061530E+02  0.40659141485E+02  0.00000000000E+00 0.  1.
         11    1    3    3    0    0  0.10579329729E+00  0.51238082090E+01 -0.34423747624E+01  0.61736980044E+01  0.51100000000E-03 0.  1.
        -11    1    3    3    0    0 -0.40007310348E+01  0.87164013130E+01 -0.16798431466E+02  0.19343443350E+02  0.51100000000E-03 0. -1.
         12    1    3    3    0    0  0.21803751941E+02  0.41012432385E+01 -0.11548255302E+02  0.25011717161E+02  0.00000000000E+00 0. -1.
</event>
<event>
 7    1  0.5992960E-013  0.5052885E+02  0.7816164E-02  0.1300439E+00
        -11   -1    0    0    0    0  0.00000000000E+00  0.00000000000E+00  0.45593999997E+02  0.45594000000E+02  0.51100000000E-03 0. -1.
         11   -1    0    0    0    0 -0.00000000000E+00 -0.00000000000E+00 -0.45593999997E+02  0.45594000000E+02  0.51100000000E-03 0.  1.
    9900012    2    1    2    0    0 -0.61936824795E+01 -0.16904716873E+02  0.36455942243E+02  0.50528845065E+02  0.29999955059E+02 0.  0.
        -12    1    1    2    0    0  0.61936824795E+01  0.16904716873E+02 -0.36455942243E+02  0.40659154935E+02  0.00000000000E+00 0.  1.
         11    1    3    3    0    0  0.37276892478E+01  0.30653551863E+01  0.63006181837E+01  0.79366151037E+01  0.51100000000E-03 0. -1.
        -11    1    3    3    0    0 -0.13396940194E+02 -0.57208408560E+01  0.20041012516E+02  0.24775960316E+02  0.51100000000E-03 0.  1.
         12    1    3    3    0    0  0.34755684667E+01 -0.14249231204E+02  0.10114311544E+02  0.17816269645E+02  0.00000000000E+00 0. -1.
</event>
<event>
 7    1  0.5992960E-013  0.5052889E+02  0.7816164E-02  0.1300439E+00
        -11   -1    0    0    0    0  0.00000000000E+00  0.00000000000E+00  0.45593999997E+02  0.45594000000E+02  0.51100000000E-03 0.  1.
         11   -1    0    0    0    0 -0.00000000000E+00 -0.00000000000E+00 -0.45593999997E+02  0.45594000000E+02  0.51100000000E-03 0. -1.
    9900012    2    1    2    0    0 -0.10212117719E+02  0.23386728634E+02 -0.31653384632E+02  0.50528890527E+02  0.30000093245E+02 0.  0.
        -12    1    1    2    0    0  0.10212117719E+02 -0.23386728634E+02  0.31653384632E+02  0.40659109473E+02  0.00000000000E+00 0.  1.
         11    1    3    3    0    0 -0.28200422742E+01  0.41690562519E+01  0.18917135052E+01  0.53770111313E+01  0.51100000000E-03 0. -1.
        -11    1    3    3    0    0 -0.51978186606E+01 -0.21481577523E+01 -0.37697229917E+00  0.56368438805E+01  0.51100000000E-03 0.  1.
         12    1    3    3    0    0 -0.21942567837E+01  0.21365830134E+02 -0.33168125838E+02  0.39515035515E+02  0.00000000000E+00 0. -1.
</event>
<event>
 7    1  0.5992960E-013  0.5052886E+02  0.7816164E-02  0.1300439E+00
        -11   -1    0    0    0    0  0.00000000000E+00  0.00000000000E+00  0.45593999997E+02  0.45594000000E+02  0.51100000000E-03 0.  1.
         11   -1    0    0    0    0 -0.00000000000E+00 -0.00000000000E+00 -0.45593999997E+02  0.45594000000E+02  0.51100000000E-03 0. -1.
    9900012    2    1    2    0    0 -0.60611633691E+01  0.37645303841E+02 -0.14115913011E+02  0.50528860772E+02  0.30000002802E+02 0.  0.
        -12    1    1    2    0    0  0.60611633691E+01 -0.37645303841E+02  0.14115913011E+02  0.40659139228E+02  0.00000000000E+00 0.  1.
         11    1    3    3    0    0 -0.36313342307E+01  0.26804358421E+02 -0.14663603291E+02  0.30768189423E+02  0.51100000000E-03 0. -1.
        -11    1    3    3    0    0 -0.20188792816E+01 -0.44941499462E+00 -0.62446233539E+01  0.65782344503E+01  0.51100000000E-03 0.  1.
         12    1    3    3    0    0 -0.41094985692E+00  0.11290360415E+02  0.67923136338E+01  0.13182436898E+02  0.00000000000E+00 0. -1.
</event>
<event>
 7    1  0.5992960E-013  0.5052886E+02  0.7816164E-02  0.1300439E+00
        -11   -1    0    0    0    0  0.00000000000E+00  0.00000000000E+00  0.45593999997E+02  0.45594000000E+02  0.51100000000E-03 0.  1.
         11   -1    0    0    0    0 -0.00000000000E+00 -0.00000000000E+00 -0.45593999997E+02  0.45594000000E+02  0.51100000000E-03 0. -1.
    9900012    2    1    2    0    0 -0.96542466954E+01 -0.29536830929E+02 -0.26220929062E+02  0.50528856115E+02  0.29999988647E+02 0.  0.
        -12    1    1    2    0    0  0.96542466954E+01  0.29536830929E+02  0.26220929062E+02  0.40659143885E+02  0.00000000000E+00 0.  1.
         11    1    3    3    0    0 -0.90509360780E+00 -0.13005850071E+02  0.54717318114E+00  0.13048782673E+02  0.51100000000E-03 0. -1.
        -11    1    3    3    0    0 -0.66078599607E+01 -0.32722078218E+01  0.17425777934E+00  0.73757388324E+01  0.51100000000E-03 0.  1.
         12    1    3    3    0    0 -0.21412931269E+01 -0.13258773036E+02 -0.26942360023E+02  0.30104334609E+02  0.00000000000E+00 0. -1.
</event>
<event>
 7    1  0.5992960E-013  0.5052886E+02  0.7816164E-02  0.1300439E+00
        -11   -1    0    0    0    0  0.00000000000E+00  0.00000000000E+00  0.45593999997E+02  0.45594000000E+02  0.51100000000E-03 0.  1.
         11   -1    0    0    0    0 -0.00000000000E+00 -0.00000000000E+00 -0.45593999997E+02  0.45594000000E+02  0.51100000000E-03 0. -1.
    9900012    2    1    2    0    0 -0.27879156666E+02  0.22192675662E+02 -0.19580697289E+02  0.50528856677E+02  0.29999990355E+02 0.  0.
        -12    1    1    2    0    0  0.27879156666E+02 -0.22192675662E+02  0.19580697289E+02  0.40659143323E+02  0.00000000000E+00 0.  1.
         11    1    3    3    0    0 -0.77129485582E+01 -0.51001561322E+01 -0.52528668431E+01  0.10634555861E+02  0.51100000000E-03 0. -1.
        -11    1    3    3    0    0 -0.12302147457E+01  0.86095778505E+00  0.27753919658E+01  0.31555470926E+01  0.51100000000E-03 0.  1.
         12    1    3    3    0    0 -0.18935993362E+02  0.26431874010E+02 -0.17103222412E+02  0.36738753723E+02  0.00000000000E+00 0. -1.
</event>
<event>
 7    1  0.5992960E-013  0.5052886E+02  0.7816164E-02  0.1300439E+00
        -11   -1    0    0    0    0  0.00000000000E+00  0.00000000000E+00  0.45593999997E+02  0.45594000000E+02  0.51100000000E-03 0.  1.
         11   -1    0    0    0    0 -0.00000000000E+00 -0.00000000000E+00 -0.45593999997E+02  0.45594000000E+02  0.51100000000E-03 0. -1.
    9900012    2    1    2    0    0 -0.18912090863E+02 -0.27450405446E+00 -0.35991985416E+02  0.50528861452E+02  0.30000004871E+02 0.  0.
        -12    1    1    2    0    0  0.18912090863E+02  0.27450405446E+00  0.35991985416E+02  0.40659138548E+02  0.00000000000E+00 0.  1.
         11    1    3    3    0    0  0.32960516307E+01  0.16694166429E+00 -0.17807892255E+01  0.37500715190E+01  0.51100000000E-03 0. -1.
        -11    1    3    3    0    0  0.54684325525E+00 -0.74060999449E+01 -0.43911630278E+01  0.86273789147E+01  0.51100000000E-03 0.  1.
         12    1    3    3    0    0 -0.22754985749E+02  0.69646542262E+01 -0.29820033162E+02  0.38151411019E+02  0.00000000000E+00 0. -1.
</event>
<event>
 7    1  0.5992960E-013  0.5052886E+02  0.7816164E-02  0.1300439E+00
        -11   -1    0    0    0    0  0.00000000000E+00  0.00000000000E+00  0.45593999997E+02  0.45594000000E+02  0.51100000000E-03 0. -1.
         11   -1    0    0    0    0 -0.00000000000E+00 -0.00000000000E+00 -0.45593999997E+02  0.45594000000E+02  0.51100000000E-03 0.  1.
    9900012    2    1    2    0    0 -0.28698561267E+02 -0.11157261995E+02 -0.26553221553E+02  0.50528862173E+02  0.30000007060E+02 0.  0.
        -12    1    1    2    0    0  0.28698561267E+02  0.11157261995E+02  0.26553221553E+02  0.40659137827E+02  0.00000000000E+00 0.  1.
         11    1    3    3    0    0 -0.69070215763E+01 -0.68024135690E+00 -0.11625181559E+02  0.13539369332E+02  0.51100000000E-03 0. -1.
        -11    1    3    3    0    0 -0.33654969630E+00  0.60854318162E+01 -0.57351692475E+01  0.83688656726E+01  0.51100000000E-03 0.  1.
         12    1    3    3    0    0 -0.21454989994E+02 -0.16562452454E+02 -0.91928707466E+01  0.28620627168E+02  0.00000000000E+00 0. -1.
</event>
<event>
 7    1  0.5992960E-013  0.5052886E+02  0.7816164E-02  0.1300439E+00
        -11   -1    0    0    0    0  0.00000000000E+00  0.00000000000E+00  0.45593999997E+02  0.45594000000E+02  0.51100000000E-03 0. -1.
         11   -1    0    0    0    0 -0.00000000000E+00 -0.00000000000E+00 -0.45593999997E+02  0.45594000000E+02  0.51100000000E-03 0.  1.
    9900012    2    1    2    0    0  0.21986256233E+02  0.33231784945E+02  0.80881775294E+01  0.50528860689E+02  0.30000002550E+02 0.  0.
        -12    1    1    2    0    0 -0.21986256233E+02 -0.33231784945E+02 -0.80881775294E+01  0.40659139311E+02  0.00000000000E+00 0.  1.
         11    1    3    3    0    0 -0.55013660340E+00 -0.15023921029E+01  0.31076865320E+01  0.34953609479E+01  0.51100000000E-03 0. -1.
        -11    1    3    3    0    0  0.18678472426E+01 -0.29995473044E+01 -0.80112463328E+00  0.36232496867E+01  0.51100000000E-03 0.  1.
         12    1    3    3    0    0  0.20668545593E+02  0.37733724353E+02  0.57816156307E+01  0.43410250054E+02  0.00000000000E+00 0. -1.
</event>
<event>
 7    1  0.5992960E-013  0.5052886E+02  0.7816164E-02  0.1300439E+00
        -11   -1    0    0    0    0  0.00000000000E+00  0.00000000000E+00  0.45593999997E+02  0.45594000000E+02  0.51100000000E-03 0. -1.
         11   -1    0    0    0    0 -0.00000000000E+00 -0.00000000000E+00 -0.45593999997E+02  0.45594000000E+02  0.51100000000E-03 0.  1.
    9900012    2    1    2    0    0  0.31726797023E+02 -0.13460165915E+02  0.21573125541E+02  0.50528862510E+02  0.30000008086E+02 0.  0.
        -12    1    1    2    0    0 -0.31726797023E+02  0.13460165915E+02 -0.21573125541E+02  0.40659137490E+02  0.00000000000E+00 0.  1.
         11    1    3    3    0    0  0.20802182133E+01 -0.32868123539E+01 -0.93138159455E+00  0.39997393916E+01  0.51100000000E-03 0. -1.
        -11    1    3    3    0    0  0.16498320704E+02 -0.14597947880E+02  0.24799304718E+01  0.22168552586E+02  0.51100000000E-03 0.  1.
         12    1    3    3    0    0  0.13148258106E+02  0.44245943188E+01  0.20024576664E+02  0.24360570533E+02  0.00000000000E+00 0. -1.
</event>
<event>
 7    1  0.5992960E-013  0.5052886E+02  0.7816164E-02  0.1300439E+00
        -11   -1    0    0    0    0  0.00000000000E+00  0.00000000000E+00  0.45593999997E+02  0.45594000000E+02  0.51100000000E-03 0.  1.
         11   -1    0    0    0    0 -0.00000000000E+00 -0.00000000000E+00 -0.45593999997E+02  0.45594000000E+02  0.51100000000E-03 0. -1.
    9900012    2    1    2    0    0 -0.75813907986E+00  0.31884103084E+02 -0.25218933960E+02  0.50528862842E+02  0.30000009096E+02 0.  0.
        -12    1    1    2    0    0  0.75813907986E+00 -0.31884103084E+02  0.25218933960E+02  0.40659137158E+02  0.00000000000E+00 0.  1.
         11    1    3    3    0    0 -0.61018726383E+01  0.27050310710E+02 -0.18144827880E+02  0.33138903697E+02  0.51100000000E-03 0. -1.
        -11    1    3    3    0    0  0.32681788099E+01  0.71959483822E+01  0.16872351942E+01  0.80814249186E+01  0.51100000000E-03 0.  1.
         12    1    3    3    0    0  0.20755547485E+01 -0.23621560084E+01 -0.87613412748E+01  0.93085342270E+01  0.00000000000E+00 0. -1.
</event>
<event>
 7    1  0.5992960E-013  0.5052885E+02  0.7816164E-02  0.1300439E+00
        -11   -1    0    0    0    0  0.00000000000E+00  0.00000000000E+00  0.45593999997E+02  0.45594000000E+02  0.51100000000E-03 0.  1.
         11   -1    0    0    0    0 -0.00000000000E+00 -0.00000000000E+00 -0.45593999997E+02  0.45594000000E+02  0.51100000000E-03 0. -1.
    9900012    2    1    2    0    0  0.22950238300E+02  0.32748092912E+02 -0.73495013951E+01  0.50528853450E+02  0.29999980547E+02 0.  0.
        -12    1    1    2    0    0 -0.22950238300E+02 -0.32748092912E+02  0.73495013951E+01  0.40659146550E+02  0.00000000000E+00 0.  1.
         11    1    3    3    0    0  0.13491562683E+01  0.16606336654E+02 -0.12146292559E+02  0.20618512625E+02  0.51100000000E-03 0. -1.
        -11    1    3    3    0    0  0.13360590944E+02  0.25344788483E+01  0.17145744526E+01  0.13706521777E+02  0.51100000000E-03 0.  1.
        -12    1    3    3    0    0  0.82404910871E+01  0.13607277410E+02  0.30822167114E+01  0.16203819048E+02  0.00000000000E+00 0.  1.
</event>
<event>
 7    1  0.5992960E-013  0.5052886E+02  0.7816164E-02  0.1300439E+00
        -11   -1    0    0    0    0  0.00000000000E+00  0.00000000000E+00  0.45593999997E+02  0.45594000000E+02  0.51100000000E-03 0.  1.
         11   -1    0    0    0    0 -0.00000000000E+00 -0.00000000000E+00 -0.45593999997E+02  0.45594000000E+02  0.51100000000E-03 0. -1.
    9900012    2    1    2    0    0 -0.24858391709E+02  0.21602407255E+02 -0.23844541913E+02  0.50528858142E+02  0.29999994809E+02 0.  0.
        -12    1    1    2    0    0  0.24858391709E+02 -0.21602407255E+02  0.23844541913E+02  0.40659141858E+02  0.00000000000E+00 0.  1.
         11    1    3    3    0    0 -0.11963064616E+02 -0.18936033290E-01 -0.96658687705E+01  0.15379996519E+02  0.51100000000E-03 0. -1.
        -11    1    3    3    0    0 -0.10055564086E+02  0.10024355403E+01 -0.25721117230E+00  0.10108679634E+02  0.51100000000E-03 0.  1.
         12    1    3    3    0    0 -0.28397630072E+01  0.20618907748E+02 -0.13921461971E+02  0.25040181989E+02  0.00000000000E+00 0. -1.
</event>
<event>
 7    1  0.5992960E-013  0.5052887E+02  0.7816164E-02  0.1300439E+00
        -11   -1    0    0    0    0  0.00000000000E+00  0.00000000000E+00  0.45593999997E+02  0.45594000000E+02  0.51100000000E-03 0. -1.
         11   -1    0    0    0    0 -0.00000000000E+00 -0.00000000000E+00 -0.45593999997E+02  0.45594000000E+02  0.51100000000E-03 0.  1.
    9900012    2    1    2    0    0  0.24946988471E+02  0.31175006204E+02  0.76767154398E+01  0.50528865657E+02  0.30000017650E+02 0.  0.
        -12    1    1    2    0    0 -0.24946988471E+02 -0.31175006204E+02 -0.76767154398E+01  0.40659134343E+02  0.00000000000E+00 0.  1.
         11    1    3    3    0    0 -0.19850893931E+01  0.30814714832E+00  0.23720118007E+01  0.31083717293E+01  0.51100000000E-03 0. -1.
        -11    1    3    3    0    0  0.15177326581E+01 -0.29979730768E+01 -0.27238133240E+01  0.43255651972E+01  0.51100000000E-03 0.  1.
         12    1    3    3    0    0  0.25414345206E+02  0.33864832133E+02  0.80285169631E+01  0.43094928730E+02  0.00000000000E+00 0. -1.
</event>
<event>
 7    1  0.5992960E-013  0.5052887E+02  0.7816164E-02  0.1300439E+00
        -11   -1    0    0    0    0  0.00000000000E+00  0.00000000000E+00  0.45593999997E+02  0.45594000000E+02  0.51100000000E-03 0.  1.
         11   -1    0    0    0    0 -0.00000000000E+00 -0.00000000000E+00 -0.45593999997E+02  0.45594000000E+02  0.51100000000E-03 0. -1.
    9900012    2    1    2    0    0  0.24759936323E+02  0.26701774195E+02 -0.18086611649E+02  0.50528871716E+02  0.30000036068E+02 0.  0.
        -12    1    1    2    0    0 -0.24759936323E+02 -0.26701774195E+02  0.18086611649E+02  0.40659128284E+02  0.00000000000E+00 0.  1.
         11    1    3    3    0    0 -0.23720524439E-01  0.47308486968E+00  0.28936441981E+01  0.29321577317E+01  0.51100000000E-03 0. -1.
        -11    1    3    3    0    0  0.50232908565E+01  0.91691348125E+01  0.42553599849E+01  0.11287806390E+02  0.51100000000E-03 0.  1.
         12    1    3    3    0    0  0.19760365991E+02  0.17059554513E+02 -0.25235615832E+02  0.36308907594E+02  0.00000000000E+00 0. -1.
</event>
<event>
 7    1  0.5992960E-013  0.5052884E+02  0.7816164E-02  0.1300439E+00
        -11   -1    0    0    0    0  0.00000000000E+00  0.00000000000E+00  0.45593999997E+02  0.45594000000E+02  0.51100000000E-03 0.  1.
         11   -1    0    0    0    0 -0.00000000000E+00 -0.00000000000E+00 -0.45593999997E+02  0.45594000000E+02  0.51100000000E-03 0. -1.
    9900012    2    1    2    0    0  0.43560357767E+01  0.25744767480E+02 -0.31167271180E+02  0.50528844905E+02  0.29999954572E+02 0.  0.
        -12    1    1    2    0    0 -0.43560357767E+01 -0.25744767480E+02  0.31167271180E+02  0.40659155095E+02  0.00000000000E+00 0.  1.
         11    1    3    3    0    0  0.68226485513E+01  0.67766959749E+01 -0.11146531091E+02  0.14721321178E+02  0.51100000000E-03 0. -1.
        -11    1    3    3    0    0  0.57275642921E+01  0.18193286869E+02 -0.19915881275E+02  0.27576131111E+02  0.51100000000E-03 0.  1.
        -12    1    3    3    0    0 -0.81941770667E+01  0.77478463637E+00 -0.10485881356E+00  0.82313926163E+01  0.00000000000E+00 0.  1.
</event>
<event>
 7    1  0.5992960E-013  0.5052886E+02  0.7816164E-02  0.1300439E+00
        -11   -1    0    0    0    0  0.00000000000E+00  0.00000000000E+00  0.45593999997E+02  0.45594000000E+02  0.51100000000E-03 0.  1.
         11   -1    0    0    0    0 -0.00000000000E+00 -0.00000000000E+00 -0.45593999997E+02  0.45594000000E+02  0.51100000000E-03 0. -1.
    9900012    2    1    2    0    0  0.10247549120E+02  0.27946945650E+02 -0.27696960304E+02  0.50528860263E+02  0.30000001255E+02 0.  0.
        -12    1    1    2    0    0 -0.10247549120E+02 -0.27946945650E+02  0.27696960304E+02  0.40659139737E+02  0.00000000000E+00 0.  1.
         11    1    3    3    0    0  0.47734877801E+01  0.12725651758E+02 -0.19837941116E+02  0.24047293116E+02  0.51100000000E-03 0. -1.
        -11    1    3    3    0    0  0.32131605511E-01 -0.35788166539E+01 -0.57816560234E+01  0.67997432096E+01  0.51100000000E-03 0.  1.
        -12    1    3    3    0    0  0.54419297346E+01  0.18800110545E+02 -0.20773631645E+01  0.19681823937E+02  0.00000000000E+00 0.  1.
</event>
<event>
 7    1  0.5992960E-013  0.5052886E+02  0.7816164E-02  0.1300439E+00
        -11   -1    0    0    0    0  0.00000000000E+00  0.00000000000E+00  0.45593999997E+02  0.45594000000E+02  0.51100000000E-03 0.  1.
         11   -1    0    0    0    0 -0.00000000000E+00 -0.00000000000E+00 -0.45593999997E+02  0.45594000000E+02  0.51100000000E-03 0. -1.
    9900012    2    1    2    0    0 -0.23735821304E+01 -0.22070248394E+02 -0.34065172166E+02  0.50528859441E+02  0.29999998758E+02 0.  0.
        -12    1    1    2    0    0  0.23735821304E+01  0.22070248394E+02  0.34065172166E+02  0.40659140559E+02  0.00000000000E+00 0.  1.
         11    1    3    3    0    0  0.89452006790E+00 -0.11578561081E+02 -0.13330550051E+02  0.17679559039E+02  0.51100000000E-03 0. -1.
        -11    1    3    3    0    0 -0.10952824575E+02 -0.98428221159E+01 -0.20361261024E+02  0.25128200575E+02  0.51100000000E-03 0.  1.
         12    1    3    3    0    0  0.76847223768E+01 -0.64886519678E+00 -0.37336109049E+00  0.77210998281E+01  0.00000000000E+00 0. -1.
</event>
<event>
 7    1  0.5992960E-013  0.5052887E+02  0.7816164E-02  0.1300439E+00
        -11   -1    0    0    0    0  0.00000000000E+00  0.00000000000E+00  0.45593999997E+02  0.45594000000E+02  0.51100000000E-03 0. -1.
         11   -1    0    0    0    0 -0.00000000000E+00 -0.00000000000E+00 -0.45593999997E+02  0.45594000000E+02  0.51100000000E-03 0.  1.
    9900012    2    1    2    0    0 -0.17908896241E+02 -0.19504036171E+02  0.30854965939E+02  0.50528869234E+02  0.30000028523E+02 0.  0.
        -12    1    1    2    0    0  0.17908896241E+02  0.19504036171E+02 -0.30854965939E+02  0.40659130766E+02  0.00000000000E+00 0.  1.
         11    1    3    3    0    0 -0.43391183903E+00 -0.90181379562E+00 -0.20646714285E+01  0.22944315145E+01  0.51100000000E-03 0. -1.
        -11    1    3    3    0    0  0.38782576031E+01 -0.12405102352E+01 -0.13430773597E+01  0.42876106090E+01  0.51100000000E-03 0.  1.
         12    1    3    3    0    0 -0.21353242005E+02 -0.17361712140E+02  0.34262714727E+02  0.43946827110E+02  0.00000000000E+00 0. -1.
</event>
<event>
 7    1  0.5992960E-013  0.5052885E+02  0.7816164E-02  0.1300439E+00
        -11   -1    0    0    0    0  0.00000000000E+00  0.00000000000E+00  0.45593999997E+02  0.45594000000E+02  0.51100000000E-03 0.  1.
         11   -1    0    0    0    0 -0.00000000000E+00 -0.00000000000E+00 -0.45593999997E+02  0.45594000000E+02  0.51100000000E-03 0. -1.
    9900012    2    1    2    0    0 -0.99053331641E+01 -0.38199971358E+02  0.97883935913E+01  0.50528854830E+02  0.29999984742E+02 0.  0.
        -12    1    1    2    0    0  0.99053331641E+01  0.38199971358E+02 -0.97883935913E+01  0.40659145170E+02  0.00000000000E+00 0.  1.
         11    1    3    3    0    0 -0.14217819579E+01 -0.31087793788E+01  0.21930443090E+01  0.40614550058E+01  0.51100000000E-03 0. -1.
        -11    1    3    3    0    0 -0.16036173781E+02 -0.18868187175E+02  0.12740395033E+02  0.27847531715E+02  0.51100000000E-03 0.  1.
         12    1    3    3    0    0  0.75526225744E+01 -0.16223004804E+02 -0.51450457506E+01  0.18619868109E+02  0.00000000000E+00 0. -1.
</event>
<event>
 7    1  0.5992960E-013  0.5052887E+02  0.7816164E-02  0.1300439E+00
        -11   -1    0    0    0    0  0.00000000000E+00  0.00000000000E+00  0.45593999997E+02  0.45594000000E+02  0.51100000000E-03 0.  1.
         11   -1    0    0    0    0 -0.00000000000E+00 -0.00000000000E+00 -0.45593999997E+02  0.45594000000E+02  0.51100000000E-03 0. -1.
    9900012    2    1    2    0    0  0.24767701161E+02  0.28328564438E+02 -0.15401895374E+02  0.50528868614E+02  0.30000026639E+02 0.  0.
        -12    1    1    2    0    0 -0.24767701161E+02 -0.28328564438E+02  0.15401895374E+02  0.40659131386E+02  0.00000000000E+00 0.  1.
         11    1    3    3    0    0  0.60900971899E+01  0.67169596405E+01  0.69360334180E+00  0.90932896386E+01  0.51100000000E-03 0. -1.
        -11    1    3    3    0    0 -0.42934779219E+01 -0.20891780794E+01 -0.41757814544E+01  0.63431670898E+01  0.51100000000E-03 0.  1.
         12    1    3    3    0    0  0.22971081893E+02  0.23700782877E+02 -0.11919717262E+02  0.35092411886E+02  0.00000000000E+00 0. -1.
</event>
<event>
 7    1  0.5992960E-013  0.5052886E+02  0.7816164E-02  0.1300439E+00
        -11   -1    0    0    0    0  0.00000000000E+00  0.00000000000E+00  0.45593999997E+02  0.45594000000E+02  0.51100000000E-03 0.  1.
         11   -1    0    0    0    0 -0.00000000000E+00 -0.00000000000E+00 -0.45593999997E+02  0.45594000000E+02  0.51100000000E-03 0. -1.
    9900012    2    1    2    0    0 -0.24423190183E+02  0.11663078015E+02 -0.30342156529E+02  0.50528855023E+02  0.29999985327E+02 0.  0.
        -12    1    1    2    0    0  0.24423190183E+02 -0.11663078015E+02  0.30342156529E+02  0.40659144977E+02  0.00000000000E+00 0.  1.
         11    1    3    3    0    0 -0.29482688293E+02  0.92844598805E+01 -0.27647548184E+02  0.41470676690E+02  0.51100000000E-03 0. -1.
        -11    1    3    3    0    0 -0.12509517817E+01  0.44873292063E+00  0.84000282117E+00  0.15722107349E+01  0.51100000000E-03 0.  1.
         12    1    3    3    0    0  0.63104498923E+01  0.19298852136E+01 -0.35346111662E+01  0.74859675979E+01  0.00000000000E+00 0. -1.
</event>
<event>
 7    1  0.5992960E-013  0.5052886E+02  0.7816164E-02  0.1300439E+00
        -11   -1    0    0    0    0  0.00000000000E+00  0.00000000000E+00  0.45593999997E+02  0.45594000000E+02  0.51100000000E-03 0. -1.
         11   -1    0    0    0    0 -0.00000000000E+00 -0.00000000000E+00 -0.45593999997E+02  0.45594000000E+02  0.51100000000E-03 0.  1.
    9900012    2    1    2    0    0  0.13302168035E+02  0.17580825560E+01  0.38381333489E+02  0.50528864629E+02  0.30000014527E+02 0.  0.
        -12    1    1    2    0    0 -0.13302168035E+02 -0.17580825560E+01 -0.38381333489E+02  0.40659135371E+02  0.00000000000E+00 0.  1.
         11    1    3    3    0    0  0.45349079166E+01 -0.88346215193E+01  0.30774612503E+01  0.10396475134E+02  0.51100000000E-03 0. -1.
        -11    1    3    3    0    0  0.21540372320E+01  0.25859404591E+01  0.34278310274E-01  0.33657301910E+01  0.51100000000E-03 0.  1.
         12    1    3    3    0    0  0.66132228868E+01  0.80067636161E+01  0.35269593928E+02  0.36766659305E+02  0.00000000000E+00 0. -1.
</event>
<event>
 7    1  0.5992960E-013  0.5052885E+02  0.7816164E-02  0.1300439E+00
        -11   -1    0    0    0    0  0.00000000000E+00  0.00000000000E+00  0.45593999997E+02  0.45594000000E+02  0.51100000000E-03 0. -1.
         11   -1    0    0    0    0 -0.00000000000E+00 -0.00000000000E+00 -0.45593999997E+02  0.45594000000E+02  0.51100000000E-03 0.  1.
    9900012    2    1    2    0    0  0.23845089311E+01  0.22676902491E+02  0.33663610403E+02  0.50528850294E+02  0.29999970954E+02 0.  0.
        -12    1    1    2    0    0 -0.23845089311E+01 -0.22676902491E+02 -0.33663610403E+02  0.40659149706E+02  0.00000000000E+00 0.  1.
         11    1    3    3    0    0 -0.33745127877E+01 -0.69332972622E+00  0.78766928007E+01  0.85971118640E+01  0.51100000000E-03 0. -1.
        -11    1    3    3    0    0 -0.66955702734E+01  0.29092922136E+01  0.12668234887E+02  0.14621177035E+02  0.51100000000E-03 0.  1.
        -12    1    3    3    0    0  0.12454591992E+02  0.20460940004E+02  0.13118682715E+02  0.27310561395E+02  0.00000000000E+00 0.  1.
</event>
<event>
 7    1  0.5992960E-013  0.5052886E+02  0.7816164E-02  0.1300439E+00
        -11   -1    0    0    0    0  0.00000000000E+00  0.00000000000E+00  0.45593999997E+02  0.45594000000E+02  0.51100000000E-03 0.  1.
         11   -1    0    0    0    0 -0.00000000000E+00 -0.00000000000E+00 -0.45593999997E+02  0.45594000000E+02  0.51100000000E-03 0. -1.
    9900012    2    1    2    0    0  0.25370925440E+02 -0.14936079709E+02 -0.28042738208E+02  0.50528862024E+02  0.30000006607E+02 0.  0.
        -12    1    1    2    0    0 -0.25370925440E+02  0.14936079709E+02  0.28042738208E+02  0.40659137976E+02  0.00000000000E+00 0.  1.
         11    1    3    3    0    0  0.15251431455E+02  0.29581198133E+01 -0.48279210739E+01  0.16268541927E+02  0.51100000000E-03 0. -1.
        -11    1    3    3    0    0  0.11344595915E+02 -0.12737663829E+02 -0.94269291622E+01  0.19488841165E+02  0.51100000000E-03 0.  1.
         12    1    3    3    0    0 -0.12251019299E+01 -0.51565356935E+01 -0.13787887972E+02  0.14771478932E+02  0.00000000000E+00 0. -1.
</event>
<event>
 7    1  0.5992960E-013  0.5052888E+02  0.7816164E-02  0.1300439E+00
        -11   -1    0    0    0    0  0.00000000000E+00  0.00000000000E+00  0.45593999997E+02  0.45594000000E+02  0.51100000000E-03 0.  1.
         11   -1    0    0    0    0 -0.00000000000E+00 -0.00000000000E+00 -0.45593999997E+02  0.45594000000E+02  0.51100000000E-03 0. -1.
    9900012    2    1    2    0    0 -0.16988185030E+02 -0.20584852971E+02 -0.30672945944E+02  0.50528877833E+02  0.30000054662E+02 0.  0.
        -12    1    1    2    0    0  0.16988185030E+02  0.20584852971E+02  0.30672945944E+02  0.40659122167E+02  0.00000000000E+00 0.  1.
         11    1    3    3    0    0 -0.90104020082E+00 -0.14547649337E+02 -0.89807172148E+01  0.17120141841E+02  0.51100000000E-03 0. -1.
        -11    1    3    3    0    0 -0.30507945391E+01 -0.10902545190E+02 -0.11679464421E+02  0.16265999150E+02  0.51100000000E-03 0.  1.
        -12    1    3    3    0    0 -0.13036350291E+02  0.48653415557E+01 -0.10012764309E+02  0.17142736842E+02  0.00000000000E+00 0.  1.
</event>
<event>
 7    1  0.5992960E-013  0.5052887E+02  0.7816164E-02  0.1300439E+00
        -11   -1    0    0    0    0  0.00000000000E+00  0.00000000000E+00  0.45593999997E+02  0.45594000000E+02  0.51100000000E-03 0. -1.
         11   -1    0    0    0    0 -0.00000000000E+00 -0.00000000000E+00 -0.45593999997E+02  0.45594000000E+02  0.51100000000E-03 0.  1.
    9900012    2    1    2    0    0 -0.26717087849E+02 -0.30605990404E+02  0.16235060184E+01  0.50528865682E+02  0.30000017726E+02 0.  0.
        -12    1    1    2    0    0  0.26717087849E+02  0.30605990404E+02 -0.16235060184E+01  0.40659134318E+02  0.00000000000E+00 0.  1.
         11    1    3    3    0    0 -0.15018342081E+02 -0.11700261423E+02 -0.12676497898E+01  0.19080190054E+02  0.51100000000E-03 0. -1.
        -11    1    3    3    0    0 -0.10151948801E+02 -0.68418431531E+01 -0.84047396352E+01  0.14849664332E+02  0.51100000000E-03 0.  1.
         12    1    3    3    0    0 -0.15467969667E+01 -0.12063885828E+02  0.11295895443E+02  0.16599011295E+02  0.00000000000E+00 0. -1.
</event>
<event>
 7    1  0.5992960E-013  0.5052886E+02  0.7816164E-02  0.1300439E+00
        -11   -1    0    0    0    0  0.00000000000E+00  0.00000000000E+00  0.45593999997E+02  0.45594000000E+02  0.51100000000E-03 0.  1.
         11   -1    0    0    0    0 -0.00000000000E+00 -0.00000000000E+00 -0.45593999997E+02  0.45594000000E+02  0.51100000000E-03 0. -1.
    9900012    2    1    2    0    0  0.34927465675E+01 -0.13896266873E+02 -0.38050758409E+02  0.50528859244E+02  0.29999998157E+02 0.  0.
        -12    1    1    2    0    0 -0.34927465675E+01  0.13896266873E+02  0.38050758409E+02  0.40659140756E+02  0.00000000000E+00 0.  1.
         11    1    3    3    0    0  0.89843785347E+01 -0.83759812114E+01 -0.52629954530E+01  0.13363204717E+02  0.51100000000E-03 0. -1.
        -11    1    3    3    0    0  0.18728938200E+01  0.45161820466E+01 -0.11654803806E+02  0.12638753244E+02  0.51100000000E-03 0.  1.
        -12    1    3    3    0    0 -0.73645257872E+01 -0.10036467708E+02 -0.21132959150E+02  0.24526901283E+02  0.00000000000E+00 0.  1.
</event>
<event>
 7    1  0.5992960E-013  0.5052885E+02  0.7816164E-02  0.1300439E+00
        -11   -1    0    0    0    0  0.00000000000E+00  0.00000000000E+00  0.45593999997E+02  0.45594000000E+02  0.51100000000E-03 0. -1.
         11   -1    0    0    0    0 -0.00000000000E+00 -0.00000000000E+00 -0.45593999997E+02  0.45594000000E+02  0.51100000000E-03 0.  1.
    9900012    2    1    2    0    0  0.11699387301E+02  0.18561095333E+02  0.34231216236E+02  0.50528854803E+02  0.29999984659E+02 0.  0.
        -12    1    1    2    0    0 -0.11699387301E+02 -0.18561095333E+02 -0.34231216236E+02  0.40659145197E+02  0.00000000000E+00 0.  1.
         11    1    3    3    0    0  0.50950434047E+01  0.11215555031E+01  0.12139207839E+02  0.13212786280E+02  0.51100000000E-03 0. -1.
        -11    1    3    3    0    0  0.35086673880E+01  0.31666797517E+01  0.22213597361E+02  0.22710845768E+02  0.51100000000E-03 0.  1.
        -12    1    3    3    0    0  0.30956765088E+01  0.14272860078E+02 -0.12158896505E+00  0.14605222756E+02  0.00000000000E+00 0.  1.
</event>
<event>
 7    1  0.5992960E-013  0.5052886E+02  0.7816164E-02  0.1300439E+00
        -11   -1    0    0    0    0  0.00000000000E+00  0.00000000000E+00  0.45593999997E+02  0.45594000000E+02  0.51100000000E-03 0.  1.
         11   -1    0    0    0    0 -0.00000000000E+00 -0.00000000000E+00 -0.45593999997E+02  0.45594000000E+02  0.51100000000E-03 0. -1.
    9900012    2    1    2    0    0 -0.14237537734E+02  0.20065535588E+02 -0.32370241287E+02  0.50528859328E+02  0.29999998414E+02 0.  0.
        -12    1    1    2    0    0  0.14237537734E+02 -0.20065535588E+02  0.32370241287E+02  0.40659140672E+02  0.00000000000E+00 0.  1.
         11    1    3    3    0    0  0.39395204371E+01 -0.28726536573E+01 -0.24511184827E+01  0.54571001811E+01  0.51100000000E-03 0. -1.
        -11    1    3    3    0    0 -0.33303582175E+01  0.21739597534E+01  0.17929956403E+01  0.43625933220E+01  0.51100000000E-03 0.  1.
         12    1    3    3    0    0 -0.14846699954E+02  0.20764229492E+02 -0.31712118445E+02  0.40709165825E+02  0.00000000000E+00 0. -1.
</event>
<event>
 7    1  0.5992960E-013  0.5052887E+02  0.7816164E-02  0.1300439E+00
        -11   -1    0    0    0    0  0.00000000000E+00  0.00000000000E+00  0.45593999997E+02  0.45594000000E+02  0.51100000000E-03 0.  1.
         11   -1    0    0    0    0 -0.00000000000E+00 -0.00000000000E+00 -0.45593999997E+02  0.45594000000E+02  0.51100000000E-03 0. -1.
    9900012    2    1    2    0    0 -0.14224319325E+00 -0.83901950321E+01 -0.39783784517E+02  0.50528866754E+02  0.30000020985E+02 0.  0.
        -12    1    1    2    0    0  0.14224319325E+00  0.83901950321E+01  0.39783784517E+02  0.40659133246E+02  0.00000000000E+00 0.  1.
         11    1    3    3    0    0 -0.30972856187E+01 -0.57640770720E+01 -0.11753095188E+02  0.13451877544E+02  0.51100000000E-03 0. -1.
        -11    1    3    3    0    0  0.37626799235E+01 -0.45134158069E+01  0.25656893571E+01  0.64118206923E+01  0.51100000000E-03 0.  1.
         12    1    3    3    0    0 -0.80763749801E+00  0.18872978468E+01 -0.30596378686E+02  0.30665168518E+02  0.00000000000E+00 0. -1.
</event>
<event>
 7    1  0.5992960E-013  0.5052883E+02  0.7816164E-02  0.1300439E+00
        -11   -1    0    0    0    0  0.00000000000E+00  0.00000000000E+00  0.45593999997E+02  0.45594000000E+02  0.51100000000E-03 0.  1.
         11   -1    0    0    0    0 -0.00000000000E+00 -0.00000000000E+00 -0.45593999997E+02  0.45594000000E+02  0.51100000000E-03 0. -1.
    9900012    2    1    2    0    0  0.31200003048E+02  0.18083391612E+02 -0.18780801783E+02  0.50528834269E+02  0.29999922244E+02 0.  0.
        -12    1    1    2    0    0 -0.31200003048E+02 -0.18083391612E+02  0.18780801783E+02  0.40659165731E+02  0.00000000000E+00 0.  1.
         11    1    3    3    0    0  0.11894611448E+02  0.85274012500E+01 -0.36256845791E+01  0.15077928986E+02  0.51100000000E-03 0.  1.
        -11    1    3    3    0    0  0.11789698846E+02 -0.97030701266E+00  0.38692157893E+01  0.12446257496E+02  0.51100000000E-03 0. -1.
         12    1    3    3    0    0  0.75156927542E+01  0.10526297374E+02 -0.19024332993E+02  0.23004647787E+02  0.00000000000E+00 0. -1.
</event>
<event>
 7    1  0.5992960E-013  0.5052886E+02  0.7816164E-02  0.1300439E+00
        -11   -1    0    0    0    0  0.00000000000E+00  0.00000000000E+00  0.45593999997E+02  0.45594000000E+02  0.51100000000E-03 0.  1.
         11   -1    0    0    0    0 -0.00000000000E+00 -0.00000000000E+00 -0.45593999997E+02  0.45594000000E+02  0.51100000000E-03 0. -1.
    9900012    2    1    2    0    0  0.26162404335E+02 -0.99806634827E+01 -0.29480171096E+02  0.50528861642E+02  0.30000005447E+02 0.  0.
        -12    1    1    2    0    0 -0.26162404335E+02  0.99806634827E+01  0.29480171096E+02  0.40659138358E+02  0.00000000000E+00 0.  1.
         11    1    3    3    0    0  0.34709558164E+01  0.19042158704E+01 -0.42317629253E+01  0.57949452178E+01  0.51100000000E-03 0. -1.
        -11    1    3    3    0    0 -0.50277258708E+01  0.24723424099E+01 -0.26614960484E+01  0.62027466417E+01  0.51100000000E-03 0.  1.
         12    1    3    3    0    0  0.27719174390E+02 -0.14357221763E+02 -0.22586912122E+02  0.38531169783E+02  0.00000000000E+00 0. -1.
</event>
<event>
 7    1  0.5992960E-013  0.5052887E+02  0.7816164E-02  0.1300439E+00
        -11   -1    0    0    0    0  0.00000000000E+00  0.00000000000E+00  0.45593999997E+02  0.45594000000E+02  0.51100000000E-03 0.  1.
         11   -1    0    0    0    0 -0.00000000000E+00 -0.00000000000E+00 -0.45593999997E+02  0.45594000000E+02  0.51100000000E-03 0. -1.
    9900012    2    1    2    0    0 -0.16654887569E+02  0.81887837083E+01 -0.36176285814E+02  0.50528866784E+02  0.30000021078E+02 0.  0.
        -12    1    1    2    0    0  0.16654887569E+02 -0.81887837083E+01  0.36176285814E+02  0.40659133216E+02  0.00000000000E+00 0.  1.
         11    1    3    3    0    0 -0.68484755825E+01 -0.17480121861E+00  0.26386474194E+00  0.68557857415E+01  0.51100000000E-03 0. -1.
        -11    1    3    3    0    0 -0.69024840731E+01 -0.36914255101E+01 -0.36892522245E+01  0.86534092076E+01  0.51100000000E-03 0.  1.
         12    1    3    3    0    0 -0.29039279138E+01  0.12055010437E+02 -0.32750898331E+02  0.35019671835E+02  0.00000000000E+00 0. -1.
</event>
<event>
 7    1  0.5992960E-013  0.5052885E+02  0.7816164E-02  0.1300439E+00
        -11   -1    0    0    0    0  0.00000000000E+00  0.00000000000E+00  0.45593999997E+02  0.45594000000E+02  0.51100000000E-03 0.  1.
         11   -1    0    0    0    0 -0.00000000000E+00 -0.00000000000E+00 -0.45593999997E+02  0.45594000000E+02  0.51100000000E-03 0. -1.
    9900012    2    1    2    0    0 -0.32649749280E+01  0.20299494844E+02 -0.35077579522E+02  0.50528854198E+02  0.29999982820E+02 0.  0.
        -12    1    1    2    0    0  0.32649749280E+01 -0.20299494844E+02  0.35077579522E+02  0.40659145802E+02  0.00000000000E+00 0.  1.
         11    1    3    3    0    0  0.17714233063E+01  0.15943719030E+02 -0.25944365853E+02  0.30503282394E+02  0.51100000000E-03 0. -1.
        -11    1    3    3    0    0 -0.60903559957E+01  0.76127420249E+01 -0.12069786722E+02  0.15515348178E+02  0.51100000000E-03 0.  1.
         12    1    3    3    0    0  0.10539577614E+01 -0.32569662108E+01  0.29365730531E+01  0.45102236261E+01  0.00000000000E+00 0. -1.
</event>
<event>
 7    1  0.5992960E-013  0.5052886E+02  0.7816164E-02  0.1300439E+00
        -11   -1    0    0    0    0  0.00000000000E+00  0.00000000000E+00  0.45593999997E+02  0.45594000000E+02  0.51100000000E-03 0.  1.
         11   -1    0    0    0    0 -0.00000000000E+00 -0.00000000000E+00 -0.45593999997E+02  0.45594000000E+02  0.51100000000E-03 0. -1.
    9900012    2    1    2    0    0  0.10658775102E+02 -0.39209933929E+02  0.14619342789E+01  0.50528860102E+02  0.30000000765E+02 0.  0.
        -12    1    1    2    0    0 -0.10658775102E+02  0.39209933929E+02 -0.14619342789E+01  0.40659139898E+02  0.00000000000E+00 0.  1.
         11    1    3    3    0    0  0.16573338306E+02 -0.15002479421E+02 -0.75118772794E+01  0.23583431300E+02  0.51100000000E-03 0. -1.
        -11    1    3    3    0    0  0.89737183616E+00 -0.25109341766E+01  0.94697916040E+00  0.28296353905E+01  0.51100000000E-03 0.  1.
         12    1    3    3    0    0 -0.68119350397E+01 -0.21696520332E+02  0.80268323979E+01  0.24115793411E+02  0.00000000000E+00 0. -1.
</event>
<event>
 7    1  0.5992960E-013  0.5052886E+02  0.7816164E-02  0.1300439E+00
        -11   -1    0    0    0    0  0.00000000000E+00  0.00000000000E+00  0.45593999997E+02  0.45594000000E+02  0.51100000000E-03 0.  1.
         11   -1    0    0    0    0 -0.00000000000E+00 -0.00000000000E+00 -0.45593999997E+02  0.45594000000E+02  0.51100000000E-03 0. -1.
    9900012    2    1    2    0    0  0.83666927612E+01 -0.39007060488E+02 -0.78494333732E+01  0.50528856871E+02  0.29999990947E+02 0.  0.
        -12    1    1    2    0    0 -0.83666927612E+01  0.39007060488E+02  0.78494333732E+01  0.40659143129E+02  0.00000000000E+00 0.  1.
         11    1    3    3    0    0  0.80421145219E+01 -0.47195749022E+01 -0.88170806521E+01  0.12833195422E+02  0.51100000000E-03 0. -1.
        -11    1    3    3    0    0  0.46120704585E+01 -0.30505902891E+02 -0.25917677363E+01  0.30961242955E+02  0.51100000000E-03 0.  1.
        -12    1    3    3    0    0 -0.42874922192E+01 -0.37815826950E+01  0.35594150151E+01  0.67344184944E+01  0.00000000000E+00 0.  1.
</event>
<event>
 7    1  0.5992960E-013  0.5052886E+02  0.7816164E-02  0.1300439E+00
        -11   -1    0    0    0    0  0.00000000000E+00  0.00000000000E+00  0.45593999997E+02  0.45594000000E+02  0.51100000000E-03 0.  1.
         11   -1    0    0    0    0 -0.00000000000E+00 -0.00000000000E+00 -0.45593999997E+02  0.45594000000E+02  0.51100000000E-03 0. -1.
    9900012    2    1    2    0    0  0.26786609173E+02  0.30516145258E+02 -0.20995240761E+01  0.50528861374E+02  0.30000004633E+02 0.  0.
        -12    1    1    2    0    0 -0.26786609173E+02 -0.30516145258E+02  0.20995240761E+01  0.40659138626E+02  0.00000000000E+00 0.  1.
         11    1    3    3    0    0  0.90237547089E+01  0.10955778136E+01  0.10689275532E+00  0.90906471780E+01  0.51100000000E-03 0. -1.
        -11    1    3    3    0    0  0.28307729370E+01 -0.34589221733E+01  0.23344196963E+01  0.50425126277E+01  0.51100000000E-03 0.  1.
         12    1    3    3    0    0  0.14932081527E+02  0.32879489618E+02 -0.45408365276E+01  0.36395701569E+02  0.00000000000E+00 0. -1.
</event>
<event>
 7    1  0.5992960E-013  0.5052886E+02  0.7816164E-02  0.1300439E+00
        -11   -1    0    0    0    0  0.00000000000E+00  0.00000000000E+00  0.45593999997E+02  0.45594000000E+02  0.51100000000E-03 0. -1.
         11   -1    0    0    0    0 -0.00000000000E+00 -0.00000000000E+00 -0.45593999997E+02  0.45594000000E+02  0.51100000000E-03 0.  1.
    9900012    2    1    2    0    0 -0.24758973557E+02  0.92243371171E+01  0.30904218817E+02  0.50528857024E+02  0.29999991410E+02 0.  0.
        -12    1    1    2    0    0  0.24758973557E+02 -0.92243371171E+01 -0.30904218817E+02  0.40659142976E+02  0.00000000000E+00 0.  1.
         11    1    3    3    0    0 -0.18569046791E+02  0.28037361449E+01  0.22265961209E+02  0.29128052869E+02  0.51100000000E-03 0. -1.
        -11    1    3    3    0    0 -0.82171361695E+01  0.81661489689E+01 -0.77899951052E+00  0.11610949845E+02  0.51100000000E-03 0.  1.
         12    1    3    3    0    0  0.20272094036E+01 -0.17455479967E+01  0.94172571187E+01  0.97898543102E+01  0.00000000000E+00 0. -1.
</event>
<event>
 7    1  0.5992960E-013  0.5052884E+02  0.7816164E-02  0.1300439E+00
        -11   -1    0    0    0    0  0.00000000000E+00  0.00000000000E+00  0.45593999997E+02  0.45594000000E+02  0.51100000000E-03 0.  1.
         11   -1    0    0    0    0 -0.00000000000E+00 -0.00000000000E+00 -0.45593999997E+02  0.45594000000E+02  0.51100000000E-03 0. -1.
    9900012    2    1    2    0    0  0.99415504451E+01 -0.11938271265E+02 -0.37574065111E+02  0.50528842175E+02  0.29999946275E+02 0.  0.
        -12    1    1    2    0    0 -0.99415504451E+01  0.11938271265E+02  0.37574065111E+02  0.40659157825E+02  0.00000000000E+00 0.  1.
         11    1    3    3    0    0  0.48572605741E+01 -0.80543800941E+01 -0.28062760149E+02  0.29597035771E+02  0.51100000000E-03 0. -1.
        -11    1    3    3    0    0 -0.63278957696E+01 -0.34789516261E+01 -0.39332983504E+01  0.82229073606E+01  0.51100000000E-03 0.  1.
        -12    1    3    3    0    0  0.11412185641E+02 -0.40493954509E+00 -0.55780066118E+01  0.12708899043E+02  0.00000000000E+00 0.  1.
</event>
<event>
 7    1  0.5992960E-013  0.5052886E+02  0.7816164E-02  0.1300439E+00
        -11   -1    0    0    0    0  0.00000000000E+00  0.00000000000E+00  0.45593999997E+02  0.45594000000E+02  0.51100000000E-03 0.  1.
         11   -1    0    0    0    0 -0.00000000000E+00 -0.00000000000E+00 -0.45593999997E+02  0.45594000000E+02  0.51100000000E-03 0. -1.
    9900012    2    1    2    0    0  0.38928592007E+02  0.11389703820E+02  0.28293514822E+01  0.50528857627E+02  0.29999993242E+02 0.  0.
        -12    1    1    2    0    0 -0.38928592007E+02 -0.11389703820E+02 -0.28293514822E+01  0.40659142373E+02  0.00000000000E+00 0.  1.
         11    1    3    3    0    0  0.18790421091E+02  0.10018794794E+02  0.11506873636E+01  0.21325577497E+02  0.51100000000E-03 0. -1.
        -11    1    3    3    0    0 -0.70579353930E+00  0.45967412935E+01  0.60821445953E+01  0.76564128793E+01  0.51100000000E-03 0.  1.
        -12    1    3    3    0    0  0.20843964455E+02 -0.32258322676E+01 -0.44034804766E+01  0.21546867251E+02  0.00000000000E+00 0.  1.
</event>
<event>
 7    1  0.5992960E-013  0.5052886E+02  0.7816164E-02  0.1300439E+00
        -11   -1    0    0    0    0  0.00000000000E+00  0.00000000000E+00  0.45593999997E+02  0.45594000000E+02  0.51100000000E-03 0. -1.
         11   -1    0    0    0    0 -0.00000000000E+00 -0.00000000000E+00 -0.45593999997E+02  0.45594000000E+02  0.51100000000E-03 0.  1.
    9900012    2    1    2    0    0  0.13381212868E+02 -0.56365391053E+01  0.37978126217E+02  0.50528862013E+02  0.30000006575E+02 0.  0.
        -12    1    1    2    0    0 -0.13381212868E+02  0.56365391053E+01 -0.37978126217E+02  0.40659137987E+02  0.00000000000E+00 0.  1.
         11    1    3    3    0    0  0.29701778053E+01  0.11382274349E+01  0.15621555407E+01  0.35437054171E+01  0.51100000000E-03 0. -1.
        -11    1    3    3    0    0  0.96016521034E+01  0.15037270603E+01  0.90085658725E-01  0.97191066396E+01  0.51100000000E-03 0.  1.
         12    1    3    3    0    0  0.80938295976E+00 -0.82784936005E+01  0.36325885017E+02  0.37266049956E+02  0.00000000000E+00 0. -1.
</event>
<event>
 7    1  0.5992960E-013  0.5052883E+02  0.7816164E-02  0.1300439E+00
        -11   -1    0    0    0    0  0.00000000000E+00  0.00000000000E+00  0.45593999997E+02  0.45594000000E+02  0.51100000000E-03 0.  1.
         11   -1    0    0    0    0 -0.00000000000E+00 -0.00000000000E+00 -0.45593999997E+02  0.45594000000E+02  0.51100000000E-03 0. -1.
    9900012    2    1    2    0    0 -0.27520613170E+02  0.17735694739E+02 -0.24108694112E+02  0.50528829461E+02  0.29999907630E+02 0.  0.
        -12    1    1    2    0    0  0.27520613170E+02 -0.17735694739E+02  0.24108694112E+02  0.40659170539E+02  0.00000000000E+00 0.  1.
         11    1    3    3    0    0 -0.10371280504E+02  0.18584596354E+02 -0.12597378474E+02  0.24731450132E+02  0.51100000000E-03 0. -1.
        -11    1    3    3    0    0 -0.13010350093E+02  0.65444528319E+01 -0.80890425915E+01  0.16659282179E+02  0.51100000000E-03 0.  1.
        -12    1    3    3    0    0 -0.41389825730E+01 -0.73933544474E+01 -0.34222730466E+01  0.91380971504E+01  0.00000000000E+00 0.  1.
</event>
<event>
 7    1  0.5992960E-013  0.5052887E+02  0.7816164E-02  0.1300439E+00
        -11   -1    0    0    0    0  0.00000000000E+00  0.00000000000E+00  0.45593999997E+02  0.45594000000E+02  0.51100000000E-03 0. -1.
         11   -1    0    0    0    0 -0.00000000000E+00 -0.00000000000E+00 -0.45593999997E+02  0.45594000000E+02  0.51100000000E-03 0.  1.
    9900012    2    1    2    0    0  0.11156041343E+02  0.11341175987E+02  0.37417717233E+02  0.50528867026E+02  0.30000021814E+02 0.  0.
        -12    1    1    2    0    0 -0.11156041343E+02 -0.11341175987E+02 -0.37417717233E+02  0.40659132974E+02  0.00000000000E+00 0.  1.
         11    1    3    3    0    0  0.10070738822E+02 -0.37803480832E+00  0.28736839475E+02  0.30452727858E+02  0.51100000000E-03 0. -1.
        -11    1    3    3    0    0  0.27112658445E+01 -0.13312281107E+01  0.59084788750E+01  0.66357556947E+01  0.51100000000E-03 0.  1.
        -12    1    3    3    0    0 -0.16259633233E+01  0.13050438905E+02  0.27723988836E+01  0.13440383474E+02  0.00000000000E+00 0.  1.
</event>
<event>
 7    1  0.5992960E-013  0.5052886E+02  0.7816164E-02  0.1300439E+00
        -11   -1    0    0    0    0  0.00000000000E+00  0.00000000000E+00  0.45593999997E+02  0.45594000000E+02  0.51100000000E-03 0. -1.
         11   -1    0    0    0    0 -0.00000000000E+00 -0.00000000000E+00 -0.45593999997E+02  0.45594000000E+02  0.51100000000E-03 0.  1.
    9900012    2    1    2    0    0 -0.24947417679E+02  0.28118222162E+02  0.15497026106E+02  0.50528857307E+02  0.29999992270E+02 0.  0.
        -12    1    1    2    0    0  0.24947417679E+02 -0.28118222162E+02 -0.15497026106E+02  0.40659142693E+02  0.00000000000E+00 0.  1.
         11    1    3    3    0    0 -0.12571578660E+02 -0.12418201317E+01  0.10778574230E+02  0.16606154580E+02  0.51100000000E-03 0. -1.
        -11    1    3    3    0    0  0.12440902413E+01  0.10581135045E+00 -0.24917661578E+00  0.12732029757E+01  0.51100000000E-03 0.  1.
         12    1    3    3    0    0 -0.13619929260E+02  0.29254230943E+02  0.49676284916E+01  0.32649499751E+02  0.00000000000E+00 0. -1.
</event>
<event>
 7    1  0.5992960E-013  0.5052887E+02  0.7816164E-02  0.1300439E+00
        -11   -1    0    0    0    0  0.00000000000E+00  0.00000000000E+00  0.45593999997E+02  0.45594000000E+02  0.51100000000E-03 0.  1.
         11   -1    0    0    0    0 -0.00000000000E+00 -0.00000000000E+00 -0.45593999997E+02  0.45594000000E+02  0.51100000000E-03 0. -1.
    9900012    2    1    2    0    0  0.49694251648E+01 -0.19949125717E+02 -0.35078512172E+02  0.50528870404E+02  0.30000032080E+02 0.  0.
        -12    1    1    2    0    0 -0.49694251648E+01  0.19949125717E+02  0.35078512172E+02  0.40659129596E+02  0.00000000000E+00 0.  1.
         11    1    3    3    0    0  0.43291973724E+01 -0.10174036040E+01 -0.26827806387E+02  0.27193901077E+02  0.51100000000E-03 0. -1.
        -11    1    3    3    0    0  0.24314370030E+01 -0.23284270787E+00 -0.29237540567E+01  0.38097821028E+01  0.51100000000E-03 0.  1.
        -12    1    3    3    0    0 -0.17912092106E+01 -0.18698879405E+02 -0.53269517283E+01  0.19525187225E+02  0.00000000000E+00 0.  1.
</event>
<event>
 7    1  0.5992960E-013  0.5052885E+02  0.7816164E-02  0.1300439E+00
        -11   -1    0    0    0    0  0.00000000000E+00  0.00000000000E+00  0.45593999997E+02  0.45594000000E+02  0.51100000000E-03 0.  1.
         11   -1    0    0    0    0 -0.00000000000E+00 -0.00000000000E+00 -0.45593999997E+02  0.45594000000E+02  0.51100000000E-03 0. -1.
    9900012    2    1    2    0    0  0.36746886493E+02 -0.17310837490E+02 -0.17797149647E+01  0.50528854081E+02  0.29999982464E+02 0.  0.
        -12    1    1    2    0    0 -0.36746886493E+02  0.17310837490E+02  0.17797149647E+01  0.40659145919E+02  0.00000000000E+00 0.  1.
         11    1    3    3    0    0  0.88244776875E+01 -0.63362151484E-01  0.13393177270E+01  0.89257601052E+01  0.51100000000E-03 0. -1.
        -11    1    3    3    0    0  0.22928995436E+02 -0.16827135466E+02  0.78832915212E+01  0.29513346221E+02  0.51100000000E-03 0.  1.
        -12    1    3    3    0    0  0.49934133687E+01 -0.42033987248E+00 -0.11002324213E+02  0.12089747754E+02  0.00000000000E+00 0.  1.
</event>
<event>
 7    1  0.5992960E-013  0.5052885E+02  0.7816164E-02  0.1300439E+00
        -11   -1    0    0    0    0  0.00000000000E+00  0.00000000000E+00  0.45593999997E+02  0.45594000000E+02  0.51100000000E-03 0.  1.
         11   -1    0    0    0    0 -0.00000000000E+00 -0.00000000000E+00 -0.45593999997E+02  0.45594000000E+02  0.51100000000E-03 0. -1.
    9900012    2    1    2    0    0  0.22296914418E+02 -0.17182557286E+02 -0.29338941137E+02  0.50528854233E+02  0.29999982928E+02 0.  0.
        -12    1    1    2    0    0 -0.22296914418E+02  0.17182557286E+02  0.29338941137E+02  0.40659145767E+02  0.00000000000E+00 0.  1.
         11    1    3    3    0    0 -0.39122969472E+01 -0.43059707370E+01 -0.46237820788E+01  0.74314744408E+01  0.51100000000E-03 0. -1.
        -11    1    3    3    0    0  0.17947243364E+01 -0.71826166819E+01 -0.13993439673E+02  0.15831215114E+02  0.51100000000E-03 0.  1.
         12    1    3    3    0    0  0.24414487028E+02 -0.56939698669E+01 -0.10721719385E+02  0.27266164679E+02  0.00000000000E+00 0. -1.
</event>
<event>
 7    1  0.5992960E-013  0.5052897E+02  0.7816164E-02  0.1300438E+00
        -11   -1    0    0    0    0  0.00000000000E+00  0.00000000000E+00  0.45593999997E+02  0.45594000000E+02  0.51100000000E-03 0.  1.
         11   -1    0    0    0    0 -0.00000000000E+00 -0.00000000000E+00 -0.45593999997E+02  0.45594000000E+02  0.51100000000E-03 0. -1.
    9900012    2    1    2    0    0 -0.16148501913E+02 -0.27487495728E+02 -0.25235301704E+02  0.50528966716E+02  0.30000324830E+02 0.  0.
        -12    1    1    2    0    0  0.16148501913E+02  0.27487495728E+02  0.25235301704E+02  0.40659033284E+02  0.00000000000E+00 0.  1.
         11    1    3    3    0    0 -0.16683750146E+01 -0.56862933349E+01 -0.40380601240E+01  0.71710066871E+01  0.51100000000E-03 0. -1.
        -11    1    3    3    0    0  0.81865349862E+01 -0.65582847613E+01 -0.52817850998E+01  0.11744262778E+02  0.51100000000E-03 0.  1.
         12    1    3    3    0    0 -0.22666661885E+02 -0.15242917632E+02 -0.15915456480E+02  0.31613697252E+02  0.00000000000E+00 0. -1.
</event>
<event>
 7    1  0.5992960E-013  0.5052886E+02  0.7816164E-02  0.1300439E+00
        -11   -1    0    0    0    0  0.00000000000E+00  0.00000000000E+00  0.45593999997E+02  0.45594000000E+02  0.51100000000E-03 0.  1.
         11   -1    0    0    0    0 -0.00000000000E+00 -0.00000000000E+00 -0.45593999997E+02  0.45594000000E+02  0.51100000000E-03 0. -1.
    9900012    2    1    2    0    0  0.31229626092E+02 -0.95285770873E+01 -0.24229787183E+02  0.50528856943E+02  0.29999991165E+02 0.  0.
        -12    1    1    2    0    0 -0.31229626092E+02  0.95285770873E+01  0.24229787183E+02  0.40659143057E+02  0.00000000000E+00 0.  1.
         11    1    3    3    0    0  0.20592933884E+02 -0.79938599045E+01 -0.13549699431E+02  0.25914572677E+02  0.51100000000E-03 0. -1.
        -11    1    3    3    0    0  0.68266411633E+01 -0.48651397004E+01 -0.15502604622E+02  0.17623942925E+02  0.51100000000E-03 0.  1.
        -12    1    3    3    0    0  0.38100510454E+01  0.33304225175E+01  0.48225168699E+01  0.69903413418E+01  0.00000000000E+00 0.  1.
</event>
<event>
 7    1  0.5992960E-013  0.5052895E+02  0.7816164E-02  0.1300438E+00
        -11   -1    0    0    0    0  0.00000000000E+00  0.00000000000E+00  0.45593999997E+02  0.45594000000E+02  0.51100000000E-03 0. -1.
         11   -1    0    0    0    0 -0.00000000000E+00 -0.00000000000E+00 -0.45593999997E+02  0.45594000000E+02  0.51100000000E-03 0.  1.
    9900012    2    1    2    0    0 -0.23684593235E+02 -0.93208761365E+01 -0.31706770516E+02  0.50528954447E+02  0.30000287537E+02 0.  0.
        -12    1    1    2    0    0  0.23684593235E+02  0.93208761365E+01  0.31706770516E+02  0.40659045553E+02  0.00000000000E+00 0.  1.
         11    1    3    3    0    0 -0.32136424151E-02  0.38790970534E+00 -0.79356694580E+00  0.88330800154E+00  0.51100000000E-03 0. -1.
        -11    1    3    3    0    0 -0.10273184583E+02  0.32768071093E+01 -0.28930835419E+02  0.30875055054E+02  0.51100000000E-03 0.  1.
         12    1    3    3    0    0 -0.13408195010E+02 -0.12985592951E+02 -0.19823681517E+01  0.18770591392E+02  0.00000000000E+00 0. -1.
</event>
<event>
 7    1  0.5992960E-013  0.5052883E+02  0.7816164E-02  0.1300439E+00
        -11   -1    0    0    0    0  0.00000000000E+00  0.00000000000E+00  0.45593999997E+02  0.45594000000E+02  0.51100000000E-03 0. -1.
         11   -1    0    0    0    0 -0.00000000000E+00 -0.00000000000E+00 -0.45593999997E+02  0.45594000000E+02  0.51100000000E-03 0.  1.
    9900012    2    1    2    0    0  0.35210141578E+02 -0.12530397675E+02  0.16012584440E+02  0.50528833798E+02  0.29999920812E+02 0.  0.
        -12    1    1    2    0    0 -0.35210141578E+02  0.12530397675E+02 -0.16012584440E+02  0.40659166202E+02  0.00000000000E+00 0.  1.
         11    1    3    3    0    0  0.12677157094E+02 -0.24852118440E+01  0.10208759367E+02  0.16465277343E+02  0.51100000000E-03 0. -1.
        -11    1    3    3    0    0  0.18304268419E+01  0.11641894523E+01  0.99283357098E+01  0.10162561180E+02  0.51100000000E-03 0.  1.
         12    1    3    3    0    0  0.20702557642E+02 -0.11209375284E+02 -0.41245106370E+01  0.23900995275E+02  0.00000000000E+00 0. -1.
</event>
<event>
 7    1  0.5992960E-013  0.5052886E+02  0.7816164E-02  0.1300439E+00
        -11   -1    0    0    0    0  0.00000000000E+00  0.00000000000E+00  0.45593999997E+02  0.45594000000E+02  0.51100000000E-03 0.  1.
         11   -1    0    0    0    0 -0.00000000000E+00 -0.00000000000E+00 -0.45593999997E+02  0.45594000000E+02  0.51100000000E-03 0. -1.
    9900012    2    1    2    0    0  0.11581261321E+02  0.35422421097E+02 -0.16257052031E+02  0.50528864853E+02  0.30000015206E+02 0.  0.
        -12    1    1    2    0    0 -0.11581261321E+02 -0.35422421097E+02  0.16257052031E+02  0.40659135147E+02  0.00000000000E+00 0.  1.
         11    1    3    3    0    0  0.11088547839E+01  0.25174199878E+01 -0.50161011081E+00  0.27961715418E+01  0.51100000000E-03 0. -1.
        -11    1    3    3    0    0  0.26336099175E+01  0.36381319261E+02 -0.12451887260E+02  0.38543297589E+02  0.51100000000E-03 0.  1.
        -12    1    3    3    0    0  0.78387966201E+01 -0.34763181519E+01 -0.33035546601E+01  0.91893957220E+01  0.00000000000E+00 0.  1.
</event>
<event>
 7    1  0.5992960E-013  0.5052889E+02  0.7816164E-02  0.1300439E+00
        -11   -1    0    0    0    0  0.00000000000E+00  0.00000000000E+00  0.45593999997E+02  0.45594000000E+02  0.51100000000E-03 0. -1.
         11   -1    0    0    0    0 -0.00000000000E+00 -0.00000000000E+00 -0.45593999997E+02  0.45594000000E+02  0.51100000000E-03 0.  1.
    9900012    2    1    2    0    0 -0.33925617614E+02  0.53607333708E+01  0.21759548292E+02  0.50528893583E+02  0.30000102533E+02 0.  0.
        -12    1    1    2    0    0  0.33925617614E+02 -0.53607333708E+01 -0.21759548292E+02  0.40659106417E+02  0.00000000000E+00 0.  1.
         11    1    3    3    0    0  0.67648932879E+00 -0.65474561097E+00  0.20467572652E+00  0.96344280640E+00  0.51100000000E-03 0.  1.
        -11    1    3    3    0    0 -0.13562875144E+02  0.27323308648E+01 -0.57128114445E+01  0.14968414378E+02  0.51100000000E-03 0. -1.
         12    1    3    3    0    0 -0.21039231799E+02  0.32831481169E+01  0.27267684010E+02  0.34597036398E+02  0.00000000000E+00 0. -1.
</event>
<event>
 7    1  0.5992960E-013  0.5052886E+02  0.7816164E-02  0.1300439E+00
        -11   -1    0    0    0    0  0.00000000000E+00  0.00000000000E+00  0.45593999997E+02  0.45594000000E+02  0.51100000000E-03 0.  1.
         11   -1    0    0    0    0 -0.00000000000E+00 -0.00000000000E+00 -0.45593999997E+02  0.45594000000E+02  0.51100000000E-03 0. -1.
    9900012    2    1    2    0    0 -0.40017065861E+02 -0.70972601155E+01  0.11955436546E+01  0.50528856060E+02  0.29999988481E+02 0.  0.
        -12    1    1    2    0    0  0.40017065861E+02  0.70972601155E+01 -0.11955436546E+01  0.40659143940E+02  0.00000000000E+00 0.  1.
         11    1    3    3    0    0 -0.27673790100E+01 -0.93566033712E+01 -0.24020980270E+01  0.10048606293E+02  0.51100000000E-03 0. -1.
        -11    1    3    3    0    0 -0.11898674546E+02  0.15361519957E+01 -0.59367618457E+01  0.13385938905E+02  0.51100000000E-03 0.  1.
        -12    1    3    3    0    0 -0.25351012305E+02  0.72319126007E+00  0.95344035273E+01  0.27094310862E+02  0.00000000000E+00 0.  1.
</event>
<event>
 7    1  0.5992960E-013  0.5052886E+02  0.7816164E-02  0.1300439E+00
        -11   -1    0    0    0    0  0.00000000000E+00  0.00000000000E+00  0.45593999997E+02  0.45594000000E+02  0.51100000000E-03 0.  1.
         11   -1    0    0    0    0 -0.00000000000E+00 -0.00000000000E+00 -0.45593999997E+02  0.45594000000E+02  0.51100000000E-03 0. -1.
    9900012    2    1    2    0    0 -0.23309755926E+02  0.20398256494E+02 -0.26338795711E+02  0.50528858976E+02  0.29999997343E+02 0.  0.
        -12    1    1    2    0    0  0.23309755926E+02 -0.20398256494E+02  0.26338795711E+02  0.40659141024E+02  0.00000000000E+00 0.  1.
         11    1    3    3    0    0 -0.87120586022E+01 -0.94943519753E+00 -0.92457482109E+01  0.12739122910E+02  0.51100000000E-03 0. -1.
        -11    1    3    3    0    0 -0.43282689401E+01 -0.41630007980E+01 -0.15545160440E+01  0.62033062195E+01  0.51100000000E-03 0.  1.
         12    1    3    3    0    0 -0.10269428384E+02  0.25510692490E+02 -0.15538531456E+02  0.31586429846E+02  0.00000000000E+00 0. -1.
</event>
<event>
 7    1  0.5992960E-013  0.5052887E+02  0.7816164E-02  0.1300439E+00
        -11   -1    0    0    0    0  0.00000000000E+00  0.00000000000E+00  0.45593999997E+02  0.45594000000E+02  0.51100000000E-03 0.  1.
         11   -1    0    0    0    0 -0.00000000000E+00 -0.00000000000E+00 -0.45593999997E+02  0.45594000000E+02  0.51100000000E-03 0. -1.
    9900012    2    1    2    0    0 -0.27312305850E+02 -0.18247415475E+02 -0.23963185319E+02  0.50528874665E+02  0.30000045032E+02 0.  0.
        -12    1    1    2    0    0  0.27312305850E+02  0.18247415475E+02  0.23963185319E+02  0.40659125335E+02  0.00000000000E+00 0.  1.
         11    1    3    3    0    0 -0.45588688761E+01 -0.17107927524E+02 -0.10575566146E+02  0.20622974305E+02  0.51100000000E-03 0. -1.
        -11    1    3    3    0    0 -0.77387153854E+00 -0.39370212311E+01  0.11901447347E-01  0.40123752614E+01  0.51100000000E-03 0.  1.
         12    1    3    3    0    0 -0.21979565435E+02  0.27975332803E+01 -0.13399520621E+02  0.25893525099E+02  0.00000000000E+00 0. -1.
</event>
<event>
 7    1  0.5992960E-013  0.5052885E+02  0.7816164E-02  0.1300439E+00
        -11   -1    0    0    0    0  0.00000000000E+00  0.00000000000E+00  0.45593999997E+02  0.45594000000E+02  0.51100000000E-03 0.  1.
         11   -1    0    0    0    0 -0.00000000000E+00 -0.00000000000E+00 -0.45593999997E+02  0.45594000000E+02  0.51100000000E-03 0. -1.
    9900012    2    1    2    0    0  0.16415077568E+02 -0.16226376462E+02 -0.33472615998E+02  0.50528854824E+02  0.29999984725E+02 0.  0.
        -12    1    1    2    0    0 -0.16415077568E+02  0.16226376462E+02  0.33472615998E+02  0.40659145176E+02  0.00000000000E+00 0.  1.
         11    1    3    3    0    0  0.92471621463E+01  0.16301623849E+01 -0.11395174040E+02  0.14765413263E+02  0.51100000000E-03 0. -1.
        -11    1    3    3    0    0 -0.11711877584E+01  0.40066864499E+01 -0.10508330828E+01  0.43045867981E+01  0.51100000000E-03 0.  1.
        -12    1    3    3    0    0  0.83391031802E+01 -0.21863225297E+02 -0.21026608875E+02  0.31458854764E+02  0.00000000000E+00 0.  1.
</event>
<event>
 7    1  0.5992960E-013  0.5052887E+02  0.7816164E-02  0.1300439E+00
        -11   -1    0    0    0    0  0.00000000000E+00  0.00000000000E+00  0.45593999997E+02  0.45594000000E+02  0.51100000000E-03 0.  1.
         11   -1    0    0    0    0 -0.00000000000E+00 -0.00000000000E+00 -0.45593999997E+02  0.45594000000E+02  0.51100000000E-03 0. -1.
    9900012    2    1    2    0    0 -0.12041411110E+02 -0.13278027096E+02 -0.36494703411E+02  0.50528868650E+02  0.30000026750E+02 0.  0.
        -12    1    1    2    0    0  0.12041411110E+02  0.13278027096E+02  0.36494703411E+02  0.40659131350E+02  0.00000000000E+00 0.  1.
         11    1    3    3    0    0  0.17839204996E+01 -0.19309667589E+01 -0.19918451960E+02  0.20091185473E+02  0.51100000000E-03 0. -1.
        -11    1    3    3    0    0  0.28724355752E+01 -0.58204324544E+01 -0.33799313111E+00  0.64994276446E+01  0.51100000000E-03 0.  1.
         12    1    3    3    0    0 -0.16697767184E+02 -0.55266278833E+01 -0.16238258320E+02  0.23938255533E+02  0.00000000000E+00 0. -1.
</event>
<event>
 7    1  0.5992960E-013  0.5052885E+02  0.7816164E-02  0.1300439E+00
        -11   -1    0    0    0    0  0.00000000000E+00  0.00000000000E+00  0.45593999997E+02  0.45594000000E+02  0.51100000000E-03 0.  1.
         11   -1    0    0    0    0 -0.00000000000E+00 -0.00000000000E+00 -0.45593999997E+02  0.45594000000E+02  0.51100000000E-03 0. -1.
    9900012    2    1    2    0    0 -0.10916110939E+02 -0.29731233433E+02 -0.25496251668E+02  0.50528848895E+02  0.29999966701E+02 0.  0.
        -12    1    1    2    0    0  0.10916110939E+02  0.29731233433E+02  0.25496251668E+02  0.40659151105E+02  0.00000000000E+00 0.  1.
         11    1    3    3    0    0  0.10236522810E+00  0.27632278437E+01 -0.25218063351E+01  0.37423808210E+01  0.51100000000E-03 0.  1.
        -11    1    3    3    0    0 -0.11804985218E+02 -0.22511361808E+02 -0.45591492486E+01  0.25824502485E+02  0.51100000000E-03 0. -1.
         12    1    3    3    0    0  0.78650905109E+00 -0.99830994687E+01 -0.18415296084E+02  0.20961965589E+02  0.00000000000E+00 0. -1.
</event>
<event>
 7    1  0.5992960E-013  0.5052885E+02  0.7816164E-02  0.1300439E+00
        -11   -1    0    0    0    0  0.00000000000E+00  0.00000000000E+00  0.45593999997E+02  0.45594000000E+02  0.51100000000E-03 0.  1.
         11   -1    0    0    0    0 -0.00000000000E+00 -0.00000000000E+00 -0.45593999997E+02  0.45594000000E+02  0.51100000000E-03 0. -1.
    9900012    2    1    2    0    0  0.82502843144E+01  0.99564317287E+01 -0.38548262302E+02  0.50528852806E+02  0.29999978588E+02 0.  0.
        -12    1    1    2    0    0 -0.82502843144E+01 -0.99564317287E+01  0.38548262302E+02  0.40659147194E+02  0.00000000000E+00 0.  1.
         11    1    3    3    0    0 -0.78809242294E+00 -0.49135460210E+01 -0.37714438686E+01  0.62440222039E+01  0.51100000000E-03 0. -1.
        -11    1    3    3    0    0 -0.63924512714E+01  0.84875099128E+00 -0.65386715711E+01  0.91835743411E+01  0.51100000000E-03 0.  1.
         12    1    3    3    0    0  0.15430828009E+02  0.14021226758E+02 -0.28238146863E+02  0.35101256261E+02  0.00000000000E+00 0. -1.
</event>
<event>
 7    1  0.5992960E-013  0.5052886E+02  0.7816164E-02  0.1300439E+00
        -11   -1    0    0    0    0  0.00000000000E+00  0.00000000000E+00  0.45593999997E+02  0.45594000000E+02  0.51100000000E-03 0.  1.
         11   -1    0    0    0    0 -0.00000000000E+00 -0.00000000000E+00 -0.45593999997E+02  0.45594000000E+02  0.51100000000E-03 0. -1.
    9900012    2    1    2    0    0 -0.21282501853E+02 -0.12167652432E+02 -0.32437160279E+02  0.50528855668E+02  0.29999987287E+02 0.  0.
        -12    1    1    2    0    0  0.21282501853E+02  0.12167652432E+02  0.32437160279E+02  0.40659144332E+02  0.00000000000E+00 0.  1.
         11    1    3    3    0    0 -0.21880244543E+02 -0.35680341313E+01 -0.19684974491E+02  0.29647498879E+02  0.51100000000E-03 0. -1.
        -11    1    3    3    0    0 -0.93943752378E+00 -0.11036145804E+02 -0.41809063601E+01  0.11838878128E+02  0.51100000000E-03 0.  1.
        -12    1    3    3    0    0  0.15371802138E+01  0.24365275033E+01 -0.85712794286E+01  0.90424786606E+01  0.00000000000E+00 0.  1.
</event>
<event>
 7    1  0.5992960E-013  0.5052886E+02  0.7816164E-02  0.1300439E+00
        -11   -1    0    0    0    0  0.00000000000E+00  0.00000000000E+00  0.45593999997E+02  0.45594000000E+02  0.51100000000E-03 0.  1.
         11   -1    0    0    0    0 -0.00000000000E+00 -0.00000000000E+00 -0.45593999997E+02  0.45594000000E+02  0.51100000000E-03 0. -1.
    9900012    2    1    2    0    0 -0.28969203419E+02 -0.21383656988E+02 -0.18886233429E+02  0.50528863929E+02  0.30000012398E+02 0.  0.
        -12    1    1    2    0    0  0.28969203419E+02  0.21383656988E+02  0.18886233429E+02  0.40659136071E+02  0.00000000000E+00 0.  1.
         11    1    3    3    0    0 -0.11370298688E+02 -0.91969428328E+01 -0.15081678251E+02  0.21007724028E+02  0.51100000000E-03 0. -1.
        -11    1    3    3    0    0 -0.97282768740E+01  0.80818209630E+00 -0.91853494592E+01  0.13403849230E+02  0.51100000000E-03 0.  1.
         12    1    3    3    0    0 -0.78706278570E+01 -0.12994896252E+02  0.53807942809E+01  0.16117290670E+02  0.00000000000E+00 0. -1.
</event>
<event>
 7    1  0.5992960E-013  0.5052886E+02  0.7816164E-02  0.1300439E+00
        -11   -1    0    0    0    0  0.00000000000E+00  0.00000000000E+00  0.45593999997E+02  0.45594000000E+02  0.51100000000E-03 0.  1.
         11   -1    0    0    0    0 -0.00000000000E+00 -0.00000000000E+00 -0.45593999997E+02  0.45594000000E+02  0.51100000000E-03 0. -1.
    9900012    2    1    2    0    0 -0.40336579993E+01 -0.22659163713E+02 -0.33518020411E+02  0.50528858479E+02  0.29999995832E+02 0.  0.
        -12    1    1    2    0    0  0.40336579993E+01  0.22659163713E+02  0.33518020411E+02  0.40659141521E+02  0.00000000000E+00 0.  1.
         11    1    3    3    0    0  0.55531086954E+01  0.97446435693E+00 -0.18430662634E+01  0.59315672868E+01  0.51100000000E-03 0. -1.
        -11    1    3    3    0    0 -0.26229273745E+01  0.28229523780E+01 -0.24542200731E+01  0.45685889034E+01  0.51100000000E-03 0.  1.
         12    1    3    3    0    0 -0.69638393202E+01 -0.26456580448E+02 -0.29220734074E+02  0.40028702288E+02  0.00000000000E+00 0. -1.
</event>
<event>
 7    1  0.5992960E-013  0.5052891E+02  0.7816164E-02  0.1300439E+00
        -11   -1    0    0    0    0  0.00000000000E+00  0.00000000000E+00  0.45593999997E+02  0.45594000000E+02  0.51100000000E-03 0.  1.
         11   -1    0    0    0    0 -0.00000000000E+00 -0.00000000000E+00 -0.45593999997E+02  0.45594000000E+02  0.51100000000E-03 0. -1.
    9900012    2    1    2    0    0  0.39902150448E+02  0.40795305194E-01  0.78088382124E+01  0.50528914560E+02  0.30000166296E+02 0.  0.
        -12    1    1    2    0    0 -0.39902150448E+02 -0.40795305194E-01 -0.78088382124E+01  0.40659085440E+02  0.00000000000E+00 0.  1.
         11    1    3    3    0    0  0.17693749938E+02  0.17313859071E+01 -0.37419786225E+01  0.18167798114E+02  0.51100000000E-03 0. -1.
        -11    1    3    3    0    0  0.26435254683E+01 -0.73363025836E+01  0.88890046256E+01  0.11824718432E+02  0.51100000000E-03 0.  1.
         12    1    3    3    0    0  0.19564875041E+02  0.56457119816E+01  0.26618122093E+01  0.20536398014E+02  0.00000000000E+00 0. -1.
</event>
<event>
 7    1  0.5992960E-013  0.5052881E+02  0.7816164E-02  0.1300439E+00
        -11   -1    0    0    0    0  0.00000000000E+00  0.00000000000E+00  0.45593999997E+02  0.45594000000E+02  0.51100000000E-03 0. -1.
         11   -1    0    0    0    0 -0.00000000000E+00 -0.00000000000E+00 -0.45593999997E+02  0.45594000000E+02  0.51100000000E-03 0.  1.
    9900012    2    1    2    0    0  0.39611400303E+02  0.65298425999E+01  0.64395352034E+01  0.50528812944E+02  0.29999857426E+02 0.  0.
        -12    1    1    2    0    0 -0.39611400303E+02 -0.65298425999E+01 -0.64395352034E+01  0.40659187056E+02  0.00000000000E+00 0.  1.
         11    1    3    3    0    0  0.24064001796E+02 -0.28588366563E+01  0.33990308343E+00  0.24235607354E+02  0.51100000000E-03 0.  1.
        -11    1    3    3    0    0  0.11928917723E+02 -0.32589731759E+01  0.38151381420E+01  0.12941223416E+02  0.51100000000E-03 0. -1.
        -12    1    3    3    0    0  0.36184807841E+01  0.12647652432E+02  0.22844939780E+01  0.13351982174E+02  0.00000000000E+00 0.  1.
</event>
<event>
 7    1  0.5992960E-013  0.5052884E+02  0.7816164E-02  0.1300439E+00
        -11   -1    0    0    0    0  0.00000000000E+00  0.00000000000E+00  0.45593999997E+02  0.45594000000E+02  0.51100000000E-03 0.  1.
         11   -1    0    0    0    0 -0.00000000000E+00 -0.00000000000E+00 -0.45593999997E+02  0.45594000000E+02  0.51100000000E-03 0. -1.
    9900012    2    1    2    0    0  0.11051803496E+02  0.47069940094E+01 -0.38844159926E+02  0.50528844654E+02  0.29999953810E+02 0.  0.
        -12    1    1    2    0    0 -0.11051803496E+02 -0.47069940094E+01  0.38844159926E+02  0.40659155346E+02  0.00000000000E+00 0.  1.
         11    1    3    3    0    0  0.94641086083E+01 -0.70948029943E+00 -0.18074525894E+02  0.20414729991E+02  0.51100000000E-03 0. -1.
        -11    1    3    3    0    0 -0.16567537376E+01  0.13481486628E+01  0.41444073442E+01  0.46624511000E+01  0.51100000000E-03 0.  1.
         12    1    3    3    0    0  0.32444486256E+01  0.40683256460E+01 -0.24914041376E+02  0.25451663563E+02  0.00000000000E+00 0. -1.
</event>
<event>
 7    1  0.5992960E-013  0.5052886E+02  0.7816164E-02  0.1300439E+00
        -11   -1    0    0    0    0  0.00000000000E+00  0.00000000000E+00  0.45593999997E+02  0.45594000000E+02  0.51100000000E-03 0.  1.
         11   -1    0    0    0    0 -0.00000000000E+00 -0.00000000000E+00 -0.45593999997E+02  0.45594000000E+02  0.51100000000E-03 0. -1.
    9900012    2    1    2    0    0 -0.30356441965E+00 -0.38027337814E+01 -0.40479777159E+02  0.50528864564E+02  0.30000014328E+02 0.  0.
        -12    1    1    2    0    0  0.30356441965E+00  0.38027337814E+01  0.40479777159E+02  0.40659135436E+02  0.00000000000E+00 0.  1.
         11    1    3    3    0    0  0.63004410001E+00  0.25996740366E+01 -0.47768469728E+01  0.54748084832E+01  0.51100000000E-03 0. -1.
        -11    1    3    3    0    0  0.80342646247E+01  0.89296701351E+00 -0.31863085911E+02  0.32872527165E+02  0.51100000000E-03 0.  1.
        -12    1    3    3    0    0 -0.89678731444E+01 -0.72953748315E+01 -0.38398442750E+01  0.12181528916E+02  0.00000000000E+00 0.  1.
</event>
<event>
 7    1  0.5992960E-013  0.5052886E+02  0.7816164E-02  0.1300439E+00
        -11   -1    0    0    0    0  0.00000000000E+00  0.00000000000E+00  0.45593999997E+02  0.45594000000E+02  0.51100000000E-03 0. -1.
         11   -1    0    0    0    0 -0.00000000000E+00 -0.00000000000E+00 -0.45593999997E+02  0.45594000000E+02  0.51100000000E-03 0.  1.
    9900012    2    1    2    0    0  0.33343428174E+02  0.22547038651E+02 -0.57456478654E+01  0.50528860514E+02  0.30000002019E+02 0.  0.
        -12    1    1    2    0    0 -0.33343428174E+02 -0.22547038651E+02  0.57456478654E+01  0.40659139486E+02  0.00000000000E+00 0.  1.
         11    1    3    3    0    0  0.17018465004E+02  0.20321434339E+02 -0.19705149971E+01  0.26579536759E+02  0.51100000000E-03 0. -1.
        -11    1    3    3    0    0  0.49762381969E+01  0.79253252995E+01 -0.59149387869E+01  0.11070692337E+02  0.51100000000E-03 0.  1.
        -12    1    3    3    0    0  0.11348724973E+02 -0.56997209879E+01  0.21398059186E+01  0.12878631419E+02  0.00000000000E+00 0.  1.
</event>
<event>
 7    1  0.5992960E-013  0.5052886E+02  0.7816164E-02  0.1300439E+00
        -11   -1    0    0    0    0  0.00000000000E+00  0.00000000000E+00  0.45593999997E+02  0.45594000000E+02  0.51100000000E-03 0.  1.
         11   -1    0    0    0    0 -0.00000000000E+00 -0.00000000000E+00 -0.45593999997E+02  0.45594000000E+02  0.51100000000E-03 0. -1.
    9900012    2    1    2    0    0 -0.10187570167E+02  0.64747720585E+01 -0.38825977494E+02  0.50528858500E+02  0.29999995897E+02 0.  0.
        -12    1    1    2    0    0  0.10187570167E+02 -0.64747720585E+01  0.38825977494E+02  0.40659141500E+02  0.00000000000E+00 0.  1.
         11    1    3    3    0    0 -0.30824486412E+01  0.13282276348E+01  0.73111381114E-01  0.33572345480E+01  0.51100000000E-03 0. -1.
        -11    1    3    3    0    0 -0.82563138660E+01 -0.44934471889E+01 -0.28268396141E+01  0.98157429040E+01  0.51100000000E-03 0.  1.
         12    1    3    3    0    0  0.11511923406E+01  0.96399916126E+01 -0.36072249261E+02  0.37355881048E+02  0.00000000000E+00 0. -1.
</event>
<event>
 7    1  0.5992960E-013  0.5052884E+02  0.7816164E-02  0.1300439E+00
        -11   -1    0    0    0    0  0.00000000000E+00  0.00000000000E+00  0.45593999997E+02  0.45594000000E+02  0.51100000000E-03 0.  1.
         11   -1    0    0    0    0 -0.00000000000E+00 -0.00000000000E+00 -0.45593999997E+02  0.45594000000E+02  0.51100000000E-03 0. -1.
    9900012    2    1    2    0    0  0.38019416022E+02 -0.10529888437E+02 -0.98393300773E+01  0.50528844063E+02  0.29999952013E+02 0.  0.
        -12    1    1    2    0    0 -0.38019416022E+02  0.10529888437E+02  0.98393300773E+01  0.40659155937E+02  0.00000000000E+00 0.  1.
         11    1    3    3    0    0  0.88533630477E+01 -0.40532663208E+01 -0.13709388119E+02  0.16815419352E+02  0.51100000000E-03 0. -1.
        -11    1    3    3    0    0  0.92262145565E+01 -0.78174674252E+01  0.62063702151E+01  0.13592456124E+02  0.51100000000E-03 0.  1.
         12    1    3    3    0    0  0.19939838418E+02  0.13408453094E+01 -0.23363121734E+01  0.20120968586E+02  0.00000000000E+00 0. -1.
</event>
<event>
 7    1  0.5992960E-013  0.5052887E+02  0.7816164E-02  0.1300439E+00
        -11   -1    0    0    0    0  0.00000000000E+00  0.00000000000E+00  0.45593999997E+02  0.45594000000E+02  0.51100000000E-03 0.  1.
         11   -1    0    0    0    0 -0.00000000000E+00 -0.00000000000E+00 -0.45593999997E+02  0.45594000000E+02  0.51100000000E-03 0. -1.
    9900012    2    1    2    0    0 -0.21299528976E+02  0.24780341320E+02 -0.24195651763E+02  0.50528870462E+02  0.30000032257E+02 0.  0.
        -12    1    1    2    0    0  0.21299528976E+02 -0.24780341320E+02  0.24195651763E+02  0.40659129538E+02  0.00000000000E+00 0.  1.
         11    1    3    3    0    0  0.49423023626E+00  0.19055267566E+01 -0.31458260629E+01  0.37109995454E+01  0.51100000000E-03 0. -1.
        -11    1    3    3    0    0 -0.63260944582E+01 -0.51331151528E+01 -0.10154316146E+02  0.13018390028E+02  0.51100000000E-03 0.  1.
         12    1    3    3    0    0 -0.15467664754E+02  0.28007929716E+02 -0.10895509554E+02  0.33799480889E+02  0.00000000000E+00 0. -1.
</event>
<event>
 7    1  0.5992960E-013  0.5052887E+02  0.7816164E-02  0.1300439E+00
        -11   -1    0    0    0    0  0.00000000000E+00  0.00000000000E+00  0.45593999997E+02  0.45594000000E+02  0.51100000000E-03 0. -1.
         11   -1    0    0    0    0 -0.00000000000E+00 -0.00000000000E+00 -0.45593999997E+02  0.45594000000E+02  0.51100000000E-03 0.  1.
    9900012    2    1    2    0    0  0.26974299875E+02  0.22330749088E+02 -0.20661306956E+02  0.50528870476E+02  0.30000032297E+02 0.  0.
        -12    1    1    2    0    0 -0.26974299875E+02 -0.22330749088E+02  0.20661306956E+02  0.40659129524E+02  0.00000000000E+00 0.  1.
         11    1    3    3    0    0  0.12075270661E+02  0.19982211279E+02 -0.14473865211E+02  0.27469869012E+02  0.51100000000E-03 0. -1.
        -11    1    3    3    0    0  0.56387969254E+01  0.69921990692E+01 -0.85855619942E+01  0.12425729500E+02  0.51100000000E-03 0.  1.
         12    1    3    3    0    0  0.92602322878E+01 -0.46436612604E+01  0.23981202485E+01  0.10633271964E+02  0.00000000000E+00 0. -1.
</event>
<event>
 7    1  0.5992960E-013  0.5052886E+02  0.7816164E-02  0.1300439E+00
        -11   -1    0    0    0    0  0.00000000000E+00  0.00000000000E+00  0.45593999997E+02  0.45594000000E+02  0.51100000000E-03 0.  1.
         11   -1    0    0    0    0 -0.00000000000E+00 -0.00000000000E+00 -0.45593999997E+02  0.45594000000E+02  0.51100000000E-03 0. -1.
    9900012    2    1    2    0    0 -0.36212900191E+01  0.40185100931E+02 -0.50209138533E+01  0.50528860140E+02  0.30000000880E+02 0.  0.
        -12    1    1    2    0    0  0.36212900191E+01 -0.40185100931E+02  0.50209138533E+01  0.40659139860E+02  0.00000000000E+00 0.  1.
         11    1    3    3    0    0 -0.92998838430E+01  0.11719042501E+02 -0.52213824825E+01  0.15845713361E+02  0.51100000000E-03 0. -1.
        -11    1    3    3    0    0 -0.36416260700E+01  0.15879255065E+02  0.68437656181E+01  0.17670577522E+02  0.51100000000E-03 0.  1.
         12    1    3    3    0    0  0.93202198940E+01  0.12586803366E+02 -0.66432969889E+01  0.17012569257E+02  0.00000000000E+00 0. -1.
</event>
<event>
 7    1  0.7554359E-013  0.5052886E+02  0.7816164E-02  0.1300439E+00
        -11   -1    0    0    0    0  0.00000000000E+00  0.00000000000E+00  0.45593999997E+02  0.45594000000E+02  0.51100000000E-03 0.  1.
         11   -1    0    0    0    0 -0.00000000000E+00 -0.00000000000E+00 -0.45593999997E+02  0.45594000000E+02  0.51100000000E-03 0. -1.
    9900012    2    1    2    0    0  0.90700497160E+01  0.23931200185E+02 -0.31594269910E+02  0.50528855453E+02  0.29999986636E+02 0.  0.
        -12    1    1    2    0    0 -0.90700497160E+01 -0.23931200185E+02  0.31594269910E+02  0.40659144547E+02  0.00000000000E+00 0.  1.
         11    1    3    3    0    0 -0.79364688934E+01  0.17931425441E+01 -0.52051221721E+01  0.96589955879E+01  0.51100000000E-03 0. -1.
        -11    1    3    3    0    0  0.22533410836E+01  0.49931377180E+00  0.13879455106E+01  0.26931864553E+01  0.51100000000E-03 0.  1.
         12    1    3    3    0    0  0.14753177526E+02  0.21638743869E+02 -0.27777093248E+02  0.38176673410E+02  0.00000000000E+00 0. -1.
</event>
<event>
 7    1  0.5992960E-013  0.5052892E+02  0.7816164E-02  0.1300439E+00
        -11   -1    0    0    0    0  0.00000000000E+00  0.00000000000E+00  0.45593999997E+02  0.45594000000E+02  0.51100000000E-03 0.  1.
         11   -1    0    0    0    0 -0.00000000000E+00 -0.00000000000E+00 -0.45593999997E+02  0.45594000000E+02  0.51100000000E-03 0. -1.
    9900012    2    1    2    0    0  0.16534727477E+02 -0.26232236890E+02 -0.26298917409E+02  0.50528923253E+02  0.30000192721E+02 0.  0.
        -12    1    1    2    0    0 -0.16534727477E+02  0.26232236890E+02  0.26298917409E+02  0.40659076747E+02  0.00000000000E+00 0.  1.
         11    1    3    3    0    0  0.82427859203E+01 -0.14208274128E+02 -0.17050600017E+02  0.23675758375E+02  0.51100000000E-03 0. -1.
        -11    1    3    3    0    0  0.10557074122E+02 -0.14104908116E+02 -0.54972528894E+00  0.17626753676E+02  0.51100000000E-03 0.  1.
        -12    1    3    3    0    0 -0.22651325657E+01  0.20809453542E+01 -0.86985921029E+01  0.92264112026E+01  0.00000000000E+00 0.  1.
</event>
<event>
 7    1  0.5992960E-013  0.5052885E+02  0.7816164E-02  0.1300439E+00
        -11   -1    0    0    0    0  0.00000000000E+00  0.00000000000E+00  0.45593999997E+02  0.45594000000E+02  0.51100000000E-03 0.  1.
         11   -1    0    0    0    0 -0.00000000000E+00 -0.00000000000E+00 -0.45593999997E+02  0.45594000000E+02  0.51100000000E-03 0. -1.
    9900012    2    1    2    0    0 -0.25985829616E+02 -0.30658271809E+02  0.61622969421E+01  0.50528845130E+02  0.29999955256E+02 0.  0.
        -12    1    1    2    0    0  0.25985829616E+02  0.30658271809E+02 -0.61622969421E+01  0.40659154870E+02  0.00000000000E+00 0.  1.
         11    1    3    3    0    0 -0.17875183729E+02 -0.96100514692E+01  0.84353476499E+01  0.21977951970E+02  0.51100000000E-03 0. -1.
        -11    1    3    3    0    0 -0.90015526198E+01 -0.18253777579E+02  0.47851352931E+01  0.20907555226E+02  0.51100000000E-03 0.  1.
        -12    1    3    3    0    0  0.89090673220E+00 -0.27944427606E+01 -0.70581860008E+01  0.76433379338E+01  0.00000000000E+00 0.  1.
</event>
<event>
 7    1  0.5992960E-013  0.5052885E+02  0.7816164E-02  0.1300439E+00
        -11   -1    0    0    0    0  0.00000000000E+00  0.00000000000E+00  0.45593999997E+02  0.45594000000E+02  0.51100000000E-03 0.  1.
         11   -1    0    0    0    0 -0.00000000000E+00 -0.00000000000E+00 -0.45593999997E+02  0.45594000000E+02  0.51100000000E-03 0. -1.
    9900012    2    1    2    0    0  0.86475291161E+01  0.87269992430E+01 -0.38758561480E+02  0.50528851415E+02  0.29999974362E+02 0.  0.
        -12    1    1    2    0    0 -0.86475291161E+01 -0.87269992430E+01  0.38758561480E+02  0.40659148585E+02  0.00000000000E+00 0.  1.
         11    1    3    3    0    0  0.39060710369E+01  0.49745456666E+01 -0.38642646587E+02  0.39156833772E+02  0.51100000000E-03 0. -1.
        -11    1    3    3    0    0 -0.30264240723E+00  0.71255658686E+00 -0.41577206679E+01  0.42291808580E+01  0.51100000000E-03 0.  1.
        -12    1    3    3    0    0  0.50441004865E+01  0.30398969896E+01  0.40418057747E+01  0.71428367856E+01  0.00000000000E+00 0.  1.
</event>
<event>
 7    1  0.7312867E-013  0.5052887E+02  0.7816164E-02  0.1300439E+00
        -11   -1    0    0    0    0  0.00000000000E+00  0.00000000000E+00  0.45593999997E+02  0.45594000000E+02  0.51100000000E-03 0. -1.
         11   -1    0    0    0    0 -0.00000000000E+00 -0.00000000000E+00 -0.45593999997E+02  0.45594000000E+02  0.51100000000E-03 0.  1.
    9900012    2    1    2    0    0  0.12757056687E+02 -0.14988534624E+02  0.35577603055E+02  0.50528874276E+02  0.30000043849E+02 0.  0.
        -12    1    1    2    0    0 -0.12757056687E+02  0.14988534624E+02 -0.35577603055E+02  0.40659125724E+02  0.00000000000E+00 0.  1.
         11    1    3    3    0    0 -0.14868493549E+01 -0.81553372082E+01  0.22468249926E+02  0.23948747378E+02  0.51100000000E-03 0. -1.
        -11    1    3    3    0    0 -0.28486103973E+01 -0.16315813127E+01 -0.13954710255E+01  0.35670686031E+01  0.51100000000E-03 0.  1.
         12    1    3    3    0    0  0.17092516439E+02 -0.52016161031E+01  0.14504824155E+02  0.23013058294E+02  0.00000000000E+00 0. -1.
</event>
<event>
 7    1  0.5992960E-013  0.5052885E+02  0.7816164E-02  0.1300439E+00
        -11   -1    0    0    0    0  0.00000000000E+00  0.00000000000E+00  0.45593999997E+02  0.45594000000E+02  0.51100000000E-03 0. -1.
         11   -1    0    0    0    0 -0.00000000000E+00 -0.00000000000E+00 -0.45593999997E+02  0.45594000000E+02  0.51100000000E-03 0.  1.
    9900012    2    1    2    0    0 -0.18830380676E+02 -0.19368648636E+02  0.30388128610E+02  0.50528854082E+02  0.29999982468E+02 0.  0.
        -12    1    1    2    0    0  0.18830380676E+02  0.19368648636E+02 -0.30388128610E+02  0.40659145918E+02  0.00000000000E+00 0.  1.
         11    1    3    3    0    0 -0.28865148810E+01  0.23372444057E+01  0.10316786131E+02  0.10964978609E+02  0.51100000000E-03 0. -1.
        -11    1    3    3    0    0 -0.70849857194E+01 -0.92278277219E+01  0.21238753509E+02  0.24216409271E+02  0.51100000000E-03 0.  1.
        -12    1    3    3    0    0 -0.88588800753E+01 -0.12478065319E+02 -0.11674110297E+01  0.15347466202E+02  0.00000000000E+00 0.  1.
</event>
<event>
 7    1  0.5992960E-013  0.5052886E+02  0.7816164E-02  0.1300439E+00
        -11   -1    0    0    0    0  0.00000000000E+00  0.00000000000E+00  0.45593999997E+02  0.45594000000E+02  0.51100000000E-03 0. -1.
         11   -1    0    0    0    0 -0.00000000000E+00 -0.00000000000E+00 -0.45593999997E+02  0.45594000000E+02  0.51100000000E-03 0.  1.
    9900012    2    1    2    0    0 -0.39157757539E+02  0.51892553064E+01  0.96388550647E+01  0.50528857448E+02  0.29999992699E+02 0.  0.
        -12    1    1    2    0    0  0.39157757539E+02 -0.51892553064E+01 -0.96388550647E+01  0.40659142552E+02  0.00000000000E+00 0.  1.
         11    1    3    3    0    0 -0.53367109192E+01 -0.76972220937E+01  0.51556516519E+01  0.10691513252E+02  0.51100000000E-03 0. -1.
        -11    1    3    3    0    0 -0.67242532046E+01 -0.33310557135E+01 -0.16120665915E+01  0.76753027486E+01  0.51100000000E-03 0.  1.
         12    1    3    3    0    0 -0.27096793415E+02  0.16217533114E+02  0.60952700043E+01  0.32162041448E+02  0.00000000000E+00 0. -1.
</event>
<event>
 7    1  0.5992960E-013  0.5052886E+02  0.7816164E-02  0.1300439E+00
        -11   -1    0    0    0    0  0.00000000000E+00  0.00000000000E+00  0.45593999997E+02  0.45594000000E+02  0.51100000000E-03 0.  1.
         11   -1    0    0    0    0 -0.00000000000E+00 -0.00000000000E+00 -0.45593999997E+02  0.45594000000E+02  0.51100000000E-03 0. -1.
    9900012    2    1    2    0    0  0.12337126358E+02 -0.38735669668E+02 -0.71320864152E+00  0.50528862553E+02  0.30000008215E+02 0.  0.
        -12    1    1    2    0    0 -0.12337126358E+02  0.38735669668E+02  0.71320864152E+00  0.40659137447E+02  0.00000000000E+00 0.  1.
         11    1    3    3    0    0  0.14334362809E+02 -0.18283721299E+02 -0.60965737489E+01  0.24019505270E+02  0.51100000000E-03 0. -1.
        -11    1    3    3    0    0  0.66724857702E+01 -0.58979713871E+01  0.30259883785E+01  0.94055695609E+01  0.51100000000E-03 0.  1.
         12    1    3    3    0    0 -0.86697222212E+01 -0.14553976982E+02  0.23573767289E+01  0.17103787721E+02  0.00000000000E+00 0. -1.
</event>
<event>
 7    1  0.5992960E-013  0.5052886E+02  0.7816164E-02  0.1300439E+00
        -11   -1    0    0    0    0  0.00000000000E+00  0.00000000000E+00  0.45593999997E+02  0.45594000000E+02  0.51100000000E-03 0.  1.
         11   -1    0    0    0    0 -0.00000000000E+00 -0.00000000000E+00 -0.45593999997E+02  0.45594000000E+02  0.51100000000E-03 0. -1.
    9900012    2    1    2    0    0 -0.11430891427E+02 -0.33472343498E+02 -0.20052505147E+02  0.50528855632E+02  0.29999987180E+02 0.  0.
        -12    1    1    2    0    0  0.11430891427E+02  0.33472343498E+02  0.20052505147E+02  0.40659144368E+02  0.00000000000E+00 0.  1.
         11    1    3    3    0    0 -0.44727817244E+01 -0.24079471553E+02 -0.11561223567E+02  0.27082994983E+02  0.51100000000E-03 0. -1.
        -11    1    3    3    0    0  0.33239588456E+01 -0.10749823015E+02 -0.27163864649E+01  0.11575238786E+02  0.51100000000E-03 0.  1.
         12    1    3    3    0    0 -0.10282068548E+02  0.13569510702E+01 -0.57748951148E+01  0.11870621864E+02  0.00000000000E+00 0. -1.
</event>
<event>
 7    1  0.5992960E-013  0.5052886E+02  0.7816164E-02  0.1300439E+00
        -11   -1    0    0    0    0  0.00000000000E+00  0.00000000000E+00  0.45593999997E+02  0.45594000000E+02  0.51100000000E-03 0. -1.
         11   -1    0    0    0    0 -0.00000000000E+00 -0.00000000000E+00 -0.45593999997E+02  0.45594000000E+02  0.51100000000E-03 0.  1.
    9900012    2    1    2    0    0  0.18323732142E+02  0.23426564308E+02  0.27723679717E+02  0.50528862135E+02  0.30000006945E+02 0.  0.
        -12    1    1    2    0    0 -0.18323732142E+02 -0.23426564308E+02 -0.27723679717E+02  0.40659137865E+02  0.00000000000E+00 0.  1.
         11    1    3    3    0    0  0.43100085250E+01  0.10813028124E+02  0.43248381827E+01  0.12417808835E+02  0.51100000000E-03 0. -1.
        -11    1    3    3    0    0  0.11062773968E+02  0.19256542303E+02  0.20693753752E+02  0.30355079212E+02  0.51100000000E-03 0.  1.
        -12    1    3    3    0    0  0.29509496484E+01 -0.66430061197E+01  0.27050877828E+01  0.77559740875E+01  0.00000000000E+00 0.  1.
</event>
<event>
 7    1  0.5992960E-013  0.5052886E+02  0.7816164E-02  0.1300439E+00
        -11   -1    0    0    0    0  0.00000000000E+00  0.00000000000E+00  0.45593999997E+02  0.45594000000E+02  0.51100000000E-03 0. -1.
         11   -1    0    0    0    0 -0.00000000000E+00 -0.00000000000E+00 -0.45593999997E+02  0.45594000000E+02  0.51100000000E-03 0.  1.
    9900012    2    1    2    0    0  0.25285192514E+02  0.31840585496E+02  0.40117273831E-01  0.50528862594E+02  0.30000008342E+02 0.  0.
        -12    1    1    2    0    0 -0.25285192514E+02 -0.31840585496E+02 -0.40117273831E-01  0.40659137406E+02  0.00000000000E+00 0.  1.
         11    1    3    3    0    0  0.10134358145E+02  0.62128897552E+01 -0.37258730934E+01  0.12457421269E+02  0.51100000000E-03 0. -1.
        -11    1    3    3    0    0  0.11927932658E+02  0.14825585235E+02 -0.89927558834E+01  0.21046216137E+02  0.51100000000E-03 0.  1.
         12    1    3    3    0    0  0.32229017111E+01  0.10802110506E+02  0.12758746251E+02  0.17025225188E+02  0.00000000000E+00 0. -1.
</event>
<event>
 7    1  0.5992960E-013  0.5052887E+02  0.7816164E-02  0.1300439E+00
        -11   -1    0    0    0    0  0.00000000000E+00  0.00000000000E+00  0.45593999997E+02  0.45594000000E+02  0.51100000000E-03 0.  1.
         11   -1    0    0    0    0 -0.00000000000E+00 -0.00000000000E+00 -0.45593999997E+02  0.45594000000E+02  0.51100000000E-03 0. -1.
    9900012    2    1    2    0    0 -0.21200476342E+02 -0.96887254587E+01 -0.33314161197E+02  0.50528868991E+02  0.30000027785E+02 0.  0.
        -12    1    1    2    0    0  0.21200476342E+02  0.96887254587E+01  0.33314161197E+02  0.40659131009E+02  0.00000000000E+00 0.  1.
         11    1    3    3    0    0 -0.80687413460E+01 -0.99889153041E+00 -0.18489224767E+02  0.20197866321E+02  0.51100000000E-03 0. -1.
        -11    1    3    3    0    0 -0.18736880216E+02 -0.62582088882E+01 -0.84041911755E+01  0.21467796540E+02  0.51100000000E-03 0.  1.
        -12    1    3    3    0    0  0.56051452196E+01 -0.24316250401E+01 -0.64207452548E+01  0.88632061296E+01  0.00000000000E+00 0.  1.
</event>
<event>
 7    1  0.5992960E-013  0.5052886E+02  0.7816164E-02  0.1300439E+00
        -11   -1    0    0    0    0  0.00000000000E+00  0.00000000000E+00  0.45593999997E+02  0.45594000000E+02  0.51100000000E-03 0.  1.
         11   -1    0    0    0    0 -0.00000000000E+00 -0.00000000000E+00 -0.45593999997E+02  0.45594000000E+02  0.51100000000E-03 0. -1.
    9900012    2    1    2    0    0  0.11295295401E+02 -0.10473973826E+02 -0.37628157225E+02  0.50528855370E+02  0.29999986384E+02 0.  0.
        -12    1    1    2    0    0 -0.11295295401E+02  0.10473973826E+02  0.37628157225E+02  0.40659144630E+02  0.00000000000E+00 0.  1.
         11    1    3    3    0    0  0.58207712368E+00 -0.98085091512E+00 -0.97282948315E+01  0.97949274058E+01  0.51100000000E-03 0. -1.
        -11    1    3    3    0    0  0.47014946757E+00  0.53373844898E+01 -0.20604010349E+02  0.21289292060E+02  0.51100000000E-03 0.  1.
        -12    1    3    3    0    0  0.10243068809E+02 -0.14830507401E+02 -0.72958520445E+01  0.19444635904E+02  0.00000000000E+00 0.  1.
</event>
<event>
 7    1  0.5992960E-013  0.5052889E+02  0.7816164E-02  0.1300439E+00
        -11   -1    0    0    0    0  0.00000000000E+00  0.00000000000E+00  0.45593999997E+02  0.45594000000E+02  0.51100000000E-03 0.  1.
         11   -1    0    0    0    0 -0.00000000000E+00 -0.00000000000E+00 -0.45593999997E+02  0.45594000000E+02  0.51100000000E-03 0. -1.
    9900012    2    1    2    0    0 -0.16821135602E+02  0.20336720356E+02 -0.30929437029E+02  0.50528894344E+02  0.30000104849E+02 0.  0.
        -12    1    1    2    0    0  0.16821135602E+02 -0.20336720356E+02  0.30929437029E+02  0.40659105656E+02  0.00000000000E+00 0.  1.
         11    1    3    3    0    0  0.38234382593E+01 -0.13158136053E+01  0.16179425150E+01  0.43552019252E+01  0.51100000000E-03 0. -1.
        -11    1    3    3    0    0  0.43086103514E+00  0.22085633273E+01  0.61550107647E+00  0.23328598412E+01  0.51100000000E-03 0.  1.
         12    1    3    3    0    0 -0.21075434896E+02  0.19443970634E+02 -0.33162880620E+02  0.43840832578E+02  0.00000000000E+00 0. -1.
</event>
<event>
 7    1  0.5992960E-013  0.5052875E+02  0.7816164E-02  0.1300439E+00
        -11   -1    0    0    0    0  0.00000000000E+00  0.00000000000E+00  0.45593999997E+02  0.45594000000E+02  0.51100000000E-03 0. -1.
         11   -1    0    0    0    0 -0.00000000000E+00 -0.00000000000E+00 -0.45593999997E+02  0.45594000000E+02  0.51100000000E-03 0.  1.
    9900012    2    1    2    0    0  0.39434202836E+01 -0.36074429341E+02  0.18337379347E+02  0.50528751395E+02  0.29999670338E+02 0.  0.
        -12    1    1    2    0    0 -0.39434202836E+01  0.36074429341E+02 -0.18337379347E+02  0.40659248605E+02  0.00000000000E+00 0.  1.
         11    1    3    3    0    0  0.59743218889E+01 -0.44112446420E+01  0.50735304587E+01  0.89940153936E+01  0.51100000000E-03 0. -1.
        -11    1    3    3    0    0  0.85846902463E+01 -0.74700173479E+01 -0.11521065455E+01  0.11437893843E+02  0.51100000000E-03 0.  1.
         12    1    3    3    0    0 -0.10615591852E+02 -0.24193167351E+02  0.14415955434E+02  0.30096842159E+02  0.00000000000E+00 0. -1.
</event>
<event>
 7    1  0.5992960E-013  0.5052887E+02  0.7816164E-02  0.1300439E+00
        -11   -1    0    0    0    0  0.00000000000E+00  0.00000000000E+00  0.45593999997E+02  0.45594000000E+02  0.51100000000E-03 0.  1.
         11   -1    0    0    0    0 -0.00000000000E+00 -0.00000000000E+00 -0.45593999997E+02  0.45594000000E+02  0.51100000000E-03 0. -1.
    9900012    2    1    2    0    0 -0.15136040830E+02  0.22241737420E+02 -0.30485580527E+02  0.50528865288E+02  0.30000016530E+02 0.  0.
        -12    1    1    2    0    0  0.15136040830E+02 -0.22241737420E+02  0.30485580527E+02  0.40659134712E+02  0.00000000000E+00 0.  1.
         11    1    3    3    0    0 -0.83315769471E+01 -0.88822104730E+00 -0.16320842529E+02  0.18345953564E+02  0.51100000000E-03 0. -1.
        -11    1    3    3    0    0 -0.41613993927E+00  0.51029443390E+01 -0.11861428033E+02  0.12919237153E+02  0.51100000000E-03 0.  1.
        -12    1    3    3    0    0 -0.63883239431E+01  0.18027014128E+02 -0.23033099648E+01  0.19263674571E+02  0.00000000000E+00 0.  1.
</event>
<event>
 7    1  0.5992960E-013  0.5052886E+02  0.7816164E-02  0.1300439E+00
        -11   -1    0    0    0    0  0.00000000000E+00  0.00000000000E+00  0.45593999997E+02  0.45594000000E+02  0.51100000000E-03 0. -1.
         11   -1    0    0    0    0 -0.00000000000E+00 -0.00000000000E+00 -0.45593999997E+02  0.45594000000E+02  0.51100000000E-03 0.  1.
    9900012    2    1    2    0    0 -0.27953398146E+02 -0.14170685789E+02  0.25902988529E+02  0.50528860580E+02  0.30000002218E+02 0.  0.
        -12    1    1    2    0    0  0.27953398146E+02  0.14170685789E+02 -0.25902988529E+02  0.40659139420E+02  0.00000000000E+00 0.  1.
         11    1    3    3    0    0 -0.13217259580E+02 -0.56406681244E+01  0.10544944867E+02  0.17824392001E+02  0.51100000000E-03 0. -1.
        -11    1    3    3    0    0 -0.94749293215E+01 -0.11450604760E+02  0.20131663500E+02  0.25023479186E+02  0.51100000000E-03 0.  1.
        -12    1    3    3    0    0 -0.52612092450E+01  0.29205870955E+01 -0.47736198377E+01  0.76809893931E+01  0.00000000000E+00 0.  1.
</event>
<event>
 7    1  0.5992960E-013  0.5052886E+02  0.7816164E-02  0.1300439E+00
        -11   -1    0    0    0    0  0.00000000000E+00  0.00000000000E+00  0.45593999997E+02  0.45594000000E+02  0.51100000000E-03 0.  1.
         11   -1    0    0    0    0 -0.00000000000E+00 -0.00000000000E+00 -0.45593999997E+02  0.45594000000E+02  0.51100000000E-03 0. -1.
    9900012    2    1    2    0    0 -0.33707011661E+02 -0.22348891325E+02 -0.41868595367E+01  0.50528863617E+02  0.30000011451E+02 0.  0.
        -12    1    1    2    0    0  0.33707011661E+02  0.22348891325E+02  0.41868595367E+01  0.40659136383E+02  0.00000000000E+00 0.  1.
         11    1    3    3    0    0 -0.12088946856E+02 -0.16414251860E+02 -0.10224097601E+02  0.22805755244E+02  0.51100000000E-03 0. -1.
        -11    1    3    3    0    0 -0.99787608499E+01 -0.56814898583E+01 -0.41934612748E+01  0.12224570047E+02  0.51100000000E-03 0.  1.
        -12    1    3    3    0    0 -0.11639303956E+02 -0.25314960701E+00  0.10230699339E+02  0.15498538327E+02  0.00000000000E+00 0.  1.
</event>
<event>
 7    1  0.5992960E-013  0.5052885E+02  0.7816164E-02  0.1300439E+00
        -11   -1    0    0    0    0  0.00000000000E+00  0.00000000000E+00  0.45593999997E+02  0.45594000000E+02  0.51100000000E-03 0.  1.
         11   -1    0    0    0    0 -0.00000000000E+00 -0.00000000000E+00 -0.45593999997E+02  0.45594000000E+02  0.51100000000E-03 0. -1.
    9900012    2    1    2    0    0 -0.21815672036E+02 -0.62067022795E+01 -0.33744917946E+02  0.50528853591E+02  0.29999980974E+02 0.  0.
        -12    1    1    2    0    0  0.21815672036E+02  0.62067022795E+01  0.33744917946E+02  0.40659146409E+02  0.00000000000E+00 0.  1.
         11    1    3    3    0    0 -0.84258969239E+01 -0.10952747464E+02 -0.41148404073E+01  0.14418402402E+02  0.51100000000E-03 0. -1.
        -11    1    3    3    0    0 -0.55778162693E+01 -0.46770170573E+01 -0.57503558848E+01  0.92764818737E+01  0.51100000000E-03 0.  1.
        -12    1    3    3    0    0 -0.78119588425E+01  0.94230622414E+01 -0.23879721654E+02  0.26833969315E+02  0.00000000000E+00 0.  1.
</event>
<event>
 7    1  0.5992960E-013  0.5052887E+02  0.7816164E-02  0.1300439E+00
        -11   -1    0    0    0    0  0.00000000000E+00  0.00000000000E+00  0.45593999997E+02  0.45594000000E+02  0.51100000000E-03 0.  1.
         11   -1    0    0    0    0 -0.00000000000E+00 -0.00000000000E+00 -0.45593999997E+02  0.45594000000E+02  0.51100000000E-03 0. -1.
    9900012    2    1    2    0    0  0.64993459633E+01 -0.89899702102E+01 -0.39116545158E+02  0.50528866126E+02  0.30000019075E+02 0.  0.
        -12    1    1    2    0    0 -0.64993459633E+01  0.89899702102E+01  0.39116545158E+02  0.40659133874E+02  0.00000000000E+00 0.  1.
         11    1    3    3    0    0 -0.72683254450E+01 -0.75635199905E+01 -0.24842376314E+02  0.26966257631E+02  0.51100000000E-03 0. -1.
        -11    1    3    3    0    0 -0.22205161660E+01 -0.11134869976E+01 -0.34547624902E+01  0.42551062810E+01  0.51100000000E-03 0.  1.
        -12    1    3    3    0    0  0.15988187574E+02 -0.31296322200E+00 -0.10819406354E+02  0.19307502214E+02  0.00000000000E+00 0.  1.
</event>
<event>
 7    1  0.5992960E-013  0.5052886E+02  0.7816164E-02  0.1300439E+00
        -11   -1    0    0    0    0  0.00000000000E+00  0.00000000000E+00  0.45593999997E+02  0.45594000000E+02  0.51100000000E-03 0.  1.
         11   -1    0    0    0    0 -0.00000000000E+00 -0.00000000000E+00 -0.45593999997E+02  0.45594000000E+02  0.51100000000E-03 0. -1.
    9900012    2    1    2    0    0  0.77927771247E+01 -0.38499307213E+02  0.10499594594E+02  0.50528861816E+02  0.30000005976E+02 0.  0.
        -12    1    1    2    0    0 -0.77927771247E+01  0.38499307213E+02 -0.10499594594E+02  0.40659138184E+02  0.00000000000E+00 0.  1.
         11    1    3    3    0    0  0.32199296209E+01 -0.21809857393E+02  0.14842130879E+02  0.26576807099E+02  0.51100000000E-03 0. -1.
        -11    1    3    3    0    0  0.61698615206E+01 -0.65661050859E+01  0.48082222240E+01  0.10212733640E+02  0.51100000000E-03 0.  1.
        -12    1    3    3    0    0 -0.15970140167E+01 -0.10123344734E+02 -0.91507585089E+01  0.13739321077E+02  0.00000000000E+00 0.  1.
</event>
<event>
 7    1  0.5992960E-013  0.5052886E+02  0.7816164E-02  0.1300439E+00
        -11   -1    0    0    0    0  0.00000000000E+00  0.00000000000E+00  0.45593999997E+02  0.45594000000E+02  0.51100000000E-03 0. -1.
         11   -1    0    0    0    0 -0.00000000000E+00 -0.00000000000E+00 -0.45593999997E+02  0.45594000000E+02  0.51100000000E-03 0.  1.
    9900012    2    1    2    0    0 -0.18743861356E+02 -0.33518088962E+02  0.13355549966E+02  0.50528863990E+02  0.30000012584E+02 0.  0.
        -12    1    1    2    0    0  0.18743861356E+02  0.33518088962E+02 -0.13355549966E+02  0.40659136010E+02  0.00000000000E+00 0.  1.
         11    1    3    3    0    0  0.15675479688E+01 -0.18779496565E+02  0.11427343432E+02  0.22038849246E+02  0.51100000000E-03 0. -1.
        -11    1    3    3    0    0 -0.15885758815E+02 -0.12821716844E+02  0.69136592751E+01  0.21553478624E+02  0.51100000000E-03 0.  1.
        -12    1    3    3    0    0 -0.44256505105E+01 -0.19168755519E+01 -0.49854527409E+01  0.69365361208E+01  0.00000000000E+00 0.  1.
</event>
<event>
 7    1  0.5992960E-013  0.5052886E+02  0.7816164E-02  0.1300439E+00
        -11   -1    0    0    0    0  0.00000000000E+00  0.00000000000E+00  0.45593999997E+02  0.45594000000E+02  0.51100000000E-03 0.  1.
         11   -1    0    0    0    0 -0.00000000000E+00 -0.00000000000E+00 -0.45593999997E+02  0.45594000000E+02  0.51100000000E-03 0. -1.
    9900012    2    1    2    0    0  0.14506037483E+02  0.10242813987E+01 -0.37969612871E+02  0.50528858625E+02  0.29999996276E+02 0.  0.
        -12    1    1    2    0    0 -0.14506037483E+02 -0.10242813987E+01  0.37969612871E+02  0.40659141375E+02  0.00000000000E+00 0.  1.
         11    1    3    3    0    0 -0.15772182923E+01  0.22480364897E+01 -0.70768431002E+01  0.75909811044E+01  0.51100000000E-03 0. -1.
        -11    1    3    3    0    0  0.12969933313E-01  0.97024741190E+01 -0.61952230166E+01  0.11511688006E+02  0.51100000000E-03 0.  1.
         12    1    3    3    0    0  0.16070285842E+02 -0.10926229210E+02 -0.24697546754E+02  0.31426189515E+02  0.00000000000E+00 0. -1.
</event>
<event>
 7    1  0.5992960E-013  0.5052888E+02  0.7816164E-02  0.1300439E+00
        -11   -1    0    0    0    0  0.00000000000E+00  0.00000000000E+00  0.45593999997E+02  0.45594000000E+02  0.51100000000E-03 0. -1.
         11   -1    0    0    0    0 -0.00000000000E+00 -0.00000000000E+00 -0.45593999997E+02  0.45594000000E+02  0.51100000000E-03 0.  1.
    9900012    2    1    2    0    0  0.28293496339E+01  0.33980351438E+02  0.22147106369E+02  0.50528882649E+02  0.30000069300E+02 0.  0.
        -12    1    1    2    0    0 -0.28293496339E+01 -0.33980351438E+02 -0.22147106369E+02  0.40659117351E+02  0.00000000000E+00 0.  1.
         11    1    3    3    0    0 -0.41867844268E+01  0.79651875116E+01  0.76182451259E+00  0.90307116431E+01  0.51100000000E-03 0. -1.
        -11    1    3    3    0    0 -0.31769619725E+01  0.17236083903E+02  0.16362324485E+01  0.17602639931E+02  0.51100000000E-03 0.  1.
        -12    1    3    3    0    0  0.10193096033E+02  0.87790800239E+01  0.19749049408E+02  0.23895531075E+02  0.00000000000E+00 0.  1.
</event>
<event>
 7    1  0.5992960E-013  0.5052886E+02  0.7816164E-02  0.1300439E+00
        -11   -1    0    0    0    0  0.00000000000E+00  0.00000000000E+00  0.45593999997E+02  0.45594000000E+02  0.51100000000E-03 0. -1.
         11   -1    0    0    0    0 -0.00000000000E+00 -0.00000000000E+00 -0.45593999997E+02  0.45594000000E+02  0.51100000000E-03 0.  1.
    9900012    2    1    2    0    0 -0.78907507508E+01  0.38322244378E+02 -0.11059260980E+02  0.50528860621E+02  0.30000002345E+02 0.  0.
        -12    1    1    2    0    0  0.78907507508E+01 -0.38322244378E+02  0.11059260980E+02  0.40659139379E+02  0.00000000000E+00 0.  1.
         11    1    3    3    0    0  0.15191480199E+01  0.12842658348E+02  0.26544772529E+00  0.12934919672E+02  0.51100000000E-03 0. -1.
        -11    1    3    3    0    0 -0.35308452825E+01  0.21858914092E+02 -0.17583637383E+02  0.28274782007E+02  0.51100000000E-03 0.  1.
         12    1    3    3    0    0 -0.58790534881E+01  0.36206719377E+01  0.62589286779E+01  0.93191589423E+01  0.00000000000E+00 0. -1.
</event>
<event>
 7    1  0.5992960E-013  0.5052886E+02  0.7816164E-02  0.1300439E+00
        -11   -1    0    0    0    0  0.00000000000E+00  0.00000000000E+00  0.45593999997E+02  0.45594000000E+02  0.51100000000E-03 0.  1.
         11   -1    0    0    0    0 -0.00000000000E+00 -0.00000000000E+00 -0.45593999997E+02  0.45594000000E+02  0.51100000000E-03 0. -1.
    9900012    2    1    2    0    0 -0.35790832506E+02  0.17026866906E+02  0.90701589923E+01  0.50528859917E+02  0.30000000205E+02 0.  0.
        -12    1    1    2    0    0  0.35790832506E+02 -0.17026866906E+02 -0.90701589923E+01  0.40659140083E+02  0.00000000000E+00 0.  1.
         11    1    3    3    0    0 -0.10013635382E+02  0.15653481916E+02  0.26788603850E+01  0.18774468911E+02  0.51100000000E-03 0. -1.
        -11    1    3    3    0    0 -0.63097050057E+01  0.43942374984E+01 -0.48319578538E+01  0.90812728961E+01  0.51100000000E-03 0.  1.
         12    1    3    3    0    0 -0.19467492118E+02 -0.30208525085E+01  0.11223256461E+02  0.22673118110E+02  0.00000000000E+00 0. -1.
</event>
<event>
 7    1  0.5992960E-013  0.5052886E+02  0.7816164E-02  0.1300439E+00
        -11   -1    0    0    0    0  0.00000000000E+00  0.00000000000E+00  0.45593999997E+02  0.45594000000E+02  0.51100000000E-03 0.  1.
         11   -1    0    0    0    0 -0.00000000000E+00 -0.00000000000E+00 -0.45593999997E+02  0.45594000000E+02  0.51100000000E-03 0. -1.
    9900012    2    1    2    0    0 -0.19211928084E+02 -0.30734703728E+02 -0.18424040347E+02  0.50528862569E+02  0.30000008265E+02 0.  0.
        -12    1    1    2    0    0  0.19211928084E+02  0.30734703728E+02  0.18424040347E+02  0.40659137431E+02  0.00000000000E+00 0.  1.
         11    1    3    3    0    0 -0.10683960065E+02 -0.10127166329E+02  0.11670455255E+01  0.14767142447E+02  0.51100000000E-03 0. -1.
        -11    1    3    3    0    0  0.47022973344E+01  0.72024307512E+00 -0.23003238605E+01  0.52841120761E+01  0.51100000000E-03 0.  1.
        -12    1    3    3    0    0 -0.13230265353E+02 -0.21327780474E+02 -0.17290762012E+02  0.30477608046E+02  0.00000000000E+00 0.  1.
</event>
<event>
 7    1  0.5992960E-013  0.5052887E+02  0.7816164E-02  0.1300439E+00
        -11   -1    0    0    0    0  0.00000000000E+00  0.00000000000E+00  0.45593999997E+02  0.45594000000E+02  0.51100000000E-03 0. -1.
         11   -1    0    0    0    0 -0.00000000000E+00 -0.00000000000E+00 -0.45593999997E+02  0.45594000000E+02  0.51100000000E-03 0.  1.
    9900012    2    1    2    0    0  0.14564348389E+02 -0.25820795110E+02  0.27826809652E+02  0.50528867698E+02  0.30000023855E+02 0.  0.
        -12    1    1    2    0    0 -0.14564348389E+02  0.25820795110E+02 -0.27826809652E+02  0.40659132302E+02  0.00000000000E+00 0.  1.
         11    1    3    3    0    0 -0.46941448506E+01 -0.14187014559E+02  0.90056945213E+01  0.17447318191E+02  0.51100000000E-03 0. -1.
        -11    1    3    3    0    0  0.16929063483E+01 -0.71760225469E+01  0.11228705131E+02  0.13432983685E+02  0.51100000000E-03 0.  1.
        -12    1    3    3    0    0  0.17565586892E+02 -0.44577580044E+01  0.75924099994E+01  0.19648565822E+02  0.00000000000E+00 0.  1.
</event>
<event>
 7    1  0.5992960E-013  0.5052887E+02  0.7816164E-02  0.1300439E+00
        -11   -1    0    0    0    0  0.00000000000E+00  0.00000000000E+00  0.45593999997E+02  0.45594000000E+02  0.51100000000E-03 0.  1.
         11   -1    0    0    0    0 -0.00000000000E+00 -0.00000000000E+00 -0.45593999997E+02  0.45594000000E+02  0.51100000000E-03 0. -1.
    9900012    2    1    2    0    0  0.83487951691E+01  0.32882150252E+02 -0.22410423304E+02  0.50528865004E+02  0.30000015665E+02 0.  0.
        -12    1    1    2    0    0 -0.83487951691E+01 -0.32882150252E+02  0.22410423304E+02  0.40659134996E+02  0.00000000000E+00 0.  1.
         11    1    3    3    0    0  0.11258990080E+01 -0.12842589277E+01  0.78777386643E+00  0.18808395719E+01  0.51100000000E-03 0. -1.
        -11    1    3    3    0    0  0.14476719593E+02  0.13222008699E+02 -0.57275190457E+01  0.20425508534E+02  0.51100000000E-03 0.  1.
         12    1    3    3    0    0 -0.72538234318E+01  0.20944400481E+02 -0.17470678125E+02  0.28222516897E+02  0.00000000000E+00 0. -1.
</event>
<event>
 7    1  0.5992960E-013  0.5052885E+02  0.7816164E-02  0.1300439E+00
        -11   -1    0    0    0    0  0.00000000000E+00  0.00000000000E+00  0.45593999997E+02  0.45594000000E+02  0.51100000000E-03 0. -1.
         11   -1    0    0    0    0 -0.00000000000E+00 -0.00000000000E+00 -0.45593999997E+02  0.45594000000E+02  0.51100000000E-03 0.  1.
    9900012    2    1    2    0    0  0.24125557698E+02 -0.27164337657E+02  0.18254395569E+02  0.50528846883E+02  0.29999960587E+02 0.  0.
        -12    1    1    2    0    0 -0.24125557698E+02  0.27164337657E+02 -0.18254395569E+02  0.40659153117E+02  0.00000000000E+00 0.  1.
         11    1    3    3    0    0  0.98760330040E-02 -0.50307471635E+00  0.64707957651E+01  0.64903297144E+01  0.51100000000E-03 0.  1.
        -11    1    3    3    0    0 -0.14558080532E+01 -0.25416746489E+01  0.81964176473E+01  0.87040651203E+01  0.51100000000E-03 0. -1.
         12    1    3    3    0    0  0.25571489718E+02 -0.24119588291E+02  0.35871821570E+01  0.35334452049E+02  0.00000000000E+00 0. -1.
</event>
<event>
 7    1  0.5992960E-013  0.5052886E+02  0.7816164E-02  0.1300439E+00
        -11   -1    0    0    0    0  0.00000000000E+00  0.00000000000E+00  0.45593999997E+02  0.45594000000E+02  0.51100000000E-03 0.  1.
         11   -1    0    0    0    0 -0.00000000000E+00 -0.00000000000E+00 -0.45593999997E+02  0.45594000000E+02  0.51100000000E-03 0. -1.
    9900012    2    1    2    0    0  0.14673084476E+02 -0.36181234732E+01 -0.37746196134E+02  0.50528861445E+02  0.30000004847E+02 0.  0.
        -12    1    1    2    0    0 -0.14673084476E+02  0.36181234732E+01  0.37746196134E+02  0.40659138555E+02  0.00000000000E+00 0.  1.
         11    1    3    3    0    0  0.16905882455E+02 -0.68156947876E+01 -0.14702769463E+02  0.23418667493E+02  0.51100000000E-03 0. -1.
        -11    1    3    3    0    0 -0.25473519565E+01  0.38640330096E+01 -0.61404096187E+00  0.46687042799E+01  0.51100000000E-03 0.  1.
        -12    1    3    3    0    0  0.31455397790E+00 -0.66646169516E+00 -0.22429385709E+02  0.22441489672E+02  0.00000000000E+00 0.  1.
</event>
<event>
 7    1  0.5992960E-013  0.5052886E+02  0.7816164E-02  0.1300439E+00
        -11   -1    0    0    0    0  0.00000000000E+00  0.00000000000E+00  0.45593999997E+02  0.45594000000E+02  0.51100000000E-03 0. -1.
         11   -1    0    0    0    0 -0.00000000000E+00 -0.00000000000E+00 -0.45593999997E+02  0.45594000000E+02  0.51100000000E-03 0.  1.
    9900012    2    1    2    0    0  0.34767635192E+02  0.20929342290E+02 -0.25179407515E+01  0.50528857717E+02  0.29999993517E+02 0.  0.
        -12    1    1    2    0    0 -0.34767635192E+02 -0.20929342290E+02  0.25179407515E+01  0.40659142283E+02  0.00000000000E+00 0.  1.
         11    1    3    3    0    0 -0.35377598611E+01 -0.23741828718E+01 -0.64818270369E-01  0.42610668633E+01  0.51100000000E-03 0. -1.
        -11    1    3    3    0    0  0.43248979280E+01  0.86578237551E+00  0.27786337228E+01  0.52129767730E+01  0.51100000000E-03 0.  1.
        -12    1    3    3    0    0  0.33980497125E+02  0.22437742787E+02 -0.52317562039E+01  0.41054814081E+02  0.00000000000E+00 0.  1.
</event>
<event>
 7    1  0.5992960E-013  0.5052886E+02  0.7816164E-02  0.1300439E+00
        -11   -1    0    0    0    0  0.00000000000E+00  0.00000000000E+00  0.45593999997E+02  0.45594000000E+02  0.51100000000E-03 0.  1.
         11   -1    0    0    0    0 -0.00000000000E+00 -0.00000000000E+00 -0.45593999997E+02  0.45594000000E+02  0.51100000000E-03 0. -1.
    9900012    2    1    2    0    0 -0.25489928085E+01 -0.19323735298E+02 -0.35682785505E+02  0.50528864598E+02  0.30000014433E+02 0.  0.
        -12    1    1    2    0    0  0.25489928085E+01  0.19323735298E+02  0.35682785505E+02  0.40659135402E+02  0.00000000000E+00 0.  1.
         11    1    3    3    0    0 -0.11195441984E+01  0.28491264674E+00 -0.12086514163E+02  0.12141597066E+02  0.51100000000E-03 0. -1.
        -11    1    3    3    0    0 -0.24196231160E+01 -0.13354318516E+02 -0.27696846587E+02  0.30843276580E+02  0.51100000000E-03 0.  1.
        -12    1    3    3    0    0  0.99017450589E+00 -0.62543294290E+01  0.41005752449E+01  0.75439909529E+01  0.00000000000E+00 0.  1.
</event>
<event>
 7    1  0.5992960E-013  0.5052885E+02  0.7816164E-02  0.1300439E+00
        -11   -1    0    0    0    0  0.00000000000E+00  0.00000000000E+00  0.45593999997E+02  0.45594000000E+02  0.51100000000E-03 0.  1.
         11   -1    0    0    0    0 -0.00000000000E+00 -0.00000000000E+00 -0.45593999997E+02  0.45594000000E+02  0.51100000000E-03 0. -1.
    9900012    2    1    2    0    0 -0.55342897466E+01  0.19640698461E+02 -0.35167895601E+02  0.50528852444E+02  0.29999977488E+02 0.  0.
        -12    1    1    2    0    0  0.55342897466E+01 -0.19640698461E+02  0.35167895601E+02  0.40659147556E+02  0.00000000000E+00 0.  1.
         11    1    3    3    0    0 -0.43355745239E+01  0.13896909351E+02 -0.21740834531E+01  0.14718965150E+02  0.51100000000E-03 0. -1.
        -11    1    3    3    0    0 -0.33590058267E+01 -0.12019864725E+00 -0.14629968848E+01  0.36657506742E+01  0.51100000000E-03 0.  1.
        -12    1    3    3    0    0  0.21602906041E+01  0.58639877569E+01 -0.31530815263E+02  0.32144136620E+02  0.00000000000E+00 0.  1.
</event>
<event>
 7    1  0.5992960E-013  0.5052885E+02  0.7816164E-02  0.1300439E+00
        -11   -1    0    0    0    0  0.00000000000E+00  0.00000000000E+00  0.45593999997E+02  0.45594000000E+02  0.51100000000E-03 0.  1.
         11   -1    0    0    0    0 -0.00000000000E+00 -0.00000000000E+00 -0.45593999997E+02  0.45594000000E+02  0.51100000000E-03 0. -1.
    9900012    2    1    2    0    0 -0.22964423478E+02  0.11693576147E+02 -0.31449354742E+02  0.50528851183E+02  0.29999973657E+02 0.  0.
        -12    1    1    2    0    0  0.22964423478E+02 -0.11693576147E+02  0.31449354742E+02  0.40659148817E+02  0.00000000000E+00 0.  1.
         11    1    3    3    0    0 -0.47340429511E+01  0.12048927639E+00 -0.10063870144E+02  0.11122372178E+02  0.51100000000E-03 0. -1.
        -11    1    3    3    0    0 -0.19485498405E+02  0.11848871443E+02 -0.26018640777E+02  0.34598411390E+02  0.51100000000E-03 0.  1.
        -12    1    3    3    0    0  0.12551178785E+01 -0.27578457220E+00  0.46331561785E+01  0.48080676153E+01  0.00000000000E+00 0.  1.
</event>
<event>
 7    1  0.5992960E-013  0.5052887E+02  0.7816164E-02  0.1300439E+00
        -11   -1    0    0    0    0  0.00000000000E+00  0.00000000000E+00  0.45593999997E+02  0.45594000000E+02  0.51100000000E-03 0.  1.
         11   -1    0    0    0    0 -0.00000000000E+00 -0.00000000000E+00 -0.45593999997E+02  0.45594000000E+02  0.51100000000E-03 0. -1.
    9900012    2    1    2    0    0  0.12802959432E+02 -0.18957083454E+01 -0.38544199741E+02  0.50528870471E+02  0.30000032284E+02 0.  0.
        -12    1    1    2    0    0 -0.12802959432E+02  0.18957083454E+01  0.38544199741E+02  0.40659129529E+02  0.00000000000E+00 0.  1.
         11    1    3    3    0    0 -0.81048027781E-01  0.13179688162E+01 -0.17250498287E+02  0.17300962458E+02  0.51100000000E-03 0. -1.
        -11    1    3    3    0    0  0.12397166012E+02  0.37733842144E+01 -0.22648830345E+02  0.26094015977E+02  0.51100000000E-03 0.  1.
        -12    1    3    3    0    0  0.48684144784E+00 -0.69870613760E+01  0.13551288904E+01  0.71338920357E+01  0.00000000000E+00 0.  1.
</event>
<event>
 7    1  0.5992960E-013  0.5052886E+02  0.7816164E-02  0.1300439E+00
        -11   -1    0    0    0    0  0.00000000000E+00  0.00000000000E+00  0.45593999997E+02  0.45594000000E+02  0.51100000000E-03 0.  1.
         11   -1    0    0    0    0 -0.00000000000E+00 -0.00000000000E+00 -0.45593999997E+02  0.45594000000E+02  0.51100000000E-03 0. -1.
    9900012    2    1    2    0    0 -0.17279483880E+02  0.26972799392E+02 -0.25041022561E+02  0.50528864728E+02  0.30000014827E+02 0.  0.
        -12    1    1    2    0    0  0.17279483880E+02 -0.26972799392E+02  0.25041022561E+02  0.40659135272E+02  0.00000000000E+00 0.  1.
         11    1    3    3    0    0  0.14705324487E+01  0.14221509483E+02 -0.64409644934E+01  0.15681193243E+02  0.51100000000E-03 0. -1.
        -11    1    3    3    0    0 -0.26521618945E+01  0.68788620957E+01  0.23911392515E+01  0.77505002179E+01  0.51100000000E-03 0.  1.
        -12    1    3    3    0    0 -0.16097854434E+02  0.58724278131E+01 -0.20991197319E+02  0.27097171267E+02  0.00000000000E+00 0.  1.
</event>
<event>
 7    1  0.5992960E-013  0.5052886E+02  0.7816164E-02  0.1300439E+00
        -11   -1    0    0    0    0  0.00000000000E+00  0.00000000000E+00  0.45593999997E+02  0.45594000000E+02  0.51100000000E-03 0.  1.
         11   -1    0    0    0    0 -0.00000000000E+00 -0.00000000000E+00 -0.45593999997E+02  0.45594000000E+02  0.51100000000E-03 0. -1.
    9900012    2    1    2    0    0 -0.40559325975E+02 -0.27483355729E+01 -0.74373945168E+00  0.50528863015E+02  0.30000009620E+02 0.  0.
        -12    1    1    2    0    0  0.40559325975E+02  0.27483355729E+01  0.74373945168E+00  0.40659136985E+02  0.00000000000E+00 0.  1.
         11    1    3    3    0    0 -0.10734145830E+02  0.10961996890E+02  0.60328601203E+01  0.16485832221E+02  0.51100000000E-03 0. -1.
        -11    1    3    3    0    0 -0.71212244312E+01 -0.24814946133E+01 -0.40712757086E+01  0.85700022795E+01  0.51100000000E-03 0.  1.
        -12    1    3    3    0    0 -0.22703955714E+02 -0.11228837849E+02 -0.27053238634E+01  0.25473028515E+02  0.00000000000E+00 0.  1.
</event>
<event>
 7    1  0.5992960E-013  0.5052886E+02  0.7816164E-02  0.1300439E+00
        -11   -1    0    0    0    0  0.00000000000E+00  0.00000000000E+00  0.45593999997E+02  0.45594000000E+02  0.51100000000E-03 0.  1.
         11   -1    0    0    0    0 -0.00000000000E+00 -0.00000000000E+00 -0.45593999997E+02  0.45594000000E+02  0.51100000000E-03 0. -1.
    9900012    2    1    2    0    0 -0.88831920621E+01 -0.24782050730E+02 -0.30985551638E+02  0.50528861422E+02  0.30000004778E+02 0.  0.
        -12    1    1    2    0    0  0.88831920621E+01  0.24782050730E+02  0.30985551638E+02  0.40659138578E+02  0.00000000000E+00 0.  1.
         11    1    3    3    0    0 -0.57407168056E+01 -0.15229129169E+02 -0.31779643562E+02  0.35704732878E+02  0.51100000000E-03 0. -1.
        -11    1    3    3    0    0  0.68121829786E-01 -0.52437248994E+01 -0.47697998741E+01  0.70888844330E+01  0.51100000000E-03 0.  1.
        -12    1    3    3    0    0 -0.32105970863E+01 -0.43091966610E+01  0.55638917980E+01  0.77352441108E+01  0.00000000000E+00 0.  1.
</event>
<event>
 7    1  0.5992960E-013  0.5052886E+02  0.7816164E-02  0.1300439E+00
        -11   -1    0    0    0    0  0.00000000000E+00  0.00000000000E+00  0.45593999997E+02  0.45594000000E+02  0.51100000000E-03 0.  1.
         11   -1    0    0    0    0 -0.00000000000E+00 -0.00000000000E+00 -0.45593999997E+02  0.45594000000E+02  0.51100000000E-03 0. -1.
    9900012    2    1    2    0    0 -0.25608317894E+01  0.38114895136E+02 -0.13923446257E+02  0.50528862695E+02  0.30000008649E+02 0.  0.
        -12    1    1    2    0    0  0.25608317894E+01 -0.38114895136E+02  0.13923446257E+02  0.40659137305E+02  0.00000000000E+00 0.  1.
         11    1    3    3    0    0 -0.12415008680E+02  0.11410227013E+02 -0.20700198628E+01  0.16988546244E+02  0.51100000000E-03 0. -1.
        -11    1    3    3    0    0 -0.91647097824E+00 -0.66164577563E+00 -0.23931115158E+01  0.26466350663E+01  0.51100000000E-03 0.  1.
         12    1    3    3    0    0  0.10770647868E+02  0.27366313899E+02 -0.94603148785E+01  0.30893681385E+02  0.00000000000E+00 0. -1.
</event>
<event>
 7    1  0.5992960E-013  0.5052887E+02  0.7816164E-02  0.1300439E+00
        -11   -1    0    0    0    0  0.00000000000E+00  0.00000000000E+00  0.45593999997E+02  0.45594000000E+02  0.51100000000E-03 0.  1.
         11   -1    0    0    0    0 -0.00000000000E+00 -0.00000000000E+00 -0.45593999997E+02  0.45594000000E+02  0.51100000000E-03 0. -1.
    9900012    2    1    2    0    0 -0.64714929524E+01  0.18753025501E+02 -0.35490968907E+02  0.50528867441E+02  0.30000023074E+02 0.  0.
        -12    1    1    2    0    0  0.64714929524E+01 -0.18753025501E+02  0.35490968907E+02  0.40659132559E+02  0.00000000000E+00 0.  1.
         11    1    3    3    0    0 -0.66465421305E+01 -0.36108146974E+01 -0.15463583214E+02  0.17214439031E+02  0.51100000000E-03 0. -1.
        -11    1    3    3    0    0  0.10210830245E+01 -0.46420382502E-01 -0.76131615325E+01  0.76814708341E+01  0.51100000000E-03 0.  1.
         12    1    3    3    0    0 -0.84603384634E+00  0.22410260581E+02 -0.12414224160E+02  0.25632957576E+02  0.00000000000E+00 0. -1.
</event>
<event>
 7    1  0.5992960E-013  0.5052886E+02  0.7816164E-02  0.1300439E+00
        -11   -1    0    0    0    0  0.00000000000E+00  0.00000000000E+00  0.45593999997E+02  0.45594000000E+02  0.51100000000E-03 0.  1.
         11   -1    0    0    0    0 -0.00000000000E+00 -0.00000000000E+00 -0.45593999997E+02  0.45594000000E+02  0.51100000000E-03 0. -1.
    9900012    2    1    2    0    0 -0.20929660079E+02 -0.21723600971E+02 -0.27261698881E+02  0.50528859133E+02  0.29999997821E+02 0.  0.
        -12    1    1    2    0    0  0.20929660079E+02  0.21723600971E+02  0.27261698881E+02  0.40659140867E+02  0.00000000000E+00 0.  1.
         11    1    3    3    0    0 -0.12954588815E+02 -0.12082557938E+02 -0.74446325963E+01  0.19215413928E+02  0.51100000000E-03 0. -1.
        -11    1    3    3    0    0 -0.11050531483E+02 -0.95401485870E+01 -0.39127314336E+01  0.15114170459E+02  0.51100000000E-03 0.  1.
        -12    1    3    3    0    0  0.30754602189E+01 -0.10089444648E+00 -0.15904334851E+02  0.16199274746E+02  0.00000000000E+00 0.  1.
</event>
<event>
 7    1  0.5992960E-013  0.5052889E+02  0.7816164E-02  0.1300439E+00
        -11   -1    0    0    0    0  0.00000000000E+00  0.00000000000E+00  0.45593999997E+02  0.45594000000E+02  0.51100000000E-03 0.  1.
         11   -1    0    0    0    0 -0.00000000000E+00 -0.00000000000E+00 -0.45593999997E+02  0.45594000000E+02  0.51100000000E-03 0. -1.
    9900012    2    1    2    0    0 -0.17200739247E+02  0.25003991693E+02 -0.27057307668E+02  0.50528893646E+02  0.30000102727E+02 0.  0.
        -12    1    1    2    0    0  0.17200739247E+02 -0.25003991693E+02  0.27057307668E+02  0.40659106354E+02  0.00000000000E+00 0.  1.
         11    1    3    3    0    0 -0.13725863046E+02  0.14883086948E+02 -0.27299968223E+02  0.33988142913E+02  0.51100000000E-03 0. -1.
        -11    1    3    3    0    0 -0.73425168660E+01  0.76721770730E+01 -0.28755273110E+01  0.11001977665E+02  0.51100000000E-03 0.  1.
         12    1    3    3    0    0  0.38676406648E+01  0.24487276724E+01  0.31181878664E+01  0.55387730677E+01  0.00000000000E+00 0. -1.
</event>
<event>
 7    1  0.5992960E-013  0.5052887E+02  0.7816164E-02  0.1300439E+00
        -11   -1    0    0    0    0  0.00000000000E+00  0.00000000000E+00  0.45593999997E+02  0.45594000000E+02  0.51100000000E-03 0.  1.
         11   -1    0    0    0    0 -0.00000000000E+00 -0.00000000000E+00 -0.45593999997E+02  0.45594000000E+02  0.51100000000E-03 0. -1.
    9900012    2    1    2    0    0  0.32492834501E+01 -0.25928014459E+02 -0.31150366300E+02  0.50528866987E+02  0.30000021695E+02 0.  0.
        -12    1    1    2    0    0 -0.32492834501E+01  0.25928014459E+02  0.31150366300E+02  0.40659133013E+02  0.00000000000E+00 0.  1.
         11    1    3    3    0    0  0.66706258964E+01 -0.19881362826E+02 -0.19622235765E+02  0.28719296203E+02  0.51100000000E-03 0. -1.
        -11    1    3    3    0    0 -0.17587143021E+01 -0.10445283754E+02 -0.13104443305E+02  0.16850028584E+02  0.51100000000E-03 0.  1.
        -12    1    3    3    0    0 -0.16626281442E+01  0.43986321215E+01  0.15763127707E+01  0.49595422003E+01  0.00000000000E+00 0.  1.
</event>
<event>
 7    1  0.6820719E-013  0.5052883E+02  0.7816164E-02  0.1300439E+00
        -11   -1    0    0    0    0  0.00000000000E+00  0.00000000000E+00  0.45593999997E+02  0.45594000000E+02  0.51100000000E-03 0. -1.
         11   -1    0    0    0    0 -0.00000000000E+00 -0.00000000000E+00 -0.45593999997E+02  0.45594000000E+02  0.51100000000E-03 0.  1.
    9900012    2    1    2    0    0  0.30968055210E+01  0.34093390329E+02  0.21936687503E+02  0.50528834647E+02  0.29999923393E+02 0.  0.
        -12    1    1    2    0    0 -0.30968055210E+01 -0.34093390329E+02 -0.21936687503E+02  0.40659165353E+02  0.00000000000E+00 0.  1.
         11    1    3    3    0    0  0.23516147708E+01  0.90578907210E+01  0.18676449385E+02  0.20889835764E+02  0.51100000000E-03 0. -1.
        -11    1    3    3    0    0  0.16815141298E+01 -0.10782785528E+01 -0.21707989437E+01  0.29500072409E+01  0.51100000000E-03 0.  1.
         12    1    3    3    0    0 -0.93632337956E+00  0.26113778161E+02  0.54310370615E+01  0.26688991642E+02  0.00000000000E+00 0. -1.
</event>
<event>
 7    1  0.5992960E-013  0.5052885E+02  0.7816164E-02  0.1300439E+00
        -11   -1    0    0    0    0  0.00000000000E+00  0.00000000000E+00  0.45593999997E+02  0.45594000000E+02  0.51100000000E-03 0. -1.
         11   -1    0    0    0    0 -0.00000000000E+00 -0.00000000000E+00 -0.45593999997E+02  0.45594000000E+02  0.51100000000E-03 0.  1.
    9900012    2    1    2    0    0  0.25218368777E+02  0.28903934219E+02  0.13481935337E+02  0.50528854442E+02  0.29999983561E+02 0.  0.
        -12    1    1    2    0    0 -0.25218368777E+02 -0.28903934219E+02 -0.13481935337E+02  0.40659145558E+02  0.00000000000E+00 0.  1.
         11    1    3    3    0    0  0.57997364005E+01  0.14043019182E+02  0.71338072941E+01  0.16784949712E+02  0.51100000000E-03 0. -1.
        -11    1    3    3    0    0 -0.19597834266E+01  0.10702481672E+02 -0.56175933343E+00  0.10894927206E+02  0.51100000000E-03 0.  1.
        -12    1    3    3    0    0  0.21378415803E+02  0.41584333641E+01  0.69098873763E+01  0.22848977523E+02  0.00000000000E+00 0.  1.
</event>
<event>
 7    1  0.5992960E-013  0.5052878E+02  0.7816164E-02  0.1300439E+00
        -11   -1    0    0    0    0  0.00000000000E+00  0.00000000000E+00  0.45593999997E+02  0.45594000000E+02  0.51100000000E-03 0.  1.
         11   -1    0    0    0    0 -0.00000000000E+00 -0.00000000000E+00 -0.45593999997E+02  0.45594000000E+02  0.51100000000E-03 0. -1.
    9900012    2    1    2    0    0 -0.10440088230E+02 -0.19094501912E+02 -0.34344965477E+02  0.50528780884E+02  0.29999759973E+02 0.  0.
        -12    1    1    2    0    0  0.10440088230E+02  0.19094501912E+02  0.34344965477E+02  0.40659219116E+02  0.00000000000E+00 0.  1.
         11    1    3    3    0    0  0.27706100250E+01  0.87723453692E+00 -0.34131129624E+01  0.44827626191E+01  0.51100000000E-03 0. -1.
        -11    1    3    3    0    0  0.69330150562E+01 -0.33716143972E+01 -0.46427435512E+01  0.89994193899E+01  0.51100000000E-03 0.  1.
         12    1    3    3    0    0 -0.20143713311E+02 -0.16600122052E+02 -0.26289108964E+02  0.37046598875E+02  0.00000000000E+00 0. -1.
</event>
<event>
 7    1  0.5992960E-013  0.5052885E+02  0.7816164E-02  0.1300439E+00
        -11   -1    0    0    0    0  0.00000000000E+00  0.00000000000E+00  0.45593999997E+02  0.45594000000E+02  0.51100000000E-03 0. -1.
         11   -1    0    0    0    0 -0.00000000000E+00 -0.00000000000E+00 -0.45593999997E+02  0.45594000000E+02  0.51100000000E-03 0.  1.
    9900012    2    1    2    0    0 -0.18964383295E+02 -0.34869801908E+02  0.88099487842E+01  0.50528854455E+02  0.29999983603E+02 0.  0.
        -12    1    1    2    0    0  0.18964383295E+02  0.34869801908E+02 -0.88099487842E+01  0.40659145545E+02  0.00000000000E+00 0.  1.
         11    1    3    3    0    0  0.31602614006E+00 -0.72715642749E+01  0.49395720169E+01  0.87962998754E+01  0.51100000000E-03 0. -1.
        -11    1    3    3    0    0 -0.39278092455E+00  0.45550474910E-01 -0.66320092913E+01  0.66437865109E+01  0.51100000000E-03 0.  1.
        -12    1    3    3    0    0 -0.18887628511E+02 -0.27643788108E+02  0.10502386059E+02  0.35088768069E+02  0.00000000000E+00 0.  1.
</event>
<event>
 7    1  0.5992960E-013  0.5052887E+02  0.7816164E-02  0.1300439E+00
        -11   -1    0    0    0    0  0.00000000000E+00  0.00000000000E+00  0.45593999997E+02  0.45594000000E+02  0.51100000000E-03 0.  1.
         11   -1    0    0    0    0 -0.00000000000E+00 -0.00000000000E+00 -0.45593999997E+02  0.45594000000E+02  0.51100000000E-03 0. -1.
    9900012    2    1    2    0    0  0.14543985624E+02 -0.37815132366E+02  0.34137181399E+01  0.50528865415E+02  0.30000016914E+02 0.  0.
        -12    1    1    2    0    0 -0.14543985624E+02  0.37815132366E+02 -0.34137181399E+01  0.40659134585E+02  0.00000000000E+00 0.  1.
         11    1    3    3    0    0  0.15426074989E+02 -0.11770946961E+02 -0.31877573896E+01  0.19664200451E+02  0.51100000000E-03 0. -1.
        -11    1    3    3    0    0  0.62561350022E+01 -0.19204034362E+02  0.34637307539E+01  0.20492232478E+02  0.51100000000E-03 0.  1.
        -12    1    3    3    0    0 -0.71382243669E+01 -0.68401510432E+01  0.31377447755E+01  0.10372432486E+02  0.00000000000E+00 0.  1.
</event>
<event>
 7    1  0.5992960E-013  0.5052886E+02  0.7816164E-02  0.1300439E+00
        -11   -1    0    0    0    0  0.00000000000E+00  0.00000000000E+00  0.45593999997E+02  0.45594000000E+02  0.51100000000E-03 0.  1.
         11   -1    0    0    0    0 -0.00000000000E+00 -0.00000000000E+00 -0.45593999997E+02  0.45594000000E+02  0.51100000000E-03 0. -1.
    9900012    2    1    2    0    0 -0.43904247615E+01 -0.32042551196E+02 -0.24640714043E+02  0.50528859511E+02  0.29999998970E+02 0.  0.
        -12    1    1    2    0    0  0.43904247615E+01  0.32042551196E+02  0.24640714043E+02  0.40659140489E+02  0.00000000000E+00 0.  1.
         11    1    3    3    0    0 -0.33205509711E+01 -0.10127060923E+02 -0.40242399453E+01  0.11392011635E+02  0.51100000000E-03 0. -1.
        -11    1    3    3    0    0 -0.98622580819E+01 -0.13766376766E+02 -0.20801720488E+01  0.17061781260E+02  0.51100000000E-03 0.  1.
        -12    1    3    3    0    0  0.87923842915E+01 -0.81491135074E+01 -0.18536302049E+02  0.22075066617E+02  0.00000000000E+00 0.  1.
</event>
<event>
 7    1  0.5992960E-013  0.5052882E+02  0.7816164E-02  0.1300439E+00
        -11   -1    0    0    0    0  0.00000000000E+00  0.00000000000E+00  0.45593999997E+02  0.45594000000E+02  0.51100000000E-03 0. -1.
         11   -1    0    0    0    0 -0.00000000000E+00 -0.00000000000E+00 -0.45593999997E+02  0.45594000000E+02  0.51100000000E-03 0.  1.
    9900012    2    1    2    0    0  0.21851284227E+02  0.34203791921E+02  0.24064375222E+01  0.50528819663E+02  0.29999877847E+02 0.  0.
        -12    1    1    2    0    0 -0.21851284227E+02 -0.34203791921E+02 -0.24064375222E+01  0.40659180337E+02  0.00000000000E+00 0.  1.
         11    1    3    3    0    0  0.77492954427E+01 -0.51708141980E+00 -0.19413556032E+01  0.80054865494E+01  0.51100000000E-03 0. -1.
        -11    1    3    3    0    0  0.28573518508E+01 -0.17987509612E+01 -0.17906698130E+01  0.38218402975E+01  0.51100000000E-03 0.  1.
         12    1    3    3    0    0  0.11244636934E+02  0.36519624302E+02  0.61384629384E+01  0.38701492816E+02  0.00000000000E+00 0. -1.
</event>
<event>
 7    1  0.5992960E-013  0.5052885E+02  0.7816164E-02  0.1300439E+00
        -11   -1    0    0    0    0  0.00000000000E+00  0.00000000000E+00  0.45593999997E+02  0.45594000000E+02  0.51100000000E-03 0.  1.
         11   -1    0    0    0    0 -0.00000000000E+00 -0.00000000000E+00 -0.45593999997E+02  0.45594000000E+02  0.51100000000E-03 0. -1.
    9900012    2    1    2    0    0 -0.37640748833E+02  0.15076953058E+02 -0.30043135759E+01  0.50528851136E+02  0.29999973514E+02 0.  0.
        -12    1    1    2    0    0  0.37640748833E+02 -0.15076953058E+02  0.30043135759E+01  0.40659148864E+02  0.00000000000E+00 0.  1.
         11    1    3    3    0    0 -0.65198971685E+00 -0.13588463482E+01  0.32470747971E+01  0.35798113061E+01  0.51100000000E-03 0. -1.
        -11    1    3    3    0    0 -0.12798627766E+02  0.12247618352E+01  0.78705182865E+01  0.15074812523E+02  0.51100000000E-03 0.  1.
         12    1    3    3    0    0 -0.24190131350E+02  0.15211037571E+02 -0.14121906659E+02  0.31874227307E+02  0.00000000000E+00 0. -1.
</event>
<event>
 7    1  0.5992960E-013  0.5052886E+02  0.7816164E-02  0.1300439E+00
        -11   -1    0    0    0    0  0.00000000000E+00  0.00000000000E+00  0.45593999997E+02  0.45594000000E+02  0.51100000000E-03 0.  1.
         11   -1    0    0    0    0 -0.00000000000E+00 -0.00000000000E+00 -0.45593999997E+02  0.45594000000E+02  0.51100000000E-03 0. -1.
    9900012    2    1    2    0    0 -0.38417310597E+02 -0.12752463991E+02 -0.38276010767E+01  0.50528860544E+02  0.30000002109E+02 0.  0.
        -12    1    1    2    0    0  0.38417310597E+02  0.12752463991E+02  0.38276010767E+01  0.40659139456E+02  0.00000000000E+00 0.  1.
         11    1    3    3    0    0 -0.26548846377E+02 -0.33962197426E+01 -0.89143903403E+00  0.26780033911E+02  0.51100000000E-03 0. -1.
        -11    1    3    3    0    0 -0.10535542546E+02  0.20726371418E+01  0.24973638540E+01  0.11024078553E+02  0.51100000000E-03 0.  1.
        -12    1    3    3    0    0 -0.13329216733E+01 -0.11428881390E+02 -0.54335258967E+01  0.12724748079E+02  0.00000000000E+00 0.  1.
</event>
<event>
 7    1  0.5992960E-013  0.5052891E+02  0.7816164E-02  0.1300439E+00
        -11   -1    0    0    0    0  0.00000000000E+00  0.00000000000E+00  0.45593999997E+02  0.45594000000E+02  0.51100000000E-03 0.  1.
         11   -1    0    0    0    0 -0.00000000000E+00 -0.00000000000E+00 -0.45593999997E+02  0.45594000000E+02  0.51100000000E-03 0. -1.
    9900012    2    1    2    0    0 -0.33833125940E+02 -0.21691773746E+02 -0.61602090361E+01  0.50528909571E+02  0.30000151132E+02 0.  0.
        -12    1    1    2    0    0  0.33833125940E+02  0.21691773746E+02  0.61602090361E+01  0.40659090429E+02  0.00000000000E+00 0.  1.
         11    1    3    3    0    0 -0.24563946673E+02 -0.92228968408E+01 -0.91252899638E+01  0.27779852762E+02  0.51100000000E-03 0. -1.
        -11    1    3    3    0    0 -0.77446480066E+01  0.17504797449E+01 -0.74472277246E+00  0.79748582653E+01  0.51100000000E-03 0.  1.
         12    1    3    3    0    0 -0.15245312600E+01 -0.14219356650E+02  0.37098037001E+01  0.14774198544E+02  0.00000000000E+00 0. -1.
</event>
<event>
 7    1  0.5992960E-013  0.5052886E+02  0.7816164E-02  0.1300439E+00
        -11   -1    0    0    0    0  0.00000000000E+00  0.00000000000E+00  0.45593999997E+02  0.45594000000E+02  0.51100000000E-03 0.  1.
         11   -1    0    0    0    0 -0.00000000000E+00 -0.00000000000E+00 -0.45593999997E+02  0.45594000000E+02  0.51100000000E-03 0. -1.
    9900012    2    1    2    0    0 -0.28779895247E+02 -0.28682813459E+02 -0.14763453426E+01  0.50528858913E+02  0.29999997152E+02 0.  0.
        -12    1    1    2    0    0  0.28779895247E+02  0.28682813459E+02  0.14763453426E+01  0.40659141087E+02  0.00000000000E+00 0.  1.
         11    1    3    3    0    0 -0.76084027136E+01 -0.23251624017E+02 -0.52904365365E+01  0.25030272278E+02  0.51100000000E-03 0. -1.
        -11    1    3    3    0    0  0.10057387409E+01  0.12360457109E+01 -0.95091504711E+00  0.18556829207E+01  0.51100000000E-03 0.  1.
         12    1    3    3    0    0 -0.22177231274E+02 -0.66672351531E+01  0.47650062410E+01  0.23642903714E+02  0.00000000000E+00 0. -1.
</event>
<event>
 7    1  0.5992960E-013  0.5052886E+02  0.7816164E-02  0.1300439E+00
        -11   -1    0    0    0    0  0.00000000000E+00  0.00000000000E+00  0.45593999997E+02  0.45594000000E+02  0.51100000000E-03 0.  1.
         11   -1    0    0    0    0 -0.00000000000E+00 -0.00000000000E+00 -0.45593999997E+02  0.45594000000E+02  0.51100000000E-03 0. -1.
    9900012    2    1    2    0    0  0.20015981121E+02 -0.13905167268E+02 -0.32544927149E+02  0.50528862526E+02  0.30000008134E+02 0.  0.
        -12    1    1    2    0    0 -0.20015981121E+02  0.13905167268E+02  0.32544927149E+02  0.40659137474E+02  0.00000000000E+00 0.  1.
         11    1    3    3    0    0  0.55670877490E+01  0.49750083674E+01 -0.31746350171E+01  0.81130439425E+01  0.51100000000E-03 0. -1.
        -11    1    3    3    0    0 -0.18962539084E+01 -0.11898595725E+02 -0.73353577612E+01  0.14106021156E+02  0.51100000000E-03 0.  1.
         12    1    3    3    0    0  0.16345147280E+02 -0.69815799104E+01 -0.22034934371E+02  0.28309797427E+02  0.00000000000E+00 0. -1.
</event>
<event>
 7    1  0.5992960E-013  0.5052885E+02  0.7816164E-02  0.1300439E+00
        -11   -1    0    0    0    0  0.00000000000E+00  0.00000000000E+00  0.45593999997E+02  0.45594000000E+02  0.51100000000E-03 0.  1.
         11   -1    0    0    0    0 -0.00000000000E+00 -0.00000000000E+00 -0.45593999997E+02  0.45594000000E+02  0.51100000000E-03 0. -1.
    9900012    2    1    2    0    0  0.98795019161E+01  0.16277688913E+02 -0.35924900640E+02  0.50528853422E+02  0.29999980461E+02 0.  0.
        -12    1    1    2    0    0 -0.98795019161E+01 -0.16277688913E+02  0.35924900640E+02  0.40659146578E+02  0.00000000000E+00 0.  1.
         11    1    3    3    0    0  0.63718896908E+01 -0.48904766034E+00 -0.31575882800E+01  0.71281491183E+01  0.51100000000E-03 0. -1.
        -11    1    3    3    0    0  0.78104270543E+01  0.36192097487E+00 -0.16937473045E+01  0.80001586081E+01  0.51100000000E-03 0.  1.
         12    1    3    3    0    0 -0.43028148291E+01  0.16404815599E+02 -0.31073565056E+02  0.35400545695E+02  0.00000000000E+00 0. -1.
</event>
<event>
 7    1  0.5992960E-013  0.5052885E+02  0.7816164E-02  0.1300439E+00
        -11   -1    0    0    0    0  0.00000000000E+00  0.00000000000E+00  0.45593999997E+02  0.45594000000E+02  0.51100000000E-03 0. -1.
         11   -1    0    0    0    0 -0.00000000000E+00 -0.00000000000E+00 -0.45593999997E+02  0.45594000000E+02  0.51100000000E-03 0.  1.
    9900012    2    1    2    0    0 -0.12121949533E+02 -0.38635142722E+02  0.36810866029E+01  0.50528852048E+02  0.29999976285E+02 0.  0.
        -12    1    1    2    0    0  0.12121949533E+02  0.38635142722E+02 -0.36810866029E+01  0.40659147952E+02  0.00000000000E+00 0.  1.
         11    1    3    3    0    0 -0.79318860684E+01 -0.21755907509E+02  0.10902162033E+02  0.25594754646E+02  0.51100000000E-03 0. -1.
        -11    1    3    3    0    0 -0.82158901541E+01 -0.14774673855E+02 -0.61466862372E+00  0.16916549776E+02  0.51100000000E-03 0.  1.
        -12    1    3    3    0    0  0.40258266894E+01 -0.21045613570E+01 -0.66064068060E+01  0.80175476253E+01  0.00000000000E+00 0.  1.
</event>
<event>
 7    1  0.5992960E-013  0.5052897E+02  0.7816164E-02  0.1300438E+00
        -11   -1    0    0    0    0  0.00000000000E+00  0.00000000000E+00  0.45593999997E+02  0.45594000000E+02  0.51100000000E-03 0. -1.
         11   -1    0    0    0    0 -0.00000000000E+00 -0.00000000000E+00 -0.45593999997E+02  0.45594000000E+02  0.51100000000E-03 0.  1.
    9900012    2    1    2    0    0 -0.85458046705E+01  0.79112931158E+01  0.38955582885E+02  0.50528969341E+02  0.30000332808E+02 0.  0.
        -12    1    1    2    0    0  0.85458046705E+01 -0.79112931158E+01 -0.38955582885E+02  0.40659030659E+02  0.00000000000E+00 0.  1.
         11    1    3    3    0    0 -0.12179061156E+02  0.50487055168E+01  0.14895695586E+02  0.19892227258E+02  0.51100000000E-03 0. -1.
        -11    1    3    3    0    0 -0.38316890813E+01  0.85041110203E+01  0.14644120514E+02  0.17362373437E+02  0.51100000000E-03 0.  1.
        -12    1    3    3    0    0  0.74649455665E+01 -0.56415234213E+01  0.94157667849E+01  0.13274368647E+02  0.00000000000E+00 0.  1.
</event>
<event>
 7    1  0.5992960E-013  0.5052885E+02  0.7816164E-02  0.1300439E+00
        -11   -1    0    0    0    0  0.00000000000E+00  0.00000000000E+00  0.45593999997E+02  0.45594000000E+02  0.51100000000E-03 0.  1.
         11   -1    0    0    0    0 -0.00000000000E+00 -0.00000000000E+00 -0.45593999997E+02  0.45594000000E+02  0.51100000000E-03 0. -1.
    9900012    2    1    2    0    0  0.18432972099E+02 -0.18637791333E+02 -0.31080935830E+02  0.50528852219E+02  0.29999976804E+02 0.  0.
        -12    1    1    2    0    0 -0.18432972099E+02  0.18637791333E+02  0.31080935830E+02  0.40659147781E+02  0.00000000000E+00 0.  1.
         11    1    3    3    0    0 -0.46430018456E+00 -0.16710992640E+02 -0.87809120502E+01  0.18883253596E+02  0.51100000000E-03 0. -1.
        -11    1    3    3    0    0  0.11014849585E+02 -0.51498516799E+01 -0.67265356221E+01  0.13895832664E+02  0.51100000000E-03 0.  1.
        -12    1    3    3    0    0  0.78824226990E+01  0.32230529868E+01 -0.15573488158E+02  0.17749765958E+02  0.00000000000E+00 0.  1.
</event>
<event>
 7    1  0.5992960E-013  0.5052872E+02  0.7816164E-02  0.1300439E+00
        -11   -1    0    0    0    0  0.00000000000E+00  0.00000000000E+00  0.45593999997E+02  0.45594000000E+02  0.51100000000E-03 0. -1.
         11   -1    0    0    0    0 -0.00000000000E+00 -0.00000000000E+00 -0.45593999997E+02  0.45594000000E+02  0.51100000000E-03 0.  1.
    9900012    2    1    2    0    0  0.26733583621E+02 -0.30628197328E+02  0.63703447631E+00  0.50528723350E+02  0.29999585092E+02 0.  0.
        -12    1    1    2    0    0 -0.26733583621E+02  0.30628197328E+02 -0.63703447631E+00  0.40659276650E+02  0.00000000000E+00 0.  1.
         11    1    3    3    0    0  0.47139408365E+01 -0.35463136658E+01 -0.84352846330E+01  0.10293279649E+02  0.51100000000E-03 0. -1.
        -11    1    3    3    0    0  0.10068568065E+02 -0.73176206838E+01 -0.47457619464E+01  0.13320881805E+02  0.51100000000E-03 0.  1.
         12    1    3    3    0    0  0.11951074720E+02 -0.19764262978E+02  0.13818081056E+02  0.26914561897E+02  0.00000000000E+00 0. -1.
</event>
<event>
 7    1  0.5992960E-013  0.5052886E+02  0.7816164E-02  0.1300439E+00
        -11   -1    0    0    0    0  0.00000000000E+00  0.00000000000E+00  0.45593999997E+02  0.45594000000E+02  0.51100000000E-03 0.  1.
         11   -1    0    0    0    0 -0.00000000000E+00 -0.00000000000E+00 -0.45593999997E+02  0.45594000000E+02  0.51100000000E-03 0. -1.
    9900012    2    1    2    0    0 -0.78884351173E+01  0.37237299353E+02 -0.14294118144E+02  0.50528859759E+02  0.29999999722E+02 0.  0.
        -12    1    1    2    0    0  0.78884351173E+01 -0.37237299353E+02  0.14294118144E+02  0.40659140241E+02  0.00000000000E+00 0.  1.
         11    1    3    3    0    0 -0.65226473663E+00  0.81175905469E+01  0.49286384376E+01  0.95190442106E+01  0.51100000000E-03 0. -1.
        -11    1    3    3    0    0 -0.58535506681E+01  0.93351593723E+01  0.28042429522E+01  0.11369830022E+02  0.51100000000E-03 0.  1.
        -12    1    3    3    0    0 -0.13826197126E+01  0.19784549433E+02 -0.22026999533E+02  0.29639985526E+02  0.00000000000E+00 0.  1.
</event>
<event>
 7    1  0.5992960E-013  0.5052889E+02  0.7816164E-02  0.1300439E+00
        -11   -1    0    0    0    0  0.00000000000E+00  0.00000000000E+00  0.45593999997E+02  0.45594000000E+02  0.51100000000E-03 0. -1.
         11   -1    0    0    0    0 -0.00000000000E+00 -0.00000000000E+00 -0.45593999997E+02  0.45594000000E+02  0.51100000000E-03 0.  1.
    9900012    2    1    2    0    0 -0.37080450294E+02  0.19949765665E+01 -0.16559700942E+02  0.50528887605E+02  0.30000084363E+02 0.  0.
        -12    1    1    2    0    0  0.37080450294E+02 -0.19949765665E+01  0.16559700942E+02  0.40659112395E+02  0.00000000000E+00 0.  1.
         11    1    3    3    0    0 -0.91128737340E+01  0.27256049277E+01 -0.48474790961E+01  0.10675740900E+02  0.51100000000E-03 0. -1.
        -11    1    3    3    0    0 -0.12324727335E+02 -0.11410218058E+02 -0.12436146665E+02  0.20898557944E+02  0.51100000000E-03 0.  1.
         12    1    3    3    0    0 -0.15642849225E+02  0.10679589696E+02  0.72392481853E+00  0.18954588761E+02  0.00000000000E+00 0. -1.
</event>
<event>
 7    1  0.5992960E-013  0.5052888E+02  0.7816164E-02  0.1300439E+00
        -11   -1    0    0    0    0  0.00000000000E+00  0.00000000000E+00  0.45593999997E+02  0.45594000000E+02  0.51100000000E-03 0.  1.
         11   -1    0    0    0    0 -0.00000000000E+00 -0.00000000000E+00 -0.45593999997E+02  0.45594000000E+02  0.51100000000E-03 0. -1.
    9900012    2    1    2    0    0 -0.52518964553E+01 -0.34943992018E+02 -0.20112165596E+02  0.50528878029E+02  0.30000055256E+02 0.  0.
        -12    1    1    2    0    0  0.52518964553E+01  0.34943992018E+02  0.20112165596E+02  0.40659121971E+02  0.00000000000E+00 0.  1.
         11    1    3    3    0    0 -0.38641713791E+01 -0.58505675157E+01 -0.10342628391E+02  0.12495236012E+02  0.51100000000E-03 0. -1.
        -11    1    3    3    0    0 -0.81501183247E+01 -0.76519823885E+01  0.37592803019E+01  0.11794467001E+02  0.51100000000E-03 0.  1.
        -12    1    3    3    0    0  0.67623932486E+01 -0.21441442114E+02 -0.13528817507E+02  0.26239175015E+02  0.00000000000E+00 0.  1.
</event>
<event>
 7    1  0.5992960E-013  0.5052886E+02  0.7816164E-02  0.1300439E+00
        -11   -1    0    0    0    0  0.00000000000E+00  0.00000000000E+00  0.45593999997E+02  0.45594000000E+02  0.51100000000E-03 0.  1.
         11   -1    0    0    0    0 -0.00000000000E+00 -0.00000000000E+00 -0.45593999997E+02  0.45594000000E+02  0.51100000000E-03 0. -1.
    9900012    2    1    2    0    0  0.89523994633E+01 -0.83032655769E+00 -0.39652623809E+02  0.50528862364E+02  0.30000007642E+02 0.  0.
        -12    1    1    2    0    0 -0.89523994633E+01  0.83032655769E+00  0.39652623809E+02  0.40659137636E+02  0.00000000000E+00 0.  1.
         11    1    3    3    0    0  0.59062212118E+01 -0.23825831982E+01 -0.21163284058E+01  0.67111100335E+01  0.51100000000E-03 0. -1.
        -11    1    3    3    0    0  0.11320515245E+01  0.19049425612E+01  0.27234098347E+01  0.35110266596E+01  0.51100000000E-03 0.  1.
        -12    1    3    3    0    0  0.19141267270E+01 -0.35268592064E+00 -0.40259705238E+02  0.40306725671E+02  0.00000000000E+00 0.  1.
</event>
<event>
 7    1  0.5992960E-013  0.5052885E+02  0.7816164E-02  0.1300439E+00
        -11   -1    0    0    0    0  0.00000000000E+00  0.00000000000E+00  0.45593999997E+02  0.45594000000E+02  0.51100000000E-03 0.  1.
         11   -1    0    0    0    0 -0.00000000000E+00 -0.00000000000E+00 -0.45593999997E+02  0.45594000000E+02  0.51100000000E-03 0. -1.
    9900012    2    1    2    0    0  0.13421512216E+01  0.57104021662E+01 -0.40233767226E+02  0.50528854805E+02  0.29999984664E+02 0.  0.
        -12    1    1    2    0    0 -0.13421512216E+01 -0.57104021662E+01  0.40233767226E+02  0.40659145195E+02  0.00000000000E+00 0.  1.
         11    1    3    3    0    0  0.33612318463E+00  0.85516275389E+01 -0.26075645100E+02  0.27444172059E+02  0.51100000000E-03 0. -1.
        -11    1    3    3    0    0 -0.22300553023E+01  0.56361975148E+01 -0.12455773584E+02  0.13852298181E+02  0.51100000000E-03 0.  1.
         12    1    3    3    0    0  0.32360833392E+01 -0.84774228874E+01 -0.17023485429E+01  0.92323845648E+01  0.00000000000E+00 0. -1.
</event>
<event>
 7    1  0.5992960E-013  0.5052886E+02  0.7816164E-02  0.1300439E+00
        -11   -1    0    0    0    0  0.00000000000E+00  0.00000000000E+00  0.45593999997E+02  0.45594000000E+02  0.51100000000E-03 0.  1.
         11   -1    0    0    0    0 -0.00000000000E+00 -0.00000000000E+00 -0.45593999997E+02  0.45594000000E+02  0.51100000000E-03 0. -1.
    9900012    2    1    2    0    0  0.31169088121E+02  0.25569586071E+02 -0.52773366859E+01  0.50528855043E+02  0.29999985388E+02 0.  0.
        -12    1    1    2    0    0 -0.31169088121E+02 -0.25569586071E+02  0.52773366859E+01  0.40659144957E+02  0.00000000000E+00 0.  1.
         11    1    3    3    0    0  0.97463396658E+01  0.49618371500E+01 -0.59634014523E+01  0.12456850402E+02  0.51100000000E-03 0. -1.
        -11    1    3    3    0    0  0.29419935831E+01  0.94477870553E+01 -0.99260726335E+01  0.14015809811E+02  0.51100000000E-03 0.  1.
         12    1    3    3    0    0  0.18480754872E+02  0.11159961866E+02  0.10612137400E+02  0.24056194830E+02  0.00000000000E+00 0. -1.
</event>
<event>
 7    1  0.5992960E-013  0.5052886E+02  0.7816164E-02  0.1300439E+00
        -11   -1    0    0    0    0  0.00000000000E+00  0.00000000000E+00  0.45593999997E+02  0.45594000000E+02  0.51100000000E-03 0.  1.
         11   -1    0    0    0    0 -0.00000000000E+00 -0.00000000000E+00 -0.45593999997E+02  0.45594000000E+02  0.51100000000E-03 0. -1.
    9900012    2    1    2    0    0  0.12139160967E+02 -0.21644429382E+02 -0.32207528204E+02  0.50528862955E+02  0.30000009437E+02 0.  0.
        -12    1    1    2    0    0 -0.12139160967E+02  0.21644429382E+02  0.32207528204E+02  0.40659137045E+02  0.00000000000E+00 0.  1.
         11    1    3    3    0    0 -0.27517911932E+01 -0.13386234624E+02 -0.85160885702E+01  0.16102403454E+02  0.51100000000E-03 0. -1.
        -11    1    3    3    0    0  0.98905203751E+01 -0.11028947070E+02 -0.24522269480E+02  0.28649638173E+02  0.51100000000E-03 0.  1.
        -12    1    3    3    0    0  0.50004317851E+01  0.27707523126E+01  0.83082984611E+00  0.57768213274E+01  0.00000000000E+00 0.  1.
</event>
<event>
 7    1  0.5992960E-013  0.5052886E+02  0.7816164E-02  0.1300439E+00
        -11   -1    0    0    0    0  0.00000000000E+00  0.00000000000E+00  0.45593999997E+02  0.45594000000E+02  0.51100000000E-03 0.  1.
         11   -1    0    0    0    0 -0.00000000000E+00 -0.00000000000E+00 -0.45593999997E+02  0.45594000000E+02  0.51100000000E-03 0. -1.
    9900012    2    1    2    0    0 -0.30425540988E+01 -0.13033804888E+02 -0.38393082760E+02  0.50528855775E+02  0.29999987615E+02 0.  0.
        -12    1    1    2    0    0  0.30425540988E+01  0.13033804888E+02  0.38393082760E+02  0.40659144225E+02  0.00000000000E+00 0.  1.
         11    1    3    3    0    0  0.81739868333E+01 -0.20482906227E+00 -0.13761840756E+02  0.16007631835E+02  0.51100000000E-03 0. -1.
        -11    1    3    3    0    0  0.35331173756E+01 -0.52356919794E+01 -0.23431672655E+01  0.67369000281E+01  0.51100000000E-03 0.  1.
         12    1    3    3    0    0 -0.14749658308E+02 -0.75932838462E+01 -0.22288074738E+02  0.27784323913E+02  0.00000000000E+00 0. -1.
</event>
<event>
 7    1  0.5992960E-013  0.5052886E+02  0.7816164E-02  0.1300439E+00
        -11   -1    0    0    0    0  0.00000000000E+00  0.00000000000E+00  0.45593999997E+02  0.45594000000E+02  0.51100000000E-03 0.  1.
         11   -1    0    0    0    0 -0.00000000000E+00 -0.00000000000E+00 -0.45593999997E+02  0.45594000000E+02  0.51100000000E-03 0. -1.
    9900012    2    1    2    0    0 -0.81818072552E+01  0.28899184952E+02 -0.27405492744E+02  0.50528857198E+02  0.29999991940E+02 0.  0.
        -12    1    1    2    0    0  0.81818072552E+01 -0.28899184952E+02  0.27405492744E+02  0.40659142802E+02  0.00000000000E+00 0.  1.
         11    1    3    3    0    0 -0.56068452901E+01 -0.10193704977E+01 -0.10331566549E+02  0.11799029534E+02  0.51100000000E-03 0. -1.
        -11    1    3    3    0    0 -0.97765597840E+01  0.13788813189E+02 -0.10402747062E+02  0.19847660745E+02  0.51100000000E-03 0.  1.
         12    1    3    3    0    0  0.72015978189E+01  0.16129742261E+02 -0.66711791325E+01  0.18882166919E+02  0.00000000000E+00 0. -1.
</event>
<event>
 7    1  0.5992960E-013  0.5052885E+02  0.7816164E-02  0.1300439E+00
        -11   -1    0    0    0    0  0.00000000000E+00  0.00000000000E+00  0.45593999997E+02  0.45594000000E+02  0.51100000000E-03 0.  1.
         11   -1    0    0    0    0 -0.00000000000E+00 -0.00000000000E+00 -0.45593999997E+02  0.45594000000E+02  0.51100000000E-03 0. -1.
    9900012    2    1    2    0    0  0.18439810721E+02 -0.12506743714E+02 -0.34010599852E+02  0.50528853918E+02  0.29999981970E+02 0.  0.
        -12    1    1    2    0    0 -0.18439810721E+02  0.12506743714E+02  0.34010599852E+02  0.40659146082E+02  0.00000000000E+00 0.  1.
         11    1    3    3    0    0 -0.23180245836E+01  0.11559942080E+01 -0.11862547761E+02  0.12142059143E+02  0.51100000000E-03 0. -1.
        -11    1    3    3    0    0  0.79495074229E+01  0.12300609403E+01  0.91084872088E+00  0.80955150446E+01  0.51100000000E-03 0.  1.
        -12    1    3    3    0    0  0.12808327882E+02 -0.14892798862E+02 -0.23058900812E+02  0.30291279731E+02  0.00000000000E+00 0.  1.
</event>
<event>
 7    1  0.5992960E-013  0.5052888E+02  0.7816164E-02  0.1300439E+00
        -11   -1    0    0    0    0  0.00000000000E+00  0.00000000000E+00  0.45593999997E+02  0.45594000000E+02  0.51100000000E-03 0.  1.
         11   -1    0    0    0    0 -0.00000000000E+00 -0.00000000000E+00 -0.45593999997E+02  0.45594000000E+02  0.51100000000E-03 0. -1.
    9900012    2    1    2    0    0 -0.19303219942E+02 -0.35784275179E+02  0.18756397094E+00  0.50528882566E+02  0.30000069049E+02 0.  0.
        -12    1    1    2    0    0  0.19303219942E+02  0.35784275179E+02 -0.18756397094E+00  0.40659117434E+02  0.00000000000E+00 0.  1.
         11    1    3    3    0    0 -0.20958632982E+01 -0.19087130873E+01 -0.44935191604E+01  0.53129599396E+01  0.51100000000E-03 0.  1.
        -11    1    3    3    0    0  0.58363454369E+00 -0.10287811370E+02 -0.80190891554E+01  0.13057008969E+02  0.51100000000E-03 0. -1.
        -12    1    3    3    0    0 -0.17790991187E+02 -0.23587750722E+02  0.12700172287E+02  0.32158913658E+02  0.00000000000E+00 0.  1.
</event>
<event>
 7    1  0.5992960E-013  0.5052887E+02  0.7816164E-02  0.1300439E+00
        -11   -1    0    0    0    0  0.00000000000E+00  0.00000000000E+00  0.45593999997E+02  0.45594000000E+02  0.51100000000E-03 0.  1.
         11   -1    0    0    0    0 -0.00000000000E+00 -0.00000000000E+00 -0.45593999997E+02  0.45594000000E+02  0.51100000000E-03 0. -1.
    9900012    2    1    2    0    0  0.25352001815E+02  0.31724809398E+02 -0.19943887256E+01  0.50528866785E+02  0.30000021081E+02 0.  0.
        -12    1    1    2    0    0 -0.25352001815E+02 -0.31724809398E+02  0.19943887256E+01  0.40659133215E+02  0.00000000000E+00 0.  1.
         11    1    3    3    0    0  0.79717240364E+01  0.17132281553E+02  0.95009687543E+01  0.21150221343E+02  0.51100000000E-03 0. -1.
        -11    1    3    3    0    0  0.87907188766E+01  0.71999385616E+01  0.22296267513E+01  0.11579597980E+02  0.51100000000E-03 0.  1.
         12    1    3    3    0    0  0.85895589024E+01  0.73925892834E+01 -0.13724984231E+02  0.17799047463E+02  0.00000000000E+00 0. -1.
</event>
<event>
 7    1  0.6623485E-013  0.5052884E+02  0.7816164E-02  0.1300439E+00
        -11   -1    0    0    0    0  0.00000000000E+00  0.00000000000E+00  0.45593999997E+02  0.45594000000E+02  0.51100000000E-03 0.  1.
         11   -1    0    0    0    0 -0.00000000000E+00 -0.00000000000E+00 -0.45593999997E+02  0.45594000000E+02  0.51100000000E-03 0. -1.
    9900012    2    1    2    0    0 -0.23921748839E+02  0.99338558886E+00 -0.32862292339E+02  0.50528841866E+02  0.29999945335E+02 0.  0.
        -12    1    1    2    0    0  0.23921748839E+02 -0.99338558886E+00  0.32862292339E+02  0.40659158134E+02  0.00000000000E+00 0.  1.
         11    1    3    3    0    0 -0.16937815818E+02 -0.59636203790E+01 -0.13790035799E+02  0.22641101128E+02  0.51100000000E-03 0. -1.
        -11    1    3    3    0    0 -0.69413785551E+00 -0.22979444596E+01  0.25743594470E+01  0.35199009823E+01  0.51100000000E-03 0.  1.
         12    1    3    3    0    0 -0.62897951648E+01  0.92549504274E+01 -0.21646615987E+02  0.24367839755E+02  0.00000000000E+00 0. -1.
</event>
<event>
 7    1  0.5992960E-013  0.5052885E+02  0.7816164E-02  0.1300439E+00
        -11   -1    0    0    0    0  0.00000000000E+00  0.00000000000E+00  0.45593999997E+02  0.45594000000E+02  0.51100000000E-03 0.  1.
         11   -1    0    0    0    0 -0.00000000000E+00 -0.00000000000E+00 -0.45593999997E+02  0.45594000000E+02  0.51100000000E-03 0. -1.
    9900012    2    1    2    0    0 -0.21234302037E+02  0.23076332938E+00 -0.34673010105E+02  0.50528850175E+02  0.29999970593E+02 0.  0.
        -12    1    1    2    0    0  0.21234302037E+02 -0.23076332938E+00  0.34673010105E+02  0.40659149825E+02  0.00000000000E+00 0.  1.
         11    1    3    3    0    0 -0.12652185234E+02  0.20061010953E+01 -0.40322440867E+01  0.13429863195E+02  0.51100000000E-03 0. -1.
        -11    1    3    3    0    0  0.18674957797E+01  0.70147657817E+01 -0.10401816677E+02  0.12684331670E+02  0.51100000000E-03 0.  1.
        -12    1    3    3    0    0 -0.10449612583E+02 -0.87901035476E+01 -0.20238949341E+02  0.24414655311E+02  0.00000000000E+00 0.  1.
</event>
<event>
 7    1  0.5992960E-013  0.5052886E+02  0.7816164E-02  0.1300439E+00
        -11   -1    0    0    0    0  0.00000000000E+00  0.00000000000E+00  0.45593999997E+02  0.45594000000E+02  0.51100000000E-03 0.  1.
         11   -1    0    0    0    0 -0.00000000000E+00 -0.00000000000E+00 -0.45593999997E+02  0.45594000000E+02  0.51100000000E-03 0. -1.
    9900012    2    1    2    0    0  0.13630513185E+02  0.29745885545E+02 -0.24136221668E+02  0.50528858433E+02  0.29999995693E+02 0.  0.
        -12    1    1    2    0    0 -0.13630513185E+02 -0.29745885545E+02  0.24136221668E+02  0.40659141567E+02  0.00000000000E+00 0.  1.
         11    1    3    3    0    0 -0.24647411106E+01  0.18573643934E+01  0.52255803294E+00  0.31301467044E+01  0.51100000000E-03 0. -1.
        -11    1    3    3    0    0 -0.84237097252E+00  0.61644712813E+00  0.41407384945E+01  0.42702823628E+01  0.51100000000E-03 0.  1.
         12    1    3    3    0    0  0.16937625268E+02  0.27272074023E+02 -0.28799518196E+02  0.43128429366E+02  0.00000000000E+00 0. -1.
</event>
<event>
 7    1  0.5992960E-013  0.5052885E+02  0.7816164E-02  0.1300439E+00
        -11   -1    0    0    0    0  0.00000000000E+00  0.00000000000E+00  0.45593999997E+02  0.45594000000E+02  0.51100000000E-03 0.  1.
         11   -1    0    0    0    0 -0.00000000000E+00 -0.00000000000E+00 -0.45593999997E+02  0.45594000000E+02  0.51100000000E-03 0. -1.
    9900012    2    1    2    0    0 -0.11101523337E+02  0.36078316401E+02 -0.15108859550E+02  0.50528851317E+02  0.29999974063E+02 0.  0.
        -12    1    1    2    0    0  0.11101523337E+02 -0.36078316401E+02  0.15108859550E+02  0.40659148683E+02  0.00000000000E+00 0.  1.
         11    1    3    3    0    0 -0.43101300666E+01  0.86754623651E+01 -0.60756597702E+01  0.11434793848E+02  0.51100000000E-03 0. -1.
        -11    1    3    3    0    0 -0.12443413655E+02  0.26989481084E+02 -0.16215615016E+01  0.29764073890E+02  0.51100000000E-03 0.  1.
        -12    1    3    3    0    0  0.56520203843E+01  0.41337295189E+00 -0.74116382778E+01  0.93299835789E+01  0.00000000000E+00 0.  1.
</event>
<event>
 7    1  0.5992960E-013  0.5052886E+02  0.7816164E-02  0.1300439E+00
        -11   -1    0    0    0    0  0.00000000000E+00  0.00000000000E+00  0.45593999997E+02  0.45594000000E+02  0.51100000000E-03 0.  1.
         11   -1    0    0    0    0 -0.00000000000E+00 -0.00000000000E+00 -0.45593999997E+02  0.45594000000E+02  0.51100000000E-03 0. -1.
    9900012    2    1    2    0    0 -0.35674388716E+02 -0.16354666545E+02 -0.10631499695E+02  0.50528856947E+02  0.29999991177E+02 0.  0.
        -12    1    1    2    0    0  0.35674388716E+02  0.16354666545E+02  0.10631499695E+02  0.40659143053E+02  0.00000000000E+00 0.  1.
         11    1    3    3    0    0 -0.10865209342E+02 -0.13449030974E+02 -0.10812112991E+01  0.17323343393E+02  0.51100000000E-03 0. -1.
        -11    1    3    3    0    0 -0.19978632073E+02 -0.10653137101E+02 -0.74651674038E+01  0.23840381588E+02  0.51100000000E-03 0.  1.
        -12    1    3    3    0    0 -0.48305473005E+01  0.77475015307E+01 -0.20851209916E+01  0.93651319660E+01  0.00000000000E+00 0.  1.
</event>
<event>
 7    1  0.5992960E-013  0.5052885E+02  0.7816164E-02  0.1300439E+00
        -11   -1    0    0    0    0  0.00000000000E+00  0.00000000000E+00  0.45593999997E+02  0.45594000000E+02  0.51100000000E-03 0. -1.
         11   -1    0    0    0    0 -0.00000000000E+00 -0.00000000000E+00 -0.45593999997E+02  0.45594000000E+02  0.51100000000E-03 0.  1.
    9900012    2    1    2    0    0 -0.16033855936E+02 -0.80805694957E+01  0.36479945152E+02  0.50528849272E+02  0.29999967849E+02 0.  0.
        -12    1    1    2    0    0  0.16033855936E+02  0.80805694957E+01 -0.36479945152E+02  0.40659150728E+02  0.00000000000E+00 0.  1.
         11    1    3    3    0    0 -0.50024525197E-01 -0.77529066493E+01  0.28299976984E+01  0.82534205757E+01  0.51100000000E-03 0. -1.
        -11    1    3    3    0    0 -0.97694849389E+01 -0.81176953734E+01  0.86635858149E+01  0.15375224668E+02  0.51100000000E-03 0.  1.
         12    1    3    3    0    0 -0.62143464721E+01  0.77900325269E+01  0.24986361639E+02  0.26900204029E+02  0.00000000000E+00 0. -1.
</event>
<event>
 7    1  0.5992960E-013  0.5052887E+02  0.7816164E-02  0.1300439E+00
        -11   -1    0    0    0    0  0.00000000000E+00  0.00000000000E+00  0.45593999997E+02  0.45594000000E+02  0.51100000000E-03 0.  1.
         11   -1    0    0    0    0 -0.00000000000E+00 -0.00000000000E+00 -0.45593999997E+02  0.45594000000E+02  0.51100000000E-03 0. -1.
    9900012    2    1    2    0    0  0.86228323246E+01  0.19822870026E+01 -0.39684789934E+02  0.50528865096E+02  0.30000015946E+02 0.  0.
        -12    1    1    2    0    0 -0.86228323246E+01 -0.19822870026E+01  0.39684789934E+02  0.40659134904E+02  0.00000000000E+00 0.  1.
         11    1    3    3    0    0  0.88506683278E+01  0.53724150693E+00 -0.34963404912E+02  0.36070245932E+02  0.51100000000E-03 0. -1.
        -11    1    3    3    0    0 -0.79885959755E+00  0.18294926622E+01 -0.94609773333E+01  0.96692974109E+01  0.51100000000E-03 0.  1.
        -12    1    3    3    0    0  0.57102359434E+00 -0.38444716650E+00  0.47395923119E+01  0.47893217528E+01  0.00000000000E+00 0.  1.
</event>
<event>
 7    1  0.5992960E-013  0.5052885E+02  0.7816164E-02  0.1300439E+00
        -11   -1    0    0    0    0  0.00000000000E+00  0.00000000000E+00  0.45593999997E+02  0.45594000000E+02  0.51100000000E-03 0. -1.
         11   -1    0    0    0    0 -0.00000000000E+00 -0.00000000000E+00 -0.45593999997E+02  0.45594000000E+02  0.51100000000E-03 0.  1.
    9900012    2    1    2    0    0  0.38079280857E+02 -0.10709088594E+02  0.94047977663E+01  0.50528850598E+02  0.29999971876E+02 0.  0.
        -12    1    1    2    0    0 -0.38079280857E+02  0.10709088594E+02 -0.94047977663E+01  0.40659149402E+02  0.00000000000E+00 0.  1.
         11    1    3    3    0    0  0.73213502399E+01  0.47165835222E+00 -0.98070666166E+00  0.74017847006E+01  0.51100000000E-03 0. -1.
        -11    1    3    3    0    0  0.17836789160E+02  0.72886114341E+01  0.37480251403E+01  0.19629635679E+02  0.51100000000E-03 0.  1.
        -12    1    3    3    0    0  0.12921141457E+02 -0.18469358381E+02  0.66374792877E+01  0.23497430218E+02  0.00000000000E+00 0.  1.
</event>
<event>
 7    1  0.5992960E-013  0.5052885E+02  0.7816164E-02  0.1300439E+00
        -11   -1    0    0    0    0  0.00000000000E+00  0.00000000000E+00  0.45593999997E+02  0.45594000000E+02  0.51100000000E-03 0. -1.
         11   -1    0    0    0    0 -0.00000000000E+00 -0.00000000000E+00 -0.45593999997E+02  0.45594000000E+02  0.51100000000E-03 0.  1.
    9900012    2    1    2    0    0 -0.25385624060E+02  0.26592728019E+02 -0.17365587957E+02  0.50528846818E+02  0.29999960388E+02 0.  0.
        -12    1    1    2    0    0  0.25385624060E+02 -0.26592728019E+02  0.17365587957E+02  0.40659153182E+02  0.00000000000E+00 0.  1.
         11    1    3    3    0    0 -0.14493502625E+02  0.58310646442E+01  0.37392297532E+00  0.15626987933E+02  0.51100000000E-03 0. -1.
        -11    1    3    3    0    0 -0.95181075749E+01  0.83071780913E+01  0.64904504774E+00  0.12650092465E+02  0.51100000000E-03 0.  1.
        -12    1    3    3    0    0 -0.13740138602E+01  0.12454485283E+02 -0.18388555980E+02  0.22251766419E+02  0.00000000000E+00 0.  1.
</event>
<event>
 7    1  0.5992960E-013  0.5052890E+02  0.7816164E-02  0.1300439E+00
        -11   -1    0    0    0    0  0.00000000000E+00  0.00000000000E+00  0.45593999997E+02  0.45594000000E+02  0.51100000000E-03 0.  1.
         11   -1    0    0    0    0 -0.00000000000E+00 -0.00000000000E+00 -0.45593999997E+02  0.45594000000E+02  0.51100000000E-03 0. -1.
    9900012    2    1    2    0    0  0.36017859047E+02  0.16497590950E+02  0.91490674939E+01  0.50528903680E+02  0.30000133226E+02 0.  0.
        -12    1    1    2    0    0 -0.36017859047E+02 -0.16497590950E+02 -0.91490674939E+01  0.40659096320E+02  0.00000000000E+00 0.  1.
         11    1    3    3    0    0  0.27140762361E+01 -0.51251700161E+01  0.91254840244E+00  0.58708025309E+01  0.51100000000E-03 0. -1.
        -11    1    3    3    0    0  0.16997614862E+02  0.10621047740E+01 -0.38862028234E+00  0.17035198958E+02  0.51100000000E-03 0.  1.
         12    1    3    3    0    0  0.16306167949E+02  0.20560656193E+02  0.86251393738E+01  0.27622902191E+02  0.00000000000E+00 0. -1.
</event>
<event>
 7    1  0.5992960E-013  0.5052886E+02  0.7816164E-02  0.1300439E+00
        -11   -1    0    0    0    0  0.00000000000E+00  0.00000000000E+00  0.45593999997E+02  0.45594000000E+02  0.51100000000E-03 0.  1.
         11   -1    0    0    0    0 -0.00000000000E+00 -0.00000000000E+00 -0.45593999997E+02  0.45594000000E+02  0.51100000000E-03 0. -1.
    9900012    2    1    2    0    0  0.97073377938E+01 -0.72464182739E+01 -0.38812657770E+02  0.50528863412E+02  0.30000010828E+02 0.  0.
        -12    1    1    2    0    0 -0.97073377938E+01  0.72464182739E+01  0.38812657770E+02  0.40659136588E+02  0.00000000000E+00 0.  1.
         11    1    3    3    0    0  0.34059060729E+01  0.67519140275E+01 -0.11361567154E+02  0.13648214084E+02  0.51100000000E-03 0. -1.
        -11    1    3    3    0    0 -0.46595022513E+01  0.14931865435E+01 -0.98470681518E+01  0.10995695464E+02  0.51100000000E-03 0.  1.
        -12    1    3    3    0    0  0.10960933972E+02 -0.15491518845E+02 -0.17604022464E+02  0.25884953865E+02  0.00000000000E+00 0.  1.
</event>
<event>
 7    1  0.5992960E-013  0.5052886E+02  0.7816164E-02  0.1300439E+00
        -11   -1    0    0    0    0  0.00000000000E+00  0.00000000000E+00  0.45593999997E+02  0.45594000000E+02  0.51100000000E-03 0.  1.
         11   -1    0    0    0    0 -0.00000000000E+00 -0.00000000000E+00 -0.45593999997E+02  0.45594000000E+02  0.51100000000E-03 0. -1.
    9900012    2    1    2    0    0 -0.35944978411E+02  0.10482576064E+02 -0.15850539226E+02  0.50528862433E+02  0.30000007852E+02 0.  0.
        -12    1    1    2    0    0  0.35944978411E+02 -0.10482576064E+02  0.15850539226E+02  0.40659137567E+02  0.00000000000E+00 0.  1.
         11    1    3    3    0    0 -0.48055504001E+01  0.83630530372E+00  0.29219529054E+00  0.48865222355E+01  0.51100000000E-03 0. -1.
        -11    1    3    3    0    0 -0.26197987850E+01  0.12794709714E+02 -0.75080700821E+00  0.13081729770E+02  0.51100000000E-03 0.  1.
         12    1    3    3    0    0 -0.28519629226E+02 -0.31484389538E+01 -0.15391927509E+02  0.32560610428E+02  0.00000000000E+00 0. -1.
</event>
<event>
 7    1  0.5992960E-013  0.5052886E+02  0.7816164E-02  0.1300439E+00
        -11   -1    0    0    0    0  0.00000000000E+00  0.00000000000E+00  0.45593999997E+02  0.45594000000E+02  0.51100000000E-03 0. -1.
         11   -1    0    0    0    0 -0.00000000000E+00 -0.00000000000E+00 -0.45593999997E+02  0.45594000000E+02  0.51100000000E-03 0.  1.
    9900012    2    1    2    0    0 -0.36797531731E+02 -0.25080738576E+01  0.17111902161E+02  0.50528856237E+02  0.29999989017E+02 0.  0.
        -12    1    1    2    0    0  0.36797531731E+02  0.25080738576E+01 -0.17111902161E+02  0.40659143763E+02  0.00000000000E+00 0.  1.
         11    1    3    3    0    0 -0.18704963744E+02  0.28206396702E+01  0.14516230112E+02  0.23844341336E+02  0.51100000000E-03 0. -1.
        -11    1    3    3    0    0 -0.33672978801E+01  0.79724511396E+00  0.88891969922E+01  0.95389788873E+01  0.51100000000E-03 0.  1.
        -12    1    3    3    0    0 -0.14725270107E+02 -0.61259586417E+01 -0.62935249424E+01  0.17145536014E+02  0.00000000000E+00 0.  1.
</event>
<event>
 7    1  0.5992960E-013  0.5052886E+02  0.7816164E-02  0.1300439E+00
        -11   -1    0    0    0    0  0.00000000000E+00  0.00000000000E+00  0.45593999997E+02  0.45594000000E+02  0.51100000000E-03 0.  1.
         11   -1    0    0    0    0 -0.00000000000E+00 -0.00000000000E+00 -0.45593999997E+02  0.45594000000E+02  0.51100000000E-03 0. -1.
    9900012    2    1    2    0    0 -0.18130183321E+02 -0.14971283217E+02 -0.33171111205E+02  0.50528862196E+02  0.30000007131E+02 0.  0.
        -12    1    1    2    0    0  0.18130183321E+02  0.14971283217E+02  0.33171111205E+02  0.40659137804E+02  0.00000000000E+00 0.  1.
         11    1    3    3    0    0  0.19780885355E+01 -0.60844553576E+01 -0.55638450369E+01  0.84787854737E+01  0.51100000000E-03 0. -1.
        -11    1    3    3    0    0 -0.56365840521E+01 -0.81459917036E+01  0.10259543737E+01  0.99589579400E+01  0.51100000000E-03 0.  1.
        -12    1    3    3    0    0 -0.14471687804E+02 -0.74083615539E+00 -0.28633220542E+02  0.32091118782E+02  0.00000000000E+00 0.  1.
</event>
<event>
 7    1  0.5992960E-013  0.5052886E+02  0.7816164E-02  0.1300439E+00
        -11   -1    0    0    0    0  0.00000000000E+00  0.00000000000E+00  0.45593999997E+02  0.45594000000E+02  0.51100000000E-03 0.  1.
         11   -1    0    0    0    0 -0.00000000000E+00 -0.00000000000E+00 -0.45593999997E+02  0.45594000000E+02  0.51100000000E-03 0. -1.
    9900012    2    1    2    0    0 -0.20260578464E+02 -0.20898004378E+02 -0.28389225539E+02  0.50528858919E+02  0.29999997172E+02 0.  0.
        -12    1    1    2    0    0  0.20260578464E+02  0.20898004378E+02  0.28389225539E+02  0.40659141081E+02  0.00000000000E+00 0.  1.
         11    1    3    3    0    0 -0.46244339494E-01 -0.85227841191E+01 -0.31322094827E+01  0.90802381128E+01  0.51100000000E-03 0. -1.
        -11    1    3    3    0    0 -0.17095653215E+01 -0.76402539559E+01  0.20788891928E+01  0.81004860740E+01  0.51100000000E-03 0.  1.
        -12    1    3    3    0    0 -0.18504768803E+02 -0.47349663031E+01 -0.27335905249E+02  0.33348134733E+02  0.00000000000E+00 0.  1.
</event>
<event>
 7    1  0.5992960E-013  0.5052885E+02  0.7816164E-02  0.1300439E+00
        -11   -1    0    0    0    0  0.00000000000E+00  0.00000000000E+00  0.45593999997E+02  0.45594000000E+02  0.51100000000E-03 0.  1.
         11   -1    0    0    0    0 -0.00000000000E+00 -0.00000000000E+00 -0.45593999997E+02  0.45594000000E+02  0.51100000000E-03 0. -1.
    9900012    2    1    2    0    0 -0.68566638298E+01  0.16748803340E+02 -0.36409201942E+02  0.50528852957E+02  0.29999979047E+02 0.  0.
        -12    1    1    2    0    0  0.68566638298E+01 -0.16748803340E+02  0.36409201942E+02  0.40659147043E+02  0.00000000000E+00 0.  1.
         11    1    3    3    0    0 -0.88931526667E+01 -0.29805088481E+01 -0.10854947118E+02  0.14345782465E+02  0.51100000000E-03 0. -1.
        -11    1    3    3    0    0 -0.54863618464E+01  0.41434414126E+01 -0.24133557538E+01  0.72864641154E+01  0.51100000000E-03 0.  1.
        -12    1    3    3    0    0  0.75228506833E+01  0.15585870776E+02 -0.23140899071E+02  0.28896606376E+02  0.00000000000E+00 0.  1.
</event>
<event>
 7    1  0.5992960E-013  0.5052887E+02  0.7816164E-02  0.1300439E+00
        -11   -1    0    0    0    0  0.00000000000E+00  0.00000000000E+00  0.45593999997E+02  0.45594000000E+02  0.51100000000E-03 0. -1.
         11   -1    0    0    0    0 -0.00000000000E+00 -0.00000000000E+00 -0.45593999997E+02  0.45594000000E+02  0.51100000000E-03 0.  1.
    9900012    2    1    2    0    0 -0.27630725518E+02  0.22381746568E+02  0.19717136343E+02  0.50528867722E+02  0.30000023926E+02 0.  0.
        -12    1    1    2    0    0  0.27630725518E+02 -0.22381746568E+02 -0.19717136343E+02  0.40659132278E+02  0.00000000000E+00 0.  1.
         11    1    3    3    0    0 -0.15882457422E+02  0.20073078050E+02  0.13814899715E+02  0.29086635600E+02  0.51100000000E-03 0. -1.
        -11    1    3    3    0    0 -0.58356125425E+01  0.27484750120E+01 -0.55738596427E+01  0.85250454671E+01  0.51100000000E-03 0.  1.
         12    1    3    3    0    0 -0.59126555539E+01 -0.43980649403E+00  0.11476096270E+02  0.12917186654E+02  0.00000000000E+00 0. -1.
</event>
<event>
 7    1  0.5992960E-013  0.5052886E+02  0.7816164E-02  0.1300439E+00
        -11   -1    0    0    0    0  0.00000000000E+00  0.00000000000E+00  0.45593999997E+02  0.45594000000E+02  0.51100000000E-03 0.  1.
         11   -1    0    0    0    0 -0.00000000000E+00 -0.00000000000E+00 -0.45593999997E+02  0.45594000000E+02  0.51100000000E-03 0. -1.
    9900012    2    1    2    0    0 -0.34654830244E+02 -0.97067236841E+01 -0.18920569587E+02  0.50528859608E+02  0.29999999265E+02 0.  0.
        -12    1    1    2    0    0  0.34654830244E+02  0.97067236841E+01  0.18920569587E+02  0.40659140392E+02  0.00000000000E+00 0.  1.
         11    1    3    3    0    0 -0.97194756710E+01  0.24902957973E+01 -0.92635041956E+01  0.13655851886E+02  0.51100000000E-03 0. -1.
        -11    1    3    3    0    0 -0.13743156175E+02  0.38196251765E+01 -0.98462883568E+01  0.17332434128E+02  0.51100000000E-03 0.  1.
        -12    1    3    3    0    0 -0.11192198398E+02 -0.16016644658E+02  0.18922296571E+00  0.19540573595E+02  0.00000000000E+00 0.  1.
</event>
<event>
 7    1  0.5992960E-013  0.5052886E+02  0.7816164E-02  0.1300439E+00
        -11   -1    0    0    0    0  0.00000000000E+00  0.00000000000E+00  0.45593999997E+02  0.45594000000E+02  0.51100000000E-03 0. -1.
         11   -1    0    0    0    0 -0.00000000000E+00 -0.00000000000E+00 -0.45593999997E+02  0.45594000000E+02  0.51100000000E-03 0.  1.
    9900012    2    1    2    0    0 -0.94498099395E+01  0.34946026551E+02 -0.18510589456E+02  0.50528860786E+02  0.30000002846E+02 0.  0.
        -12    1    1    2    0    0  0.94498099395E+01 -0.34946026551E+02  0.18510589456E+02  0.40659139214E+02  0.00000000000E+00 0.  1.
         11    1    3    3    0    0 -0.63468154645E+01  0.72666474546E+01  0.34866736760E+01  0.10258807209E+02  0.51100000000E-03 0. -1.
        -11    1    3    3    0    0  0.72955241191E+01  0.62438237384E+01 -0.39572538907E+01  0.10386041867E+02  0.51100000000E-03 0.  1.
         12    1    3    3    0    0 -0.10398518594E+02  0.21435555358E+02 -0.18040009242E+02  0.29884011710E+02  0.00000000000E+00 0. -1.
</event>
<event>
 7    1  0.5992960E-013  0.5052886E+02  0.7816164E-02  0.1300439E+00
        -11   -1    0    0    0    0  0.00000000000E+00  0.00000000000E+00  0.45593999997E+02  0.45594000000E+02  0.51100000000E-03 0.  1.
         11   -1    0    0    0    0 -0.00000000000E+00 -0.00000000000E+00 -0.45593999997E+02  0.45594000000E+02  0.51100000000E-03 0. -1.
    9900012    2    1    2    0    0  0.86463206763E+01  0.33821678733E+01 -0.39584941671E+02  0.50528861693E+02  0.30000005602E+02 0.  0.
        -12    1    1    2    0    0 -0.86463206763E+01 -0.33821678733E+01  0.39584941671E+02  0.40659138307E+02  0.00000000000E+00 0.  1.
         11    1    3    3    0    0  0.24159262403E+01  0.71367891998E+01 -0.18640323185E+02  0.20105524325E+02  0.51100000000E-03 0. -1.
        -11    1    3    3    0    0 -0.30319837314E+01  0.38695465892E+00 -0.20001221402E+02  0.20233425738E+02  0.51100000000E-03 0.  1.
        -12    1    3    3    0    0  0.92623781674E+01 -0.41415759855E+01 -0.94339708372E+00  0.10189911629E+02  0.00000000000E+00 0.  1.
</event>
<event>
 7    1  0.5992960E-013  0.5052885E+02  0.7816164E-02  0.1300439E+00
        -11   -1    0    0    0    0  0.00000000000E+00  0.00000000000E+00  0.45593999997E+02  0.45594000000E+02  0.51100000000E-03 0.  1.
         11   -1    0    0    0    0 -0.00000000000E+00 -0.00000000000E+00 -0.45593999997E+02  0.45594000000E+02  0.51100000000E-03 0. -1.
    9900012    2    1    2    0    0 -0.32337985439E+02  0.12280841874E+02  0.21368256566E+02  0.50528846442E+02  0.29999959245E+02 0.  0.
        -12    1    1    2    0    0  0.32337985439E+02 -0.12280841874E+02 -0.21368256566E+02  0.40659153558E+02  0.00000000000E+00 0.  1.
         11    1    3    3    0    0 -0.35652457829E+02  0.33963300188E+01  0.19001487754E+02  0.40542438801E+02  0.51100000000E-03 0. -1.
        -11    1    3    3    0    0 -0.13108276705E+00  0.14254718589E+01 -0.15684003925E-01  0.14315721992E+01  0.51100000000E-03 0.  1.
         12    1    3    3    0    0  0.34455551567E+01  0.74590399967E+01  0.23824528159E+01  0.85548354415E+01  0.00000000000E+00 0. -1.
</event>
<event>
 7    1  0.5992960E-013  0.5052888E+02  0.7816164E-02  0.1300439E+00
        -11   -1    0    0    0    0  0.00000000000E+00  0.00000000000E+00  0.45593999997E+02  0.45594000000E+02  0.51100000000E-03 0. -1.
         11   -1    0    0    0    0 -0.00000000000E+00 -0.00000000000E+00 -0.45593999997E+02  0.45594000000E+02  0.51100000000E-03 0.  1.
    9900012    2    1    2    0    0 -0.21482889412E+02  0.32396348277E+01  0.34367928116E+02  0.50528877355E+02  0.30000053208E+02 0.  0.
        -12    1    1    2    0    0  0.21482889412E+02 -0.32396348277E+01 -0.34367928116E+02  0.40659122645E+02  0.00000000000E+00 0.  1.
         11    1    3    3    0    0 -0.62604925058E+01 -0.96184026392E+01  0.11442386613E+02  0.16206037375E+02  0.51100000000E-03 0. -1.
        -11    1    3    3    0    0 -0.20872918255E+01 -0.27396294168E+01 -0.25016465653E+00  0.34532505155E+01  0.51100000000E-03 0.  1.
         12    1    3    3    0    0 -0.13135105081E+02  0.15597666884E+02  0.23175706159E+02  0.30869589464E+02  0.00000000000E+00 0. -1.
</event>
<event>
 7    1  0.5992960E-013  0.5052886E+02  0.7816164E-02  0.1300439E+00
        -11   -1    0    0    0    0  0.00000000000E+00  0.00000000000E+00  0.45593999997E+02  0.45594000000E+02  0.51100000000E-03 0.  1.
         11   -1    0    0    0    0 -0.00000000000E+00 -0.00000000000E+00 -0.45593999997E+02  0.45594000000E+02  0.51100000000E-03 0. -1.
    9900012    2    1    2    0    0  0.90834292253E+00  0.44367506667E+01 -0.40406136357E+02  0.50528859593E+02  0.29999999218E+02 0.  0.
        -12    1    1    2    0    0 -0.90834292253E+00 -0.44367506667E+01  0.40406136357E+02  0.40659140407E+02  0.00000000000E+00 0.  1.
         11    1    3    3    0    0  0.26633214933E+01  0.10914490162E+02 -0.22914838058E+02  0.25520759792E+02  0.51100000000E-03 0. -1.
        -11    1    3    3    0    0 -0.19488492172E+01  0.55303113113E+01 -0.56874359706E+01  0.81687994622E+01  0.51100000000E-03 0.  1.
         12    1    3    3    0    0  0.19387064639E+00 -0.12008050807E+02 -0.11803862328E+02  0.16839300338E+02  0.00000000000E+00 0. -1.
</event>
<event>
 7    1  0.5992960E-013  0.5052886E+02  0.7816164E-02  0.1300439E+00
        -11   -1    0    0    0    0  0.00000000000E+00  0.00000000000E+00  0.45593999997E+02  0.45594000000E+02  0.51100000000E-03 0. -1.
         11   -1    0    0    0    0 -0.00000000000E+00 -0.00000000000E+00 -0.45593999997E+02  0.45594000000E+02  0.51100000000E-03 0.  1.
    9900012    2    1    2    0    0  0.19143162598E+02 -0.19989545311E+02  0.29784615333E+02  0.50528857036E+02  0.29999991447E+02 0.  0.
        -12    1    1    2    0    0 -0.19143162598E+02  0.19989545311E+02 -0.29784615333E+02  0.40659142964E+02  0.00000000000E+00 0.  1.
         11    1    3    3    0    0  0.20759902076E+01 -0.73625683651E+01  0.14368495188E+02  0.16277923777E+02  0.51100000000E-03 0. -1.
        -11    1    3    3    0    0  0.12665606078E+02 -0.16378125238E+02  0.18439639625E+02  0.27725094651E+02  0.51100000000E-03 0.  1.
        -12    1    3    3    0    0  0.44015663118E+01  0.37511482915E+01 -0.30235194792E+01  0.65258386084E+01  0.00000000000E+00 0.  1.
</event>
<event>
 7    1  0.5992960E-013  0.5052887E+02  0.7816164E-02  0.1300439E+00
        -11   -1    0    0    0    0  0.00000000000E+00  0.00000000000E+00  0.45593999997E+02  0.45594000000E+02  0.51100000000E-03 0. -1.
         11   -1    0    0    0    0 -0.00000000000E+00 -0.00000000000E+00 -0.45593999997E+02  0.45594000000E+02  0.51100000000E-03 0.  1.
    9900012    2    1    2    0    0  0.27571043210E+01  0.34082023350E+02  0.21999522718E+02  0.50528868926E+02  0.30000027587E+02 0.  0.
        -12    1    1    2    0    0 -0.27571043210E+01 -0.34082023350E+02 -0.21999522718E+02  0.40659131074E+02  0.00000000000E+00 0.  1.
         11    1    3    3    0    0 -0.57767913152E+01  0.84465605296E+01  0.26406165921E+01  0.10568280793E+02  0.51100000000E-03 0.  1.
        -11    1    3    3    0    0  0.72401929295E+01  0.18283568361E+02  0.24109476752E+02  0.31112314848E+02  0.51100000000E-03 0. -1.
         12    1    3    3    0    0  0.12937027068E+01  0.73518944596E+01 -0.47505706263E+01  0.88482732843E+01  0.00000000000E+00 0. -1.
</event>
<event>
 7    1  0.5992960E-013  0.5052891E+02  0.7816164E-02  0.1300439E+00
        -11   -1    0    0    0    0  0.00000000000E+00  0.00000000000E+00  0.45593999997E+02  0.45594000000E+02  0.51100000000E-03 0.  1.
         11   -1    0    0    0    0 -0.00000000000E+00 -0.00000000000E+00 -0.45593999997E+02  0.45594000000E+02  0.51100000000E-03 0. -1.
    9900012    2    1    2    0    0 -0.15296484672E+02 -0.33485047112E+02 -0.17260661043E+02  0.50528914385E+02  0.30000165765E+02 0.  0.
        -12    1    1    2    0    0  0.15296484672E+02  0.33485047112E+02  0.17260661043E+02  0.40659085615E+02  0.00000000000E+00 0.  1.
         11    1    3    3    0    0  0.33012683635E+00 -0.80443604859E+01 -0.67483080545E+00  0.80793636032E+01  0.51100000000E-03 0. -1.
        -11    1    3    3    0    0 -0.83750443309E+01  0.36125131371E+01 -0.34726582366E+01  0.97596605575E+01  0.51100000000E-03 0.  1.
        -12    1    3    3    0    0 -0.72515671774E+01 -0.29053199763E+02 -0.13113172001E+02  0.32689890225E+02  0.00000000000E+00 0.  1.
</event>
<event>
 7    1  0.5992960E-013  0.5052884E+02  0.7816164E-02  0.1300439E+00
        -11   -1    0    0    0    0  0.00000000000E+00  0.00000000000E+00  0.45593999997E+02  0.45594000000E+02  0.51100000000E-03 0.  1.
         11   -1    0    0    0    0 -0.00000000000E+00 -0.00000000000E+00 -0.45593999997E+02  0.45594000000E+02  0.51100000000E-03 0. -1.
    9900012    2    1    2    0    0 -0.65907219605E+01 -0.40037723926E+02 -0.25904633423E+01  0.50528838013E+02  0.29999933624E+02 0.  0.
        -12    1    1    2    0    0  0.65907219605E+01  0.40037723926E+02  0.25904633423E+01  0.40659161987E+02  0.00000000000E+00 0.  1.
         11    1    3    3    0    0 -0.36447987914E+01 -0.14826232126E+01  0.20963018362E+01  0.44583866443E+01  0.51100000000E-03 0.  1.
        -11    1    3    3    0    0 -0.57961904047E+01 -0.79919155292E+00 -0.57344939862E+01  0.81926156925E+01  0.51100000000E-03 0. -1.
         12    1    3    3    0    0  0.28502672356E+01 -0.37755909161E+02  0.10477288077E+01  0.37877835676E+02  0.00000000000E+00 0. -1.
</event>
<event>
 7    1  0.5992960E-013  0.5052885E+02  0.7816164E-02  0.1300439E+00
        -11   -1    0    0    0    0  0.00000000000E+00  0.00000000000E+00  0.45593999997E+02  0.45594000000E+02  0.51100000000E-03 0.  1.
         11   -1    0    0    0    0 -0.00000000000E+00 -0.00000000000E+00 -0.45593999997E+02  0.45594000000E+02  0.51100000000E-03 0. -1.
    9900012    2    1    2    0    0 -0.26146758131E+02 -0.30851101148E+02  0.42099076563E+01  0.50528846968E+02  0.29999960844E+02 0.  0.
        -12    1    1    2    0    0  0.26146758131E+02  0.30851101148E+02 -0.42099076563E+01  0.40659153032E+02  0.00000000000E+00 0.  1.
         11    1    3    3    0    0  0.18583646792E+01 -0.36071266556E+01 -0.16708607962E+01  0.43882408835E+01  0.51100000000E-03 0. -1.
        -11    1    3    3    0    0 -0.26218449501E+02 -0.94395591196E+01  0.32652376791E+01  0.28056623959E+02  0.51100000000E-03 0.  1.
         12    1    3    3    0    0 -0.17866733086E+01 -0.17804415373E+02  0.26155307734E+01  0.18083982125E+02  0.00000000000E+00 0. -1.
</event>
<event>
 7    1  0.5992960E-013  0.5052885E+02  0.7816164E-02  0.1300439E+00
        -11   -1    0    0    0    0  0.00000000000E+00  0.00000000000E+00  0.45593999997E+02  0.45594000000E+02  0.51100000000E-03 0. -1.
         11   -1    0    0    0    0 -0.00000000000E+00 -0.00000000000E+00 -0.45593999997E+02  0.45594000000E+02  0.51100000000E-03 0.  1.
    9900012    2    1    2    0    0 -0.17353754505E+02 -0.61900548655E+01  0.36244958960E+02  0.50528848205E+02  0.29999964605E+02 0.  0.
        -12    1    1    2    0    0  0.17353754505E+02  0.61900548655E+01 -0.36244958960E+02  0.40659151795E+02  0.00000000000E+00 0.  1.
         11    1    3    3    0    0 -0.57490508822E+01  0.17651161328E+01  0.11777856931E+02  0.13224414360E+02  0.51100000000E-03 0. -1.
        -11    1    3    3    0    0 -0.13036868573E+02 -0.10152011681E+02  0.28234562209E+02  0.32714122130E+02  0.51100000000E-03 0.  1.
        -12    1    3    3    0    0  0.14321649498E+01  0.21968406825E+01 -0.37674601809E+01  0.45903117152E+01  0.00000000000E+00 0.  1.
</event>
<event>
 7    1  0.5992960E-013  0.5052886E+02  0.7816164E-02  0.1300439E+00
        -11   -1    0    0    0    0  0.00000000000E+00  0.00000000000E+00  0.45593999997E+02  0.45594000000E+02  0.51100000000E-03 0.  1.
         11   -1    0    0    0    0 -0.00000000000E+00 -0.00000000000E+00 -0.45593999997E+02  0.45594000000E+02  0.51100000000E-03 0. -1.
    9900012    2    1    2    0    0  0.19520185988E+01 -0.20924609557E+02 -0.34806839494E+02  0.50528859118E+02  0.29999997775E+02 0.  0.
        -12    1    1    2    0    0 -0.19520185988E+01  0.20924609557E+02  0.34806839494E+02  0.40659140882E+02  0.00000000000E+00 0.  1.
         11    1    3    3    0    0  0.83920166006E-01 -0.78680664018E+01 -0.23133765146E+02  0.24435314640E+02  0.51100000000E-03 0. -1.
        -11    1    3    3    0    0 -0.51025379441E+01  0.83811546664E+00 -0.89143271932E+01  0.10305511175E+02  0.51100000000E-03 0.  1.
        -12    1    3    3    0    0  0.69706363769E+01 -0.13894658621E+02 -0.27587471550E+01  0.15788033303E+02  0.00000000000E+00 0.  1.
</event>
<event>
 7    1  0.5992960E-013  0.5052885E+02  0.7816164E-02  0.1300439E+00
        -11   -1    0    0    0    0  0.00000000000E+00  0.00000000000E+00  0.45593999997E+02  0.45594000000E+02  0.51100000000E-03 0. -1.
         11   -1    0    0    0    0 -0.00000000000E+00 -0.00000000000E+00 -0.45593999997E+02  0.45594000000E+02  0.51100000000E-03 0.  1.
    9900012    2    1    2    0    0  0.27757658120E+02 -0.29471223518E+02 -0.37584561099E+01  0.50528848604E+02  0.29999965815E+02 0.  0.
        -12    1    1    2    0    0 -0.27757658120E+02  0.29471223518E+02  0.37584561099E+01  0.40659151396E+02  0.00000000000E+00 0.  1.
         11    1    3    3    0    0  0.21713021763E+01 -0.16645709475E+02  0.68988472367E+01  0.18149057566E+02  0.51100000000E-03 0. -1.
        -11    1    3    3    0    0 -0.16325110938E+00 -0.14527481846E+01 -0.27932160821E+01  0.31526472297E+01  0.51100000000E-03 0.  1.
         12    1    3    3    0    0  0.25749607053E+02 -0.11372765858E+02 -0.78640872645E+01  0.29227143808E+02  0.00000000000E+00 0. -1.
</event>
<event>
 7    1  0.5992960E-013  0.5052888E+02  0.7816164E-02  0.1300439E+00
        -11   -1    0    0    0    0  0.00000000000E+00  0.00000000000E+00  0.45593999997E+02  0.45594000000E+02  0.51100000000E-03 0.  1.
         11   -1    0    0    0    0 -0.00000000000E+00 -0.00000000000E+00 -0.45593999997E+02  0.45594000000E+02  0.51100000000E-03 0. -1.
    9900012    2    1    2    0    0  0.14383755694E+02  0.28392118064E+02 -0.25301372842E+02  0.50528877239E+02  0.30000052856E+02 0.  0.
        -12    1    1    2    0    0 -0.14383755694E+02 -0.28392118064E+02  0.25301372842E+02  0.40659122761E+02  0.00000000000E+00 0.  1.
         11    1    3    3    0    0  0.67203310951E+01  0.92921695324E+01 -0.24556930095E+01  0.11727646527E+02  0.51100000000E-03 0.  1.
        -11    1    3    3    0    0 -0.10816879431E+01  0.36558889021E+01  0.46882731047E+01  0.60428037728E+01  0.51100000000E-03 0. -1.
         12    1    3    3    0    0  0.87451125416E+01  0.15444059629E+02 -0.27533952937E+02  0.32758426939E+02  0.00000000000E+00 0. -1.
</event>
<event>
 7    1  0.5992960E-013  0.5052886E+02  0.7816164E-02  0.1300439E+00
        -11   -1    0    0    0    0  0.00000000000E+00  0.00000000000E+00  0.45593999997E+02  0.45594000000E+02  0.51100000000E-03 0.  1.
         11   -1    0    0    0    0 -0.00000000000E+00 -0.00000000000E+00 -0.45593999997E+02  0.45594000000E+02  0.51100000000E-03 0. -1.
    9900012    2    1    2    0    0  0.25572868061E+02  0.17706509942E+02 -0.26185367723E+02  0.50528861323E+02  0.30000004476E+02 0.  0.
        -12    1    1    2    0    0 -0.25572868061E+02 -0.17706509942E+02  0.26185367723E+02  0.40659138677E+02  0.00000000000E+00 0.  1.
         11    1    3    3    0    0  0.30004180941E+00  0.94358554830E+00 -0.14096854142E+02  0.14131584332E+02  0.51100000000E-03 0. -1.
        -11    1    3    3    0    0  0.27732004350E+01 -0.85757492988E-01  0.33323370515E+01  0.43361809794E+01  0.51100000000E-03 0.  1.
        -12    1    3    3    0    0  0.22499625817E+02  0.16848681887E+02 -0.15420850632E+02  0.32061096012E+02  0.00000000000E+00 0.  1.
</event>
<event>
 7    1  0.5992960E-013  0.5052886E+02  0.7816164E-02  0.1300439E+00
        -11   -1    0    0    0    0  0.00000000000E+00  0.00000000000E+00  0.45593999997E+02  0.45594000000E+02  0.51100000000E-03 0.  1.
         11   -1    0    0    0    0 -0.00000000000E+00 -0.00000000000E+00 -0.45593999997E+02  0.45594000000E+02  0.51100000000E-03 0. -1.
    9900012    2    1    2    0    0 -0.15839676052E+02 -0.35455871032E+02 -0.12047880128E+02  0.50528861499E+02  0.30000005013E+02 0.  0.
        -12    1    1    2    0    0  0.15839676052E+02  0.35455871032E+02  0.12047880128E+02  0.40659138501E+02  0.00000000000E+00 0.  1.
         11    1    3    3    0    0 -0.41839030038E+01 -0.12740088686E+02 -0.34660376017E+00  0.13413986675E+02  0.51100000000E-03 0. -1.
        -11    1    3    3    0    0 -0.53745340298E+01 -0.25980038888E+02 -0.13562060040E+02  0.29795595471E+02  0.51100000000E-03 0.  1.
        -12    1    3    3    0    0 -0.62812390181E+01  0.32642565430E+01  0.18607836723E+01  0.73192793536E+01  0.00000000000E+00 0.  1.
</event>
<event>
 7    1  0.5992960E-013  0.5052885E+02  0.7816164E-02  0.1300439E+00
        -11   -1    0    0    0    0  0.00000000000E+00  0.00000000000E+00  0.45593999997E+02  0.45594000000E+02  0.51100000000E-03 0. -1.
         11   -1    0    0    0    0 -0.00000000000E+00 -0.00000000000E+00 -0.45593999997E+02  0.45594000000E+02  0.51100000000E-03 0.  1.
    9900012    2    1    2    0    0  0.38645596793E+02 -0.76688698416E+01  0.10043531784E+02  0.50528852852E+02  0.29999978729E+02 0.  0.
        -12    1    1    2    0    0 -0.38645596793E+02  0.76688698416E+01 -0.10043531784E+02  0.40659147148E+02  0.00000000000E+00 0.  1.
         11    1    3    3    0    0  0.23450004462E+02 -0.89220757339E+01  0.60984754266E+01  0.25820486972E+02  0.51100000000E-03 0. -1.
        -11    1    3    3    0    0  0.19555081355E+02  0.15699546963E+01  0.49295998358E+01  0.20227874811E+02  0.51100000000E-03 0.  1.
        -12    1    3    3    0    0 -0.43594890246E+01 -0.31674880392E+00 -0.98454347869E+00  0.44804910693E+01  0.00000000000E+00 0.  1.
</event>
<event>
 7    1  0.5992960E-013  0.5052890E+02  0.7816164E-02  0.1300439E+00
        -11   -1    0    0    0    0  0.00000000000E+00  0.00000000000E+00  0.45593999997E+02  0.45594000000E+02  0.51100000000E-03 0. -1.
         11   -1    0    0    0    0 -0.00000000000E+00 -0.00000000000E+00 -0.45593999997E+02  0.45594000000E+02  0.51100000000E-03 0.  1.
    9900012    2    1    2    0    0  0.24904274701E+02 -0.23486458513E+01 -0.32053446942E+02  0.50528898970E+02  0.30000118908E+02 0.  0.
        -12    1    1    2    0    0 -0.24904274701E+02  0.23486458513E+01  0.32053446942E+02  0.40659101030E+02  0.00000000000E+00 0.  1.
         11    1    3    3    0    0  0.49329403727E+01  0.14665595366E+01  0.27391141665E+01  0.58298751508E+01  0.51100000000E-03 0. -1.
        -11    1    3    3    0    0 -0.11570797162E+01  0.50170976774E+01 -0.69253504116E+01  0.86296338948E+01  0.51100000000E-03 0.  1.
        -12    1    3    3    0    0  0.21128414044E+02 -0.88323030652E+01 -0.27867210697E+02  0.36069389924E+02  0.00000000000E+00 0.  1.
</event>
<event>
 7    1  0.5992960E-013  0.5052888E+02  0.7816164E-02  0.1300439E+00
        -11   -1    0    0    0    0  0.00000000000E+00  0.00000000000E+00  0.45593999997E+02  0.45594000000E+02  0.51100000000E-03 0.  1.
         11   -1    0    0    0    0 -0.00000000000E+00 -0.00000000000E+00 -0.45593999997E+02  0.45594000000E+02  0.51100000000E-03 0. -1.
    9900012    2    1    2    0    0 -0.40442351464E+02 -0.41871549516E+01  0.21898346998E+00  0.50528880331E+02  0.30000062253E+02 0.  0.
        -12    1    1    2    0    0  0.40442351464E+02  0.41871549516E+01 -0.21898346998E+00  0.40659119669E+02  0.00000000000E+00 0.  1.
         11    1    3    3    0    0 -0.49474991436E+01 -0.46653780904E+01 -0.58506384947E+01  0.89707007284E+01  0.51100000000E-03 0. -1.
        -11    1    3    3    0    0 -0.16607503687E+02 -0.10014108282E+02  0.13316469511E+01  0.19438745516E+02  0.51100000000E-03 0.  1.
         12    1    3    3    0    0 -0.18887348634E+02  0.10492331421E+02  0.47379750136E+01  0.22119434086E+02  0.00000000000E+00 0. -1.
</event>
<event>
 7    1  0.5992960E-013  0.5052886E+02  0.7816164E-02  0.1300439E+00
        -11   -1    0    0    0    0  0.00000000000E+00  0.00000000000E+00  0.45593999997E+02  0.45594000000E+02  0.51100000000E-03 0. -1.
         11   -1    0    0    0    0 -0.00000000000E+00 -0.00000000000E+00 -0.45593999997E+02  0.45594000000E+02  0.51100000000E-03 0.  1.
    9900012    2    1    2    0    0 -0.24174598690E+01 -0.19711567955E+02  0.35479229277E+02  0.50528859164E+02  0.29999997913E+02 0.  0.
        -12    1    1    2    0    0  0.24174598690E+01  0.19711567955E+02 -0.35479229277E+02  0.40659140836E+02  0.00000000000E+00 0.  1.
         11    1    3    3    0    0  0.57457738000E+01 -0.31565657358E+01  0.87031945342E+01  0.10896027678E+02  0.51100000000E-03 0. -1.
        -11    1    3    3    0    0  0.30176211035E+01  0.42118388126E+01  0.77867880297E+01  0.93530578630E+01  0.51100000000E-03 0.  1.
         12    1    3    3    0    0 -0.11180854772E+02 -0.20766841032E+02  0.18989246713E+02  0.30279773622E+02  0.00000000000E+00 0. -1.
</event>
<event>
 7    1  0.5992960E-013  0.5052883E+02  0.7816164E-02  0.1300439E+00
        -11   -1    0    0    0    0  0.00000000000E+00  0.00000000000E+00  0.45593999997E+02  0.45594000000E+02  0.51100000000E-03 0. -1.
         11   -1    0    0    0    0 -0.00000000000E+00 -0.00000000000E+00 -0.45593999997E+02  0.45594000000E+02  0.51100000000E-03 0.  1.
    9900012    2    1    2    0    0  0.10177348017E+00 -0.39858172553E+02  0.80301970912E+01  0.50528827082E+02  0.29999900397E+02 0.  0.
        -12    1    1    2    0    0 -0.10177348017E+00  0.39858172553E+02 -0.80301970912E+01  0.40659172918E+02  0.00000000000E+00 0.  1.
         11    1    3    3    0    0  0.14840170559E+01 -0.17461031518E+02  0.25504912162E+01  0.17708611860E+02  0.51100000000E-03 0. -1.
        -11    1    3    3    0    0 -0.88284922265E+01 -0.22835291104E+02  0.19269540587E+01  0.24558215469E+02  0.51100000000E-03 0.  1.
        -12    1    3    3    0    0  0.74462486507E+01  0.43815006953E+00  0.35527518162E+01  0.82619997531E+01  0.00000000000E+00 0.  1.
</event>
<event>
 7    1  0.5992960E-013  0.5052886E+02  0.7816164E-02  0.1300439E+00
        -11   -1    0    0    0    0  0.00000000000E+00  0.00000000000E+00  0.45593999997E+02  0.45594000000E+02  0.51100000000E-03 0. -1.
         11   -1    0    0    0    0 -0.00000000000E+00 -0.00000000000E+00 -0.45593999997E+02  0.45594000000E+02  0.51100000000E-03 0.  1.
    9900012    2    1    2    0    0  0.37915231561E+02  0.12726024646E+02 -0.73245604755E+01  0.50528859899E+02  0.30000000149E+02 0.  0.
        -12    1    1    2    0    0 -0.37915231561E+02 -0.12726024646E+02  0.73245604755E+01  0.40659140101E+02  0.00000000000E+00 0.  1.
         11    1    3    3    0    0 -0.28591307375E+00 -0.29035554437E+01 -0.25014029614E+01  0.38430973884E+01  0.51100000000E-03 0. -1.
        -11    1    3    3    0    0  0.12324314784E+02 -0.26186392066E+01 -0.79021093121E+01  0.14872435511E+02  0.51100000000E-03 0.  1.
         12    1    3    3    0    0  0.25876829851E+02  0.18248219297E+02  0.30789517980E+01  0.31813327000E+02  0.00000000000E+00 0. -1.
</event>
<event>
 7    1  0.5992960E-013  0.5052886E+02  0.7816164E-02  0.1300439E+00
        -11   -1    0    0    0    0  0.00000000000E+00  0.00000000000E+00  0.45593999997E+02  0.45594000000E+02  0.51100000000E-03 0. -1.
         11   -1    0    0    0    0 -0.00000000000E+00 -0.00000000000E+00 -0.45593999997E+02  0.45594000000E+02  0.51100000000E-03 0.  1.
    9900012    2    1    2    0    0  0.19219579344E+02  0.34500174990E+02 -0.96701106252E+01  0.50528863954E+02  0.30000012475E+02 0.  0.
        -12    1    1    2    0    0 -0.19219579344E+02 -0.34500174990E+02  0.96701106252E+01  0.40659136046E+02  0.00000000000E+00 0.  1.
         11    1    3    3    0    0 -0.56901895282E+00  0.60312086427E+01  0.51541186483E+01  0.79538795291E+01  0.51100000000E-03 0. -1.
        -11    1    3    3    0    0  0.20207651737E+02  0.30141313025E+02 -0.16769395538E+02  0.39975749731E+02  0.51100000000E-03 0.  1.
         12    1    3    3    0    0 -0.41905344028E+00 -0.16723466778E+01  0.19451662647E+01  0.25992346939E+01  0.00000000000E+00 0. -1.
</event>
<event>
 7    1  0.5992960E-013  0.5052886E+02  0.7816164E-02  0.1300439E+00
        -11   -1    0    0    0    0  0.00000000000E+00  0.00000000000E+00  0.45593999997E+02  0.45594000000E+02  0.51100000000E-03 0. -1.
         11   -1    0    0    0    0 -0.00000000000E+00 -0.00000000000E+00 -0.45593999997E+02  0.45594000000E+02  0.51100000000E-03 0.  1.
    9900012    2    1    2    0    0 -0.34704896827E+02  0.20212614600E+02  0.63392397137E+01  0.50528860648E+02  0.30000002425E+02 0.  0.
        -12    1    1    2    0    0  0.34704896827E+02 -0.20212614600E+02 -0.63392397137E+01  0.40659139352E+02  0.00000000000E+00 0.  1.
         11    1    3    3    0    0 -0.12741275840E+02  0.16259495252E+01 -0.39452639084E+00  0.12850660420E+02  0.51100000000E-03 0. -1.
        -11    1    3    3    0    0  0.22782758160E+01  0.85414883075E+01  0.72493229193E+01  0.11432420839E+02  0.51100000000E-03 0.  1.
         12    1    3    3    0    0 -0.24241896802E+02  0.10045176768E+02 -0.51555681482E+00  0.26245779388E+02  0.00000000000E+00 0. -1.
</event>
<event>
 7    1  0.5992960E-013  0.5052886E+02  0.7816164E-02  0.1300439E+00
        -11   -1    0    0    0    0  0.00000000000E+00  0.00000000000E+00  0.45593999997E+02  0.45594000000E+02  0.51100000000E-03 0. -1.
         11   -1    0    0    0    0 -0.00000000000E+00 -0.00000000000E+00 -0.45593999997E+02  0.45594000000E+02  0.51100000000E-03 0.  1.
    9900012    2    1    2    0    0 -0.29443214093E+02 -0.28099952097E+01  0.27899228161E+02  0.50528857594E+02  0.29999993142E+02 0.  0.
        -12    1    1    2    0    0  0.29443214093E+02  0.28099952097E+01 -0.27899228161E+02  0.40659142406E+02  0.00000000000E+00 0.  1.
         11    1    3    3    0    0 -0.10326956960E+02 -0.24368377478E+01  0.14910122229E+02  0.18300162935E+02  0.51100000000E-03 0. -1.
        -11    1    3    3    0    0 -0.72428452101E+01  0.10245564966E+02  0.99471896121E+01  0.16011776593E+02  0.51100000000E-03 0.  1.
        -12    1    3    3    0    0 -0.11873411923E+02 -0.10618722428E+02  0.30419163194E+01  0.16216918067E+02  0.00000000000E+00 0.  1.
</event>
<event>
 7    1  0.5992960E-013  0.5052885E+02  0.7816164E-02  0.1300439E+00
        -11   -1    0    0    0    0  0.00000000000E+00  0.00000000000E+00  0.45593999997E+02  0.45594000000E+02  0.51100000000E-03 0.  1.
         11   -1    0    0    0    0 -0.00000000000E+00 -0.00000000000E+00 -0.45593999997E+02  0.45594000000E+02  0.51100000000E-03 0. -1.
    9900012    2    1    2    0    0  0.16186791801E+02  0.60280522373E+00 -0.37293310780E+02  0.50528848116E+02  0.29999964334E+02 0.  0.
        -12    1    1    2    0    0 -0.16186791801E+02 -0.60280522373E+00  0.37293310780E+02  0.40659151884E+02  0.00000000000E+00 0.  1.
         11    1    3    3    0    0  0.12193049954E+01 -0.99389050730E+00 -0.25301101952E+02  0.25349956277E+02  0.51100000000E-03 0.  1.
        -11    1    3    3    0    0  0.13079058892E+02 -0.32657099561E+00 -0.15800027879E+02  0.20513637205E+02  0.51100000000E-03 0. -1.
         12    1    3    3    0    0  0.18884279133E+01  0.19232667266E+01  0.38078190503E+01  0.46652546346E+01  0.00000000000E+00 0. -1.
</event>
<event>
 7    1  0.5992960E-013  0.5052886E+02  0.7816164E-02  0.1300439E+00
        -11   -1    0    0    0    0  0.00000000000E+00  0.00000000000E+00  0.45593999997E+02  0.45594000000E+02  0.51100000000E-03 0.  1.
         11   -1    0    0    0    0 -0.00000000000E+00 -0.00000000000E+00 -0.45593999997E+02  0.45594000000E+02  0.51100000000E-03 0. -1.
    9900012    2    1    2    0    0  0.62600418479E+01  0.13856818456E+02 -0.37708963004E+02  0.50528862866E+02  0.30000009167E+02 0.  0.
        -12    1    1    2    0    0 -0.62600418479E+01 -0.13856818456E+02  0.37708963004E+02  0.40659137134E+02  0.00000000000E+00 0.  1.
         11    1    3    3    0    0 -0.25542910525E+01  0.13753632256E+02 -0.34602321326E+02  0.37323014943E+02  0.51100000000E-03 0. -1.
        -11    1    3    3    0    0 -0.18612555297E+01  0.75307918276E+00 -0.12081846280E+01  0.23433119210E+01  0.51100000000E-03 0.  1.
        -12    1    3    3    0    0  0.10675588430E+02 -0.64989298235E+00 -0.18984570493E+01  0.10862536002E+02  0.00000000000E+00 0.  1.
</event>
<event>
 7    1  0.5992960E-013  0.5052887E+02  0.7816164E-02  0.1300439E+00
        -11   -1    0    0    0    0  0.00000000000E+00  0.00000000000E+00  0.45593999997E+02  0.45594000000E+02  0.51100000000E-03 0.  1.
         11   -1    0    0    0    0 -0.00000000000E+00 -0.00000000000E+00 -0.45593999997E+02  0.45594000000E+02  0.51100000000E-03 0. -1.
    9900012    2    1    2    0    0  0.37736136248E+01  0.49616197642E+01 -0.40178435920E+02  0.50528873799E+02  0.30000042400E+02 0.  0.
        -12    1    1    2    0    0 -0.37736136248E+01 -0.49616197642E+01  0.40178435920E+02  0.40659126201E+02  0.00000000000E+00 0.  1.
         11    1    3    3    0    0  0.61625555290E+01  0.42025843252E+01 -0.94625504411E-01  0.74597426165E+01  0.51100000000E-03 0. -1.
        -11    1    3    3    0    0 -0.63537443943E+01  0.32082400929E+01 -0.82504634023E+01  0.10896468186E+02  0.51100000000E-03 0.  1.
        -12    1    3    3    0    0  0.39648024902E+01 -0.24492046539E+01 -0.31833347013E+02  0.32172662996E+02  0.00000000000E+00 0.  1.
</event>
<event>
 7    1  0.5992960E-013  0.5052887E+02  0.7816164E-02  0.1300439E+00
        -11   -1    0    0    0    0  0.00000000000E+00  0.00000000000E+00  0.45593999997E+02  0.45594000000E+02  0.51100000000E-03 0.  1.
         11   -1    0    0    0    0 -0.00000000000E+00 -0.00000000000E+00 -0.45593999997E+02  0.45594000000E+02  0.51100000000E-03 0. -1.
    9900012    2    1    2    0    0  0.21605244366E+02  0.15563958063E+02 -0.30726886316E+02  0.50528869201E+02  0.30000028423E+02 0.  0.
        -12    1    1    2    0    0 -0.21605244366E+02 -0.15563958063E+02  0.30726886316E+02  0.40659130799E+02  0.00000000000E+00 0.  1.
         11    1    3    3    0    0  0.67878799990E+01 -0.19185834029E+01 -0.20424874561E+02  0.21608604265E+02  0.51100000000E-03 0.  1.
        -11    1    3    3    0    0  0.80283548506E+01  0.36414475972E+01 -0.10229080481E+02  0.13503655430E+02  0.51100000000E-03 0. -1.
        -12    1    3    3    0    0  0.67890095160E+01  0.13841093869E+02 -0.72931272717E-01  0.15416609506E+02  0.00000000000E+00 0.  1.
</event>
<event>
 7    1  0.5992960E-013  0.5052886E+02  0.7816164E-02  0.1300439E+00
        -11   -1    0    0    0    0  0.00000000000E+00  0.00000000000E+00  0.45593999997E+02  0.45594000000E+02  0.51100000000E-03 0. -1.
         11   -1    0    0    0    0 -0.00000000000E+00 -0.00000000000E+00 -0.45593999997E+02  0.45594000000E+02  0.51100000000E-03 0.  1.
    9900012    2    1    2    0    0  0.47172333180E+01  0.39274770296E+02 -0.94024411635E+01  0.50528858693E+02  0.29999996482E+02 0.  0.
        -12    1    1    2    0    0 -0.47172333180E+01 -0.39274770296E+02  0.94024411635E+01  0.40659141307E+02  0.00000000000E+00 0.  1.
         11    1    3    3    0    0  0.14790470024E+02  0.22535869392E+02 -0.35715216752E+01  0.27191527727E+02  0.51100000000E-03 0. -1.
        -11    1    3    3    0    0 -0.59283510151E-01  0.10553434032E+02 -0.45670132961E+01  0.11499395423E+02  0.51100000000E-03 0.  1.
         12    1    3    3    0    0 -0.10013953196E+02  0.61854668726E+01 -0.12639061923E+01  0.11837935542E+02  0.00000000000E+00 0. -1.
</event>
<event>
 7    1  0.5992960E-013  0.5052886E+02  0.7816164E-02  0.1300439E+00
        -11   -1    0    0    0    0  0.00000000000E+00  0.00000000000E+00  0.45593999997E+02  0.45594000000E+02  0.51100000000E-03 0.  1.
         11   -1    0    0    0    0 -0.00000000000E+00 -0.00000000000E+00 -0.45593999997E+02  0.45594000000E+02  0.51100000000E-03 0. -1.
    9900012    2    1    2    0    0 -0.32080649774E+01  0.39301696473E+02 -0.99121419611E+01  0.50528860993E+02  0.30000003474E+02 0.  0.
        -12    1    1    2    0    0  0.32080649774E+01 -0.39301696473E+02  0.99121419611E+01  0.40659139007E+02  0.00000000000E+00 0.  1.
         11    1    3    3    0    0  0.13815450317E+01  0.93959718961E+01 -0.94992240262E+01  0.13432356901E+02  0.51100000000E-03 0. -1.
        -11    1    3    3    0    0  0.18005603890E+01  0.14192128101E+02 -0.10146719690E+02  0.17538940631E+02  0.51100000000E-03 0.  1.
        -12    1    3    3    0    0 -0.63901703981E+01  0.15713596476E+02  0.97338017550E+01  0.19557563461E+02  0.00000000000E+00 0.  1.
</event>
<event>
 7    1  0.5992960E-013  0.5052886E+02  0.7816164E-02  0.1300439E+00
        -11   -1    0    0    0    0  0.00000000000E+00  0.00000000000E+00  0.45593999997E+02  0.45594000000E+02  0.51100000000E-03 0. -1.
         11   -1    0    0    0    0 -0.00000000000E+00 -0.00000000000E+00 -0.45593999997E+02  0.45594000000E+02  0.51100000000E-03 0.  1.
    9900012    2    1    2    0    0 -0.11349315717E+02  0.11558037306E+02  0.37293036799E+02  0.50528858503E+02  0.29999995906E+02 0.  0.
        -12    1    1    2    0    0  0.11349315717E+02 -0.11558037306E+02 -0.37293036799E+02  0.40659141497E+02  0.00000000000E+00 0.  1.
         11    1    3    3    0    0 -0.11634663089E+00  0.22823915796E+01 -0.16938070452E+01  0.28446142846E+01  0.51100000000E-03 0. -1.
        -11    1    3    3    0    0 -0.14324360034E+02  0.28745205671E+01  0.96755955431E+01  0.17523336105E+02  0.51100000000E-03 0.  1.
         12    1    3    3    0    0  0.30913909482E+01  0.64011251590E+01  0.29311248301E+02  0.30160908114E+02  0.00000000000E+00 0. -1.
</event>
<event>
 7    1  0.5992960E-013  0.5052879E+02  0.7816164E-02  0.1300439E+00
        -11   -1    0    0    0    0  0.00000000000E+00  0.00000000000E+00  0.45593999997E+02  0.45594000000E+02  0.51100000000E-03 0.  1.
         11   -1    0    0    0    0 -0.00000000000E+00 -0.00000000000E+00 -0.45593999997E+02  0.45594000000E+02  0.51100000000E-03 0. -1.
    9900012    2    1    2    0    0  0.29437349230E+02  0.16070680119E+02 -0.22985800867E+02  0.50528790334E+02  0.29999788699E+02 0.  0.
        -12    1    1    2    0    0 -0.29437349230E+02 -0.16070680119E+02  0.22985800867E+02  0.40659209666E+02  0.00000000000E+00 0.  1.
         11    1    3    3    0    0  0.21844885978E+02  0.50633949173E+01 -0.23224490871E+02  0.32283339170E+02  0.51100000000E-03 0. -1.
        -11    1    3    3    0    0  0.32874303584E+01 -0.83206887964E+00 -0.37264121898E+01  0.50384208887E+01  0.51100000000E-03 0.  1.
        -12    1    3    3    0    0  0.43050328929E+01  0.11839354082E+02  0.39651021940E+01  0.13207030275E+02  0.00000000000E+00 0.  1.
</event>
<event>
 7    1  0.5992960E-013  0.5052887E+02  0.7816164E-02  0.1300439E+00
        -11   -1    0    0    0    0  0.00000000000E+00  0.00000000000E+00  0.45593999997E+02  0.45594000000E+02  0.51100000000E-03 0.  1.
         11   -1    0    0    0    0 -0.00000000000E+00 -0.00000000000E+00 -0.45593999997E+02  0.45594000000E+02  0.51100000000E-03 0. -1.
    9900012    2    1    2    0    0  0.36096071630E+02  0.10614636395E+02 -0.15413243810E+02  0.50528868459E+02  0.30000026169E+02 0.  0.
        -12    1    1    2    0    0 -0.36096071630E+02 -0.10614636395E+02  0.15413243810E+02  0.40659131541E+02  0.00000000000E+00 0.  1.
         11    1    3    3    0    0  0.17575082232E+02  0.89123047546E+01 -0.59500994882E+01  0.20584372123E+02  0.51100000000E-03 0. -1.
        -11    1    3    3    0    0  0.52965581454E+01 -0.37875710060E+01  0.60111125059E+01  0.88618675308E+01  0.51100000000E-03 0.  1.
         12    1    3    3    0    0  0.13224431252E+02  0.54899026462E+01 -0.15474256827E+02  0.21082628806E+02  0.00000000000E+00 0. -1.
</event>
<event>
 7    1  0.5992960E-013  0.5052883E+02  0.7816164E-02  0.1300439E+00
        -11   -1    0    0    0    0  0.00000000000E+00  0.00000000000E+00  0.45593999997E+02  0.45594000000E+02  0.51100000000E-03 0. -1.
         11   -1    0    0    0    0 -0.00000000000E+00 -0.00000000000E+00 -0.45593999997E+02  0.45594000000E+02  0.51100000000E-03 0.  1.
    9900012    2    1    2    0    0 -0.25617349399E+02 -0.27720499650E+00  0.31572816969E+02  0.50528828781E+02  0.29999905563E+02 0.  0.
        -12    1    1    2    0    0  0.25617349399E+02  0.27720499650E+00 -0.31572816969E+02  0.40659171219E+02  0.00000000000E+00 0.  1.
         11    1    3    3    0    0  0.16637987092E+01 -0.17640591855E+01  0.39007667553E+01  0.45930504564E+01  0.51100000000E-03 0. -1.
        -11    1    3    3    0    0 -0.30111691689E+02 -0.28637658320E+01  0.18672726640E+02  0.35546952774E+02  0.51100000000E-03 0.  1.
         12    1    3    3    0    0  0.28305435806E+01  0.43506200210E+01  0.89993235738E+01  0.10388825550E+02  0.00000000000E+00 0. -1.
</event>
<event>
 7    1  0.5992960E-013  0.5052889E+02  0.7816164E-02  0.1300439E+00
        -11   -1    0    0    0    0  0.00000000000E+00  0.00000000000E+00  0.45593999997E+02  0.45594000000E+02  0.51100000000E-03 0. -1.
         11   -1    0    0    0    0 -0.00000000000E+00 -0.00000000000E+00 -0.45593999997E+02  0.45594000000E+02  0.51100000000E-03 0.  1.
    9900012    2    1    2    0    0 -0.42344750714E+01 -0.10647995958E+02  0.39010932375E+02  0.50528887346E+02  0.30000083576E+02 0.  0.
        -12    1    1    2    0    0  0.42344750714E+01  0.10647995958E+02 -0.39010932375E+02  0.40659112654E+02  0.00000000000E+00 0.  1.
         11    1    3    3    0    0 -0.35075758658E+01 -0.11929838601E+02  0.40574640839E+02  0.42437313970E+02  0.51100000000E-03 0. -1.
        -11    1    3    3    0    0 -0.21367683830E+01  0.95477865922E+00  0.27092588760E+01  0.35801487859E+01  0.51100000000E-03 0.  1.
         12    1    3    3    0    0  0.14098691774E+01  0.32706398390E+00 -0.42729673396E+01  0.45114245902E+01  0.00000000000E+00 0. -1.
</event>
<event>
 7    1  0.5992960E-013  0.5052886E+02  0.7816164E-02  0.1300439E+00
        -11   -1    0    0    0    0  0.00000000000E+00  0.00000000000E+00  0.45593999997E+02  0.45594000000E+02  0.51100000000E-03 0. -1.
         11   -1    0    0    0    0 -0.00000000000E+00 -0.00000000000E+00 -0.45593999997E+02  0.45594000000E+02  0.51100000000E-03 0.  1.
    9900012    2    1    2    0    0  0.26404551051E+01 -0.34477378922E+02  0.21389346222E+02  0.50528858441E+02  0.29999995719E+02 0.  0.
        -12    1    1    2    0    0 -0.26404551051E+01  0.34477378922E+02 -0.21389346222E+02  0.40659141559E+02  0.00000000000E+00 0.  1.
         11    1    3    3    0    0 -0.23231922210E+01 -0.88946640963E+01  0.64241028674E+01  0.11215229351E+02  0.51100000000E-03 0. -1.
        -11    1    3    3    0    0  0.93618727509E+01 -0.12995313097E+02 -0.36391261579E+01  0.16424556717E+02  0.51100000000E-03 0.  1.
         12    1    3    3    0    0 -0.43982254248E+01 -0.12587401728E+02  0.18604369512E+02  0.22889072373E+02  0.00000000000E+00 0. -1.
</event>
<event>
 7    1  0.5992960E-013  0.5052884E+02  0.7816164E-02  0.1300439E+00
        -11   -1    0    0    0    0  0.00000000000E+00  0.00000000000E+00  0.45593999997E+02  0.45594000000E+02  0.51100000000E-03 0.  1.
         11   -1    0    0    0    0 -0.00000000000E+00 -0.00000000000E+00 -0.45593999997E+02  0.45594000000E+02  0.51100000000E-03 0. -1.
    9900012    2    1    2    0    0  0.17969389695E+02  0.35899288500E+02 -0.64427598793E+01  0.50528843151E+02  0.29999949243E+02 0.  0.
        -12    1    1    2    0    0 -0.17969389695E+02 -0.35899288500E+02  0.64427598793E+01  0.40659156849E+02  0.00000000000E+00 0.  1.
         11    1    3    3    0    0  0.81003560644E+01  0.86850761079E+01 -0.10037482565E+02  0.15549835107E+02  0.51100000000E-03 0. -1.
        -11    1    3    3    0    0  0.96378312317E+01  0.24477731670E+01 -0.55397805767E-01  0.99439656830E+01  0.51100000000E-03 0.  1.
         12    1    3    3    0    0  0.23120239867E+00  0.24766439225E+02  0.36501204912E+01  0.25035042361E+02  0.00000000000E+00 0. -1.
</event>
<event>
 7    1  0.5992960E-013  0.5052887E+02  0.7816164E-02  0.1300439E+00
        -11   -1    0    0    0    0  0.00000000000E+00  0.00000000000E+00  0.45593999997E+02  0.45594000000E+02  0.51100000000E-03 0. -1.
         11   -1    0    0    0    0 -0.00000000000E+00 -0.00000000000E+00 -0.45593999997E+02  0.45594000000E+02  0.51100000000E-03 0.  1.
    9900012    2    1    2    0    0 -0.14762787415E+02  0.65079440657E+01  0.37321198940E+02  0.50528866727E+02  0.30000020903E+02 0.  0.
        -12    1    1    2    0    0  0.14762787415E+02 -0.65079440657E+01 -0.37321198940E+02  0.40659133273E+02  0.00000000000E+00 0.  1.
         11    1    3    3    0    0 -0.34438532675E+01  0.78739471841E+01  0.24018364070E+01  0.89234515729E+01  0.51100000000E-03 0.  1.
        -11    1    3    3    0    0 -0.15092429225E+02 -0.27599798211E+01  0.15633420835E+02  0.21904400375E+02  0.51100000000E-03 0. -1.
         12    1    3    3    0    0  0.37734950779E+01  0.13939767028E+01  0.19285941698E+02  0.19701014779E+02  0.00000000000E+00 0. -1.
</event>
<event>
 7    1  0.5992960E-013  0.5052886E+02  0.7816164E-02  0.1300439E+00
        -11   -1    0    0    0    0  0.00000000000E+00  0.00000000000E+00  0.45593999997E+02  0.45594000000E+02  0.51100000000E-03 0.  1.
         11   -1    0    0    0    0 -0.00000000000E+00 -0.00000000000E+00 -0.45593999997E+02  0.45594000000E+02  0.51100000000E-03 0. -1.
    9900012    2    1    2    0    0  0.15786133914E+02  0.13715230677E+02 -0.34869124059E+02  0.50528863399E+02  0.30000010788E+02 0.  0.
        -12    1    1    2    0    0 -0.15786133914E+02 -0.13715230677E+02  0.34869124059E+02  0.40659136601E+02  0.00000000000E+00 0.  1.
         11    1    3    3    0    0  0.38887040814E+01 -0.50523253277E+01 -0.10408003952E+02  0.12205513393E+02  0.51100000000E-03 0. -1.
        -11    1    3    3    0    0  0.27951540095E+01  0.45562647996E+01  0.29711451192E+01  0.61155652594E+01  0.51100000000E-03 0.  1.
         12    1    3    3    0    0  0.91022758232E+01  0.14211291206E+02 -0.27432265226E+02  0.32207784747E+02  0.00000000000E+00 0. -1.
</event>
<event>
 7    1  0.5992960E-013  0.5052887E+02  0.7816164E-02  0.1300439E+00
        -11   -1    0    0    0    0  0.00000000000E+00  0.00000000000E+00  0.45593999997E+02  0.45594000000E+02  0.51100000000E-03 0. -1.
         11   -1    0    0    0    0 -0.00000000000E+00 -0.00000000000E+00 -0.45593999997E+02  0.45594000000E+02  0.51100000000E-03 0.  1.
    9900012    2    1    2    0    0  0.17471960646E+02 -0.32824511212E+02 -0.16445276761E+02  0.50528867288E+02  0.30000022610E+02 0.  0.
        -12    1    1    2    0    0 -0.17471960646E+02  0.32824511212E+02  0.16445276761E+02  0.40659132712E+02  0.00000000000E+00 0.  1.
         11    1    3    3    0    0  0.91816032357E+01 -0.15638530718E+01 -0.80245210737E+01  0.12293917729E+02  0.51100000000E-03 0.  1.
        -11    1    3    3    0    0  0.84249108807E+01 -0.29729105915E+01 -0.30589101342E+01  0.94432119644E+01  0.51100000000E-03 0. -1.
         12    1    3    3    0    0 -0.13455347034E+00 -0.28287747548E+02 -0.53618455534E+01  0.28791737595E+02  0.00000000000E+00 0. -1.
</event>
<event>
 7    1  0.5992960E-013  0.5052885E+02  0.7816164E-02  0.1300439E+00
        -11   -1    0    0    0    0  0.00000000000E+00  0.00000000000E+00  0.45593999997E+02  0.45594000000E+02  0.51100000000E-03 0.  1.
         11   -1    0    0    0    0 -0.00000000000E+00 -0.00000000000E+00 -0.45593999997E+02  0.45594000000E+02  0.51100000000E-03 0. -1.
    9900012    2    1    2    0    0  0.22156801359E+01 -0.27018229908E+02 -0.30303007186E+02  0.50528853054E+02  0.29999979344E+02 0.  0.
        -12    1    1    2    0    0 -0.22156801359E+01  0.27018229908E+02  0.30303007186E+02  0.40659146946E+02  0.00000000000E+00 0.  1.
         11    1    3    3    0    0 -0.36212464174E+01 -0.10197205979E+02 -0.14412798945E+02  0.18022907897E+02  0.51100000000E-03 0. -1.
        -11    1    3    3    0    0  0.29981414659E+01 -0.12341717586E+02 -0.21383292833E+02  0.24870706822E+02  0.51100000000E-03 0.  1.
        -12    1    3    3    0    0  0.28387850874E+01 -0.44793063438E+01  0.54930845915E+01  0.76352383345E+01  0.00000000000E+00 0.  1.
</event>
<event>
 7    1  0.5992960E-013  0.5052886E+02  0.7816164E-02  0.1300439E+00
        -11   -1    0    0    0    0  0.00000000000E+00  0.00000000000E+00  0.45593999997E+02  0.45594000000E+02  0.51100000000E-03 0.  1.
         11   -1    0    0    0    0 -0.00000000000E+00 -0.00000000000E+00 -0.45593999997E+02  0.45594000000E+02  0.51100000000E-03 0. -1.
    9900012    2    1    2    0    0  0.82543741487E+01 -0.28922966330E+02 -0.27358599394E+02  0.50528860379E+02  0.30000001609E+02 0.  0.
        -12    1    1    2    0    0 -0.82543741487E+01  0.28922966330E+02  0.27358599394E+02  0.40659139621E+02  0.00000000000E+00 0.  1.
         11    1    3    3    0    0 -0.53894846177E+01 -0.10376242718E+02 -0.53705154630E+01  0.12866833098E+02  0.51100000000E-03 0. -1.
        -11    1    3    3    0    0 -0.11994756293E+01 -0.14170211680E+02 -0.60720786033E+01  0.15462980944E+02  0.51100000000E-03 0.  1.
         12    1    3    3    0    0  0.14843334396E+02 -0.43765119315E+01 -0.15916005328E+02  0.22199046337E+02  0.00000000000E+00 0. -1.
</event>
<event>
 7    1  0.5992960E-013  0.5052886E+02  0.7816164E-02  0.1300439E+00
        -11   -1    0    0    0    0  0.00000000000E+00  0.00000000000E+00  0.45593999997E+02  0.45594000000E+02  0.51100000000E-03 0.  1.
         11   -1    0    0    0    0 -0.00000000000E+00 -0.00000000000E+00 -0.45593999997E+02  0.45594000000E+02  0.51100000000E-03 0. -1.
    9900012    2    1    2    0    0 -0.12964202883E+02  0.26838253218E+02 -0.27655077843E+02  0.50528859297E+02  0.29999998320E+02 0.  0.
        -12    1    1    2    0    0  0.12964202883E+02 -0.26838253218E+02  0.27655077843E+02  0.40659140703E+02  0.00000000000E+00 0.  1.
         11    1    3    3    0    0 -0.94647369860E+01  0.29990667094E+02 -0.18750733793E+02  0.36614360256E+02  0.51100000000E-03 0. -1.
        -11    1    3    3    0    0  0.19757654147E+01  0.22540835749E+01 -0.24570822720E+01  0.38757960846E+01  0.51100000000E-03 0.  1.
         12    1    3    3    0    0 -0.54752313119E+01 -0.54064974513E+01 -0.64472617782E+01  0.10038702956E+02  0.00000000000E+00 0. -1.
</event>
<event>
 7    1  0.5992960E-013  0.5052885E+02  0.7816164E-02  0.1300439E+00
        -11   -1    0    0    0    0  0.00000000000E+00  0.00000000000E+00  0.45593999997E+02  0.45594000000E+02  0.51100000000E-03 0. -1.
         11   -1    0    0    0    0 -0.00000000000E+00 -0.00000000000E+00 -0.45593999997E+02  0.45594000000E+02  0.51100000000E-03 0.  1.
    9900012    2    1    2    0    0 -0.43369540068E+01  0.32593666548E+02  0.23916727258E+02  0.50528854512E+02  0.29999983774E+02 0.  0.
        -12    1    1    2    0    0  0.43369540068E+01 -0.32593666548E+02 -0.23916727258E+02  0.40659145488E+02  0.00000000000E+00 0.  1.
         11    1    3    3    0    0 -0.59745247879E+01  0.13052415484E+02  0.30405877057E+00  0.14358027316E+02  0.51100000000E-03 0. -1.
        -11    1    3    3    0    0  0.48557245884E+01 -0.12846140105E+01  0.75108719146E+00  0.50786244855E+01  0.51100000000E-03 0.  1.
        -12    1    3    3    0    0 -0.32181538074E+01  0.20825865074E+02  0.22861581296E+02  0.31092202710E+02  0.00000000000E+00 0.  1.
</event>
<event>
 7    1  0.5992960E-013  0.5052886E+02  0.7816164E-02  0.1300439E+00
        -11   -1    0    0    0    0  0.00000000000E+00  0.00000000000E+00  0.45593999997E+02  0.45594000000E+02  0.51100000000E-03 0.  1.
         11   -1    0    0    0    0 -0.00000000000E+00 -0.00000000000E+00 -0.45593999997E+02  0.45594000000E+02  0.51100000000E-03 0. -1.
    9900012    2    1    2    0    0  0.22714084428E+02 -0.29969643628E+02 -0.15461446045E+02  0.50528862227E+02  0.30000007227E+02 0.  0.
        -12    1    1    2    0    0 -0.22714084428E+02  0.29969643628E+02  0.15461446045E+02  0.40659137773E+02  0.00000000000E+00 0.  1.
         11    1    3    3    0    0  0.60497038700E+00 -0.86349565646E+01 -0.48527834874E+01  0.99236067978E+01  0.51100000000E-03 0. -1.
        -11    1    3    3    0    0  0.71846544829E+01 -0.22945436226E+02 -0.81897695279E+01  0.25400484814E+02  0.51100000000E-03 0.  1.
        -12    1    3    3    0    0  0.14924459559E+02  0.16107491622E+01 -0.24188930298E+01  0.15204770615E+02  0.00000000000E+00 0.  1.
</event>
<event>
 7    1  0.5992960E-013  0.5052885E+02  0.7816164E-02  0.1300439E+00
        -11   -1    0    0    0    0  0.00000000000E+00  0.00000000000E+00  0.45593999997E+02  0.45594000000E+02  0.51100000000E-03 0. -1.
         11   -1    0    0    0    0 -0.00000000000E+00 -0.00000000000E+00 -0.45593999997E+02  0.45594000000E+02  0.51100000000E-03 0.  1.
    9900012    2    1    2    0    0 -0.19023587505E+01 -0.29310717624E+02  0.28114569912E+02  0.50528853701E+02  0.29999981310E+02 0.  0.
        -12    1    1    2    0    0  0.19023587505E+01  0.29310717624E+02 -0.28114569912E+02  0.40659146299E+02  0.00000000000E+00 0.  1.
         11    1    3    3    0    0  0.24292736169E+01 -0.13235107490E+02  0.10165245564E+02  0.16864212351E+02  0.51100000000E-03 0. -1.
        -11    1    3    3    0    0 -0.11500865362E+02 -0.86505954693E+01  0.18368785633E+02  0.23334845017E+02  0.51100000000E-03 0.  1.
         12    1    3    3    0    0  0.71692329951E+01 -0.74250146642E+01 -0.41946128615E+00  0.10329796333E+02  0.00000000000E+00 0. -1.
</event>
<event>
 7    1  0.5992960E-013  0.5052887E+02  0.7816164E-02  0.1300439E+00
        -11   -1    0    0    0    0  0.00000000000E+00  0.00000000000E+00  0.45593999997E+02  0.45594000000E+02  0.51100000000E-03 0.  1.
         11   -1    0    0    0    0 -0.00000000000E+00 -0.00000000000E+00 -0.45593999997E+02  0.45594000000E+02  0.51100000000E-03 0. -1.
    9900012    2    1    2    0    0 -0.19738244131E+02  0.26029847241E+02 -0.24207722251E+02  0.50528867626E+02  0.30000023636E+02 0.  0.
        -12    1    1    2    0    0  0.19738244131E+02 -0.26029847241E+02  0.24207722251E+02  0.40659132374E+02  0.00000000000E+00 0.  1.
         11    1    3    3    0    0 -0.13847591531E+02  0.10719720683E+02  0.44384065282E+00  0.17517568254E+02  0.51100000000E-03 0. -1.
        -11    1    3    3    0    0  0.28429262672E+00 -0.15137248063E+00  0.17605181380E+01  0.17897374949E+01  0.51100000000E-03 0.  1.
         12    1    3    3    0    0 -0.61749452266E+01  0.15461499039E+02 -0.26412081042E+02  0.31221561877E+02  0.00000000000E+00 0. -1.
</event>
<event>
 7    1  0.5992960E-013  0.5052885E+02  0.7816164E-02  0.1300439E+00
        -11   -1    0    0    0    0  0.00000000000E+00  0.00000000000E+00  0.45593999997E+02  0.45594000000E+02  0.51100000000E-03 0.  1.
         11   -1    0    0    0    0 -0.00000000000E+00 -0.00000000000E+00 -0.45593999997E+02  0.45594000000E+02  0.51100000000E-03 0. -1.
    9900012    2    1    2    0    0 -0.16694157241E+02  0.35815182922E+02 -0.95783244110E+01  0.50528849588E+02  0.29999968807E+02 0.  0.
        -12    1    1    2    0    0  0.16694157241E+02 -0.35815182922E+02  0.95783244110E+01  0.40659150412E+02  0.00000000000E+00 0.  1.
         11    1    3    3    0    0 -0.32603298171E+01  0.77911415482E+01 -0.58556352859E+01  0.10277164103E+02  0.51100000000E-03 0. -1.
        -11    1    3    3    0    0 -0.11142309482E+02  0.45560404106E+01 -0.10222462436E+02  0.15792634465E+02  0.51100000000E-03 0.  1.
        -12    1    3    3    0    0 -0.22915179419E+01  0.23468000963E+02  0.64997733111E+01  0.24459051020E+02  0.00000000000E+00 0.  1.
</event>
<event>
 7    1  0.5992960E-013  0.5052887E+02  0.7816164E-02  0.1300439E+00
        -11   -1    0    0    0    0  0.00000000000E+00  0.00000000000E+00  0.45593999997E+02  0.45594000000E+02  0.51100000000E-03 0.  1.
         11   -1    0    0    0    0 -0.00000000000E+00 -0.00000000000E+00 -0.45593999997E+02  0.45594000000E+02  0.51100000000E-03 0. -1.
    9900012    2    1    2    0    0 -0.12446974424E+01 -0.20001445241E+02 -0.35377361162E+02  0.50528871059E+02  0.30000034072E+02 0.  0.
        -12    1    1    2    0    0  0.12446974424E+01  0.20001445241E+02  0.35377361162E+02  0.40659128941E+02  0.00000000000E+00 0.  1.
         11    1    3    3    0    0  0.67607126546E+01 -0.15508011971E+02 -0.34959000779E+02  0.38837319766E+02  0.51100000000E-03 0. -1.
        -11    1    3    3    0    0 -0.22821413048E+01 -0.16805076810E+01 -0.35862082159E+01  0.45709041370E+01  0.51100000000E-03 0.  1.
        -12    1    3    3    0    0 -0.57232687922E+01 -0.28129255894E+01  0.31678478326E+01  0.71206471567E+01  0.00000000000E+00 0.  1.
</event>
<event>
 7    1  0.5992960E-013  0.5052886E+02  0.7816164E-02  0.1300439E+00
        -11   -1    0    0    0    0  0.00000000000E+00  0.00000000000E+00  0.45593999997E+02  0.45594000000E+02  0.51100000000E-03 0.  1.
         11   -1    0    0    0    0 -0.00000000000E+00 -0.00000000000E+00 -0.45593999997E+02  0.45594000000E+02  0.51100000000E-03 0. -1.
    9900012    2    1    2    0    0  0.49254028406E+01  0.17793312295E+02 -0.36225743339E+02  0.50528855444E+02  0.29999986608E+02 0.  0.
        -12    1    1    2    0    0 -0.49254028406E+01 -0.17793312295E+02  0.36225743339E+02  0.40659144556E+02  0.00000000000E+00 0.  1.
         11    1    3    3    0    0  0.77634670461E+01  0.23568113578E+02 -0.26597841353E+02  0.36375439009E+02  0.51100000000E-03 0. -1.
        -11    1    3    3    0    0  0.15024391071E+01  0.12888992600E+01 -0.11218211072E+01  0.22753169956E+01  0.51100000000E-03 0.  1.
        -12    1    3    3    0    0 -0.43405033126E+01 -0.70637005434E+01 -0.85060808790E+01  0.11878099439E+02  0.00000000000E+00 0.  1.
</event>
<event>
 7    1  0.5992960E-013  0.5052886E+02  0.7816164E-02  0.1300439E+00
        -11   -1    0    0    0    0  0.00000000000E+00  0.00000000000E+00  0.45593999997E+02  0.45594000000E+02  0.51100000000E-03 0. -1.
         11   -1    0    0    0    0 -0.00000000000E+00 -0.00000000000E+00 -0.45593999997E+02  0.45594000000E+02  0.51100000000E-03 0.  1.
    9900012    2    1    2    0    0 -0.39006173326E+02  0.80579484602E+01  0.81702814585E+01  0.50528860928E+02  0.30000003277E+02 0.  0.
        -12    1    1    2    0    0  0.39006173326E+02 -0.80579484602E+01 -0.81702814585E+01  0.40659139072E+02  0.00000000000E+00 0.  1.
         11    1    3    3    0    0  0.16842657888E+01 -0.33418682008E+01  0.37766142585E+01  0.53167330042E+01  0.51100000000E-03 0. -1.
        -11    1    3    3    0    0 -0.61912916412E+01 -0.24770937560E+01 -0.29777010821E+01  0.73030671405E+01  0.51100000000E-03 0.  1.
         12    1    3    3    0    0 -0.34499147474E+02  0.13876910417E+02  0.73713682821E+01  0.37909060784E+02  0.00000000000E+00 0. -1.
</event>
<event>
 7    1  0.5992960E-013  0.5052886E+02  0.7816164E-02  0.1300439E+00
        -11   -1    0    0    0    0  0.00000000000E+00  0.00000000000E+00  0.45593999997E+02  0.45594000000E+02  0.51100000000E-03 0.  1.
         11   -1    0    0    0    0 -0.00000000000E+00 -0.00000000000E+00 -0.45593999997E+02  0.45594000000E+02  0.51100000000E-03 0. -1.
    9900012    2    1    2    0    0  0.33722454189E+02  0.25466160489E+01 -0.22571587399E+02  0.50528859238E+02  0.29999998139E+02 0.  0.
        -12    1    1    2    0    0 -0.33722454189E+02 -0.25466160489E+01  0.22571587399E+02  0.40659140762E+02  0.00000000000E+00 0.  1.
         11    1    3    3    0    0  0.12366755749E+02  0.72990584812E+01 -0.41896423528E+01  0.14958810306E+02  0.51100000000E-03 0. -1.
        -11    1    3    3    0    0  0.17516473352E+02 -0.75525788398E+01 -0.22346965513E+02  0.29381204090E+02  0.51100000000E-03 0.  1.
         12    1    3    3    0    0  0.38392250875E+01  0.28001364075E+01  0.39650204671E+01  0.61888448420E+01  0.00000000000E+00 0. -1.
</event>
<event>
 7    1  0.5992960E-013  0.5052886E+02  0.7816164E-02  0.1300439E+00
        -11   -1    0    0    0    0  0.00000000000E+00  0.00000000000E+00  0.45593999997E+02  0.45594000000E+02  0.51100000000E-03 0.  1.
         11   -1    0    0    0    0 -0.00000000000E+00 -0.00000000000E+00 -0.45593999997E+02  0.45594000000E+02  0.51100000000E-03 0. -1.
    9900012    2    1    2    0    0  0.28108304077E+02  0.18153718575E+02 -0.23098303542E+02  0.50528857330E+02  0.29999992340E+02 0.  0.
        -12    1    1    2    0    0 -0.28108304077E+02 -0.18153718575E+02  0.23098303542E+02  0.40659142670E+02  0.00000000000E+00 0.  1.
         11    1    3    3    0    0  0.30079977860E+02  0.55195520340E+01 -0.17481276614E+02  0.35225921634E+02  0.51100000000E-03 0. -1.
        -11    1    3    3    0    0  0.86064453669E+00  0.20353612934E+01 -0.34856005470E+01  0.41270832373E+01  0.51100000000E-03 0.  1.
        -12    1    3    3    0    0 -0.28323183195E+01  0.10598805248E+02 -0.21314263809E+01  0.11175852458E+02  0.00000000000E+00 0.  1.
</event>
<event>
 7    1  0.6944168E-013  0.5052886E+02  0.7816164E-02  0.1300439E+00
        -11   -1    0    0    0    0  0.00000000000E+00  0.00000000000E+00  0.45593999997E+02  0.45594000000E+02  0.51100000000E-03 0. -1.
         11   -1    0    0    0    0 -0.00000000000E+00 -0.00000000000E+00 -0.45593999997E+02  0.45594000000E+02  0.51100000000E-03 0.  1.
    9900012    2    1    2    0    0  0.11029807262E+02  0.30177836795E+02  0.24915996000E+02  0.50528864021E+02  0.30000012680E+02 0.  0.
        -12    1    1    2    0    0 -0.11029807262E+02 -0.30177836795E+02 -0.24915996000E+02  0.40659135979E+02  0.00000000000E+00 0.  1.
         11    1    3    3    0    0 -0.74670542297E+01  0.26292115496E+01  0.10075846368E+02  0.12813755598E+02  0.51100000000E-03 0. -1.
        -11    1    3    3    0    0  0.80877256692E+00  0.17424429973E+01 -0.14828648572E+01  0.24267486705E+01  0.51100000000E-03 0.  1.
         12    1    3    3    0    0  0.17688088925E+02  0.25806182248E+02  0.16323014490E+02  0.35288359753E+02  0.00000000000E+00 0. -1.
</event>
<event>
 7    1  0.5992960E-013  0.5052886E+02  0.7816164E-02  0.1300439E+00
        -11   -1    0    0    0    0  0.00000000000E+00  0.00000000000E+00  0.45593999997E+02  0.45594000000E+02  0.51100000000E-03 0.  1.
         11   -1    0    0    0    0 -0.00000000000E+00 -0.00000000000E+00 -0.45593999997E+02  0.45594000000E+02  0.51100000000E-03 0. -1.
    9900012    2    1    2    0    0  0.12540867323E+02 -0.37007070716E+02  0.11241403176E+02  0.50528858574E+02  0.29999996120E+02 0.  0.
        -12    1    1    2    0    0 -0.12540867323E+02  0.37007070716E+02 -0.11241403176E+02  0.40659141426E+02  0.00000000000E+00 0.  1.
         11    1    3    3    0    0  0.51412087250E+01 -0.31897716245E+02  0.32045851801E+01  0.32467917938E+02  0.51100000000E-03 0. -1.
        -11    1    3    3    0    0  0.67581203639E+01 -0.90853334587E+01  0.31995928652E+01  0.11766599750E+02  0.51100000000E-03 0.  1.
        -12    1    3    3    0    0  0.64153823373E+00  0.39759789880E+01  0.48372251309E+01  0.62943408857E+01  0.00000000000E+00 0.  1.
</event>
<event>
 7    1  0.5992960E-013  0.5052884E+02  0.7816164E-02  0.1300439E+00
        -11   -1    0    0    0    0  0.00000000000E+00  0.00000000000E+00  0.45593999997E+02  0.45594000000E+02  0.51100000000E-03 0.  1.
         11   -1    0    0    0    0 -0.00000000000E+00 -0.00000000000E+00 -0.45593999997E+02  0.45594000000E+02  0.51100000000E-03 0. -1.
    9900012    2    1    2    0    0  0.17071305901E+02 -0.12560065187E+02 -0.34698455115E+02  0.50528837317E+02  0.29999931509E+02 0.  0.
        -12    1    1    2    0    0 -0.17071305901E+02  0.12560065187E+02  0.34698455115E+02  0.40659162683E+02  0.00000000000E+00 0.  1.
         11    1    3    3    0    0  0.72177981205E+01 -0.68421519831E+01 -0.10028320169E+02  0.14123698494E+02  0.51100000000E-03 0. -1.
        -11    1    3    3    0    0  0.17001827291E+02 -0.43294482302E+01 -0.10428463217E+02  0.20409779482E+02  0.51100000000E-03 0.  1.
        -12    1    3    3    0    0 -0.71483195098E+01 -0.13884649741E+01 -0.14241671730E+02  0.15995359341E+02  0.00000000000E+00 0.  1.
</event>
<event>
 7    1  0.5992960E-013  0.5052884E+02  0.7816164E-02  0.1300439E+00
        -11   -1    0    0    0    0  0.00000000000E+00  0.00000000000E+00  0.45593999997E+02  0.45594000000E+02  0.51100000000E-03 0.  1.
         11   -1    0    0    0    0 -0.00000000000E+00 -0.00000000000E+00 -0.45593999997E+02  0.45594000000E+02  0.51100000000E-03 0. -1.
    9900012    2    1    2    0    0 -0.17378323298E+02  0.14736106378E+02 -0.33675040850E+02  0.50528839555E+02  0.29999938313E+02 0.  0.
        -12    1    1    2    0    0  0.17378323298E+02 -0.14736106378E+02  0.33675040850E+02  0.40659160445E+02  0.00000000000E+00 0.  1.
         11    1    3    3    0    0  0.14478355076E+01  0.29236993388E+01 -0.14046024571E+02  0.14419953259E+02  0.51100000000E-03 0. -1.
        -11    1    3    3    0    0 -0.83892681132E+00  0.81072400086E+01 -0.15153726493E+02  0.17206584950E+02  0.51100000000E-03 0.  1.
         12    1    3    3    0    0 -0.17987231994E+02  0.37051670305E+01 -0.44752897858E+01  0.18902301347E+02  0.00000000000E+00 0. -1.
</event>
<event>
 7    1  0.5992960E-013  0.5052886E+02  0.7816164E-02  0.1300439E+00
        -11   -1    0    0    0    0  0.00000000000E+00  0.00000000000E+00  0.45593999997E+02  0.45594000000E+02  0.51100000000E-03 0.  1.
         11   -1    0    0    0    0 -0.00000000000E+00 -0.00000000000E+00 -0.45593999997E+02  0.45594000000E+02  0.51100000000E-03 0. -1.
    9900012    2    1    2    0    0  0.30296760640E+02 -0.23684658722E+02 -0.13202594445E+02  0.50528864936E+02  0.30000015460E+02 0.  0.
        -12    1    1    2    0    0 -0.30296760640E+02  0.23684658722E+02  0.13202594445E+02  0.40659135064E+02  0.00000000000E+00 0.  1.
         11    1    3    3    0    0  0.81754399813E+01  0.56442197085E+01 -0.43474613373E+01  0.10844143827E+02  0.51100000000E-03 0. -1.
        -11    1    3    3    0    0  0.14655062600E+01 -0.13213679640E+01  0.24020895296E+01  0.31086582739E+01  0.51100000000E-03 0.  1.
        -12    1    3    3    0    0  0.20655814398E+02 -0.28007510467E+02 -0.11257222637E+02  0.36576062835E+02  0.00000000000E+00 0.  1.
</event>
<event>
 7    1  0.5992960E-013  0.5052886E+02  0.7816164E-02  0.1300439E+00
        -11   -1    0    0    0    0  0.00000000000E+00  0.00000000000E+00  0.45593999997E+02  0.45594000000E+02  0.51100000000E-03 0.  1.
         11   -1    0    0    0    0 -0.00000000000E+00 -0.00000000000E+00 -0.45593999997E+02  0.45594000000E+02  0.51100000000E-03 0. -1.
    9900012    2    1    2    0    0  0.30750969520E+02 -0.18952430059E+02 -0.18664114001E+02  0.50528857326E+02  0.29999992327E+02 0.  0.
        -12    1    1    2    0    0 -0.30750969520E+02  0.18952430059E+02  0.18664114001E+02  0.40659142674E+02  0.00000000000E+00 0.  1.
         11    1    3    3    0    0 -0.27942889098E+00  0.17428808695E+01 -0.89423287671E+01  0.91148756586E+01  0.51100000000E-03 0.  1.
        -11    1    3    3    0    0  0.18553419331E+02 -0.95563591694E+01 -0.12692449689E+02  0.24426453873E+02  0.51100000000E-03 0. -1.
        -12    1    3    3    0    0  0.12476979080E+02 -0.11138951759E+02  0.29706644543E+01  0.16987527794E+02  0.00000000000E+00 0.  1.
</event>
<event>
 7    1  0.5992960E-013  0.5052887E+02  0.7816164E-02  0.1300439E+00
        -11   -1    0    0    0    0  0.00000000000E+00  0.00000000000E+00  0.45593999997E+02  0.45594000000E+02  0.51100000000E-03 0.  1.
         11   -1    0    0    0    0 -0.00000000000E+00 -0.00000000000E+00 -0.45593999997E+02  0.45594000000E+02  0.51100000000E-03 0. -1.
    9900012    2    1    2    0    0 -0.22932983413E+02 -0.80373039104E+01 -0.32598235177E+02  0.50528869180E+02  0.30000028361E+02 0.  0.
        -12    1    1    2    0    0  0.22932983413E+02  0.80373039104E+01  0.32598235177E+02  0.40659130820E+02  0.00000000000E+00 0.  1.
         11    1    3    3    0    0 -0.16140028399E+02 -0.80427950284E+01 -0.17208491989E+02  0.24926276604E+02  0.51100000000E-03 0. -1.
        -11    1    3    3    0    0 -0.25720882069E+01 -0.10270524100E+01  0.44779735017E+01  0.52652370640E+01  0.51100000000E-03 0.  1.
         12    1    3    3    0    0 -0.42208668072E+01  0.10325435280E+01 -0.19867716690E+02  0.20337355512E+02  0.00000000000E+00 0. -1.
</event>
<event>
 7    1  0.5992960E-013  0.5052889E+02  0.7816164E-02  0.1300439E+00
        -11   -1    0    0    0    0  0.00000000000E+00  0.00000000000E+00  0.45593999997E+02  0.45594000000E+02  0.51100000000E-03 0.  1.
         11   -1    0    0    0    0 -0.00000000000E+00 -0.00000000000E+00 -0.45593999997E+02  0.45594000000E+02  0.51100000000E-03 0. -1.
    9900012    2    1    2    0    0  0.39358652450E+02  0.40748637790E+00 -0.10192804701E+02  0.50528894802E+02  0.30000106241E+02 0.  0.
        -12    1    1    2    0    0 -0.39358652450E+02 -0.40748637790E+00  0.10192804701E+02  0.40659105198E+02  0.00000000000E+00 0.  1.
         11    1    3    3    0    0  0.55724228864E+01 -0.44006198812E+01 -0.62495670231E+01  0.94590930009E+01  0.51100000000E-03 0. -1.
        -11    1    3    3    0    0  0.18794436998E+02 -0.26815316402E+01 -0.12016371818E+02  0.22468081047E+02  0.51100000000E-03 0.  1.
        -12    1    3    3    0    0  0.14991792565E+02  0.74896378993E+01  0.80731341399E+01  0.18601720755E+02  0.00000000000E+00 0.  1.
</event>
<event>
 7    1  0.5992960E-013  0.5052886E+02  0.7816164E-02  0.1300439E+00
        -11   -1    0    0    0    0  0.00000000000E+00  0.00000000000E+00  0.45593999997E+02  0.45594000000E+02  0.51100000000E-03 0. -1.
         11   -1    0    0    0    0 -0.00000000000E+00 -0.00000000000E+00 -0.45593999997E+02  0.45594000000E+02  0.51100000000E-03 0.  1.
    9900012    2    1    2    0    0 -0.27036676236E+02 -0.22467598624E+02  0.20430137341E+02  0.50528863738E+02  0.30000011817E+02 0.  0.
        -12    1    1    2    0    0  0.27036676236E+02  0.22467598624E+02 -0.20430137341E+02  0.40659136262E+02  0.00000000000E+00 0.  1.
         11    1    3    3    0    0 -0.52434848964E+00  0.41410955609E+01  0.38189921000E+01  0.56575891247E+01  0.51100000000E-03 0. -1.
        -11    1    3    3    0    0 -0.72852331450E+01  0.45309451484E+00  0.74584613684E+01  0.10435926545E+02  0.51100000000E-03 0.  1.
         12    1    3    3    0    0 -0.19227094601E+02 -0.27061788700E+02  0.91526838730E+01  0.34435348067E+02  0.00000000000E+00 0. -1.
</event>
<event>
 7    1  0.5992960E-013  0.5052886E+02  0.7816164E-02  0.1300439E+00
        -11   -1    0    0    0    0  0.00000000000E+00  0.00000000000E+00  0.45593999997E+02  0.45594000000E+02  0.51100000000E-03 0. -1.
         11   -1    0    0    0    0 -0.00000000000E+00 -0.00000000000E+00 -0.45593999997E+02  0.45594000000E+02  0.51100000000E-03 0.  1.
    9900012    2    1    2    0    0 -0.19784173758E+02  0.90337842537E+00  0.35509658534E+02  0.50528862367E+02  0.30000007650E+02 0.  0.
        -12    1    1    2    0    0  0.19784173758E+02 -0.90337842537E+00 -0.35509658534E+02  0.40659137633E+02  0.00000000000E+00 0.  1.
         11    1    3    3    0    0 -0.42644502949E+01 -0.57989430440E+01  0.94087084544E+01  0.11846394886E+02  0.51100000000E-03 0. -1.
        -11    1    3    3    0    0 -0.14445814250E+02  0.61757049082E+01  0.30400288526E+02  0.34219854225E+02  0.51100000000E-03 0.  1.
        -12    1    3    3    0    0 -0.10739092127E+01  0.52661656119E+00 -0.42993384460E+01  0.44626132561E+01  0.00000000000E+00 0.  1.
</event>
<event>
 7    1  0.5992960E-013  0.5052886E+02  0.7816164E-02  0.1300439E+00
        -11   -1    0    0    0    0  0.00000000000E+00  0.00000000000E+00  0.45593999997E+02  0.45594000000E+02  0.51100000000E-03 0. -1.
         11   -1    0    0    0    0 -0.00000000000E+00 -0.00000000000E+00 -0.45593999997E+02  0.45594000000E+02  0.51100000000E-03 0.  1.
    9900012    2    1    2    0    0 -0.13893524126E+02  0.57480509288E+00  0.38207394591E+02  0.50528863082E+02  0.30000009823E+02 0.  0.
        -12    1    1    2    0    0  0.13893524126E+02 -0.57480509288E+00 -0.38207394591E+02  0.40659136918E+02  0.00000000000E+00 0.  1.
         11    1    3    3    0    0 -0.16005673605E+02  0.47229926306E+00  0.10146380280E+02  0.18956626472E+02  0.51100000000E-03 0. -1.
        -11    1    3    3    0    0 -0.61600941541E+01 -0.43868121005E-01  0.10879976979E+02  0.12502903012E+02  0.51100000000E-03 0.  1.
        -12    1    3    3    0    0  0.82722436335E+01  0.14637395083E+00  0.17181037331E+02  0.19069333597E+02  0.00000000000E+00 0.  1.
</event>
<event>
 7    1  0.5992960E-013  0.5052884E+02  0.7816164E-02  0.1300439E+00
        -11   -1    0    0    0    0  0.00000000000E+00  0.00000000000E+00  0.45593999997E+02  0.45594000000E+02  0.51100000000E-03 0.  1.
         11   -1    0    0    0    0 -0.00000000000E+00 -0.00000000000E+00 -0.45593999997E+02  0.45594000000E+02  0.51100000000E-03 0. -1.
    9900012    2    1    2    0    0 -0.15004368591E+02  0.30158406343E+02 -0.22770744295E+02  0.50528839338E+02  0.29999937652E+02 0.  0.
        -12    1    1    2    0    0  0.15004368591E+02 -0.30158406343E+02  0.22770744295E+02  0.40659160662E+02  0.00000000000E+00 0.  1.
         11    1    3    3    0    0  0.68188144086E+01  0.97092594382E+01 -0.82505924269E+01  0.14451236087E+02  0.51100000000E-03 0. -1.
        -11    1    3    3    0    0 -0.11086151688E+01  0.20320954099E+01 -0.69779734250E+01  0.73519081012E+01  0.51100000000E-03 0.  1.
        -12    1    3    3    0    0 -0.20714567831E+02  0.18417051495E+02 -0.75421784429E+01  0.28725695150E+02  0.00000000000E+00 0.  1.
</event>
<event>
 7    1  0.5992960E-013  0.5052882E+02  0.7816164E-02  0.1300439E+00
        -11   -1    0    0    0    0  0.00000000000E+00  0.00000000000E+00  0.45593999997E+02  0.45594000000E+02  0.51100000000E-03 0.  1.
         11   -1    0    0    0    0 -0.00000000000E+00 -0.00000000000E+00 -0.45593999997E+02  0.45594000000E+02  0.51100000000E-03 0. -1.
    9900012    2    1    2    0    0 -0.22595575589E+02 -0.90176732940E+01 -0.32577449961E+02  0.50528822515E+02  0.29999886516E+02 0.  0.
        -12    1    1    2    0    0  0.22595575589E+02  0.90176732940E+01  0.32577449961E+02  0.40659177485E+02  0.00000000000E+00 0.  1.
         11    1    3    3    0    0 -0.11843489447E+02  0.19022703614E+01 -0.77452513698E+01  0.14278508110E+02  0.51100000000E-03 0.  1.
        -11    1    3    3    0    0 -0.14586198415E+02 -0.14067692517E+02 -0.23661684106E+02  0.31153369833E+02  0.51100000000E-03 0. -1.
        -12    1    3    3    0    0  0.38341122724E+01  0.31477488614E+01 -0.11705144844E+01  0.50969445720E+01  0.00000000000E+00 0.  1.
</event>
<event>
 7    1  0.5992960E-013  0.5052887E+02  0.7816164E-02  0.1300439E+00
        -11   -1    0    0    0    0  0.00000000000E+00  0.00000000000E+00  0.45593999997E+02  0.45594000000E+02  0.51100000000E-03 0.  1.
         11   -1    0    0    0    0 -0.00000000000E+00 -0.00000000000E+00 -0.45593999997E+02  0.45594000000E+02  0.51100000000E-03 0. -1.
    9900012    2    1    2    0    0  0.12378802122E+02  0.12934563486E+02 -0.36505162654E+02  0.50528873412E+02  0.30000041222E+02 0.  0.
        -12    1    1    2    0    0 -0.12378802122E+02 -0.12934563486E+02  0.36505162654E+02  0.40659126588E+02  0.00000000000E+00 0.  1.
         11    1    3    3    0    0  0.13112860596E+02  0.54644989273E+01 -0.87033465614E+01  0.16660015101E+02  0.51100000000E-03 0. -1.
        -11    1    3    3    0    0 -0.29235630111E+01 -0.48385816058E+01 -0.38165220374E+01  0.68209188060E+01  0.51100000000E-03 0.  1.
         12    1    3    3    0    0  0.21895045370E+01  0.12308646165E+02 -0.23985294055E+02  0.27047939504E+02  0.00000000000E+00 0. -1.
</event>
<event>
 7    1  0.5992960E-013  0.5052888E+02  0.7816164E-02  0.1300439E+00
        -11   -1    0    0    0    0  0.00000000000E+00  0.00000000000E+00  0.45593999997E+02  0.45594000000E+02  0.51100000000E-03 0.  1.
         11   -1    0    0    0    0 -0.00000000000E+00 -0.00000000000E+00 -0.45593999997E+02  0.45594000000E+02  0.51100000000E-03 0. -1.
    9900012    2    1    2    0    0  0.40423477545E+01  0.72222389432E+01 -0.39807825430E+02  0.50528877085E+02  0.30000052387E+02 0.  0.
        -12    1    1    2    0    0 -0.40423477545E+01 -0.72222389432E+01  0.39807825430E+02  0.40659122915E+02  0.00000000000E+00 0.  1.
         11    1    3    3    0    0  0.10869338707E+02  0.18913659561E+01 -0.25051079271E+02  0.27372912925E+02  0.51100000000E-03 0. -1.
        -11    1    3    3    0    0 -0.54151162191E+01 -0.39272057532E+01 -0.11380502130E+02  0.13200843067E+02  0.51100000000E-03 0.  1.
         12    1    3    3    0    0 -0.14118747336E+01  0.92580787403E+01 -0.33762440302E+01  0.99551210930E+01  0.00000000000E+00 0. -1.
</event>
<event>
 7    1  0.5992960E-013  0.5052886E+02  0.7816164E-02  0.1300439E+00
        -11   -1    0    0    0    0  0.00000000000E+00  0.00000000000E+00  0.45593999997E+02  0.45594000000E+02  0.51100000000E-03 0. -1.
         11   -1    0    0    0    0 -0.00000000000E+00 -0.00000000000E+00 -0.45593999997E+02  0.45594000000E+02  0.51100000000E-03 0.  1.
    9900012    2    1    2    0    0 -0.38907738394E+01  0.40419327442E+02  0.20749359312E+01  0.50528861900E+02  0.30000006231E+02 0.  0.
        -12    1    1    2    0    0  0.38907738394E+01 -0.40419327442E+02 -0.20749359312E+01  0.40659138100E+02  0.00000000000E+00 0.  1.
         11    1    3    3    0    0  0.49262977086E+01 -0.16248335069E+01  0.18119847398E+01  0.54947049054E+01  0.51100000000E-03 0. -1.
        -11    1    3    3    0    0  0.32480491190E+01  0.42322498657E+01 -0.24806161633E+00  0.53407206285E+01  0.51100000000E-03 0.  1.
         12    1    3    3    0    0 -0.12065120667E+02  0.37811911083E+02  0.51101280777E+00  0.39693436366E+02  0.00000000000E+00 0. -1.
</event>
<event>
 7    1  0.5992960E-013  0.5052886E+02  0.7816164E-02  0.1300439E+00
        -11   -1    0    0    0    0  0.00000000000E+00  0.00000000000E+00  0.45593999997E+02  0.45594000000E+02  0.51100000000E-03 0.  1.
         11   -1    0    0    0    0 -0.00000000000E+00 -0.00000000000E+00 -0.45593999997E+02  0.45594000000E+02  0.51100000000E-03 0. -1.
    9900012    2    1    2    0    0  0.48609586407E+01 -0.90375076389E+01 -0.39342854539E+02  0.50528859988E+02  0.30000000420E+02 0.  0.
        -12    1    1    2    0    0 -0.48609586407E+01  0.90375076389E+01  0.39342854539E+02  0.40659140012E+02  0.00000000000E+00 0.  1.
         11    1    3    3    0    0  0.49814643278E+01  0.39878408883E+01 -0.20273360728E+02  0.21253870642E+02  0.51100000000E-03 0. -1.
        -11    1    3    3    0    0  0.11717474445E+01  0.59360279021E-01  0.32029607545E+01  0.34110809976E+01  0.51100000000E-03 0.  1.
         12    1    3    3    0    0 -0.12922531316E+01 -0.13084708806E+02 -0.22272454565E+02  0.25863908348E+02  0.00000000000E+00 0. -1.
</event>
<event>
 7    1  0.5992960E-013  0.5052886E+02  0.7816164E-02  0.1300439E+00
        -11   -1    0    0    0    0  0.00000000000E+00  0.00000000000E+00  0.45593999997E+02  0.45594000000E+02  0.51100000000E-03 0.  1.
         11   -1    0    0    0    0 -0.00000000000E+00 -0.00000000000E+00 -0.45593999997E+02  0.45594000000E+02  0.51100000000E-03 0. -1.
    9900012    2    1    2    0    0 -0.30207048512E+02  0.14133627973E+02 -0.23258119223E+02  0.50528864135E+02  0.30000013025E+02 0.  0.
        -12    1    1    2    0    0  0.30207048512E+02 -0.14133627973E+02  0.23258119223E+02  0.40659135865E+02  0.00000000000E+00 0.  1.
         11    1    3    3    0    0 -0.21431182870E+02  0.16759865001E+02 -0.12882449367E+02  0.30102261975E+02  0.51100000000E-03 0. -1.
        -11    1    3    3    0    0 -0.44449886315E+01  0.50292060088E+01 -0.94378174606E+01  0.11581158651E+02  0.51100000000E-03 0.  1.
        -12    1    3    3    0    0 -0.43308770105E+01 -0.76554430362E+01 -0.93785239474E+00  0.88454435092E+01  0.00000000000E+00 0.  1.
</event>
<event>
 7    1  0.5992960E-013  0.5052886E+02  0.7816164E-02  0.1300439E+00
        -11   -1    0    0    0    0  0.00000000000E+00  0.00000000000E+00  0.45593999997E+02  0.45594000000E+02  0.51100000000E-03 0. -1.
         11   -1    0    0    0    0 -0.00000000000E+00 -0.00000000000E+00 -0.45593999997E+02  0.45594000000E+02  0.51100000000E-03 0.  1.
    9900012    2    1    2    0    0  0.82587620265E+01  0.20425605766E+02  0.34172400777E+02  0.50528862085E+02  0.30000006793E+02 0.  0.
        -12    1    1    2    0    0 -0.82587620265E+01 -0.20425605766E+02 -0.34172400777E+02  0.40659137915E+02  0.00000000000E+00 0.  1.
         11    1    3    3    0    0  0.46894928214E+00  0.45572835847E+01  0.97776356363E+01  0.10797726890E+02  0.51100000000E-03 0. -1.
        -11    1    3    3    0    0 -0.45342136802E+01  0.17236972962E+02  0.90095637988E+01  0.19971093377E+02  0.51100000000E-03 0.  1.
        -12    1    3    3    0    0  0.12324026425E+02 -0.13686507803E+01  0.15385201342E+02  0.19760041817E+02  0.00000000000E+00 0.  1.
</event>
<event>
 7    1  0.5992960E-013  0.5052874E+02  0.7816164E-02  0.1300439E+00
        -11   -1    0    0    0    0  0.00000000000E+00  0.00000000000E+00  0.45593999997E+02  0.45594000000E+02  0.51100000000E-03 0. -1.
         11   -1    0    0    0    0 -0.00000000000E+00 -0.00000000000E+00 -0.45593999997E+02  0.45594000000E+02  0.51100000000E-03 0.  1.
    9900012    2    1    2    0    0 -0.14773443899E+02 -0.19544711194E+02  0.32448811039E+02  0.50528736380E+02  0.29999624699E+02 0.  0.
        -12    1    1    2    0    0  0.14773443899E+02  0.19544711194E+02 -0.32448811039E+02  0.40659263620E+02  0.00000000000E+00 0.  1.
         11    1    3    3    0    0 -0.26220603367E+01 -0.10981737369E+02  0.11073065086E+02  0.15814124279E+02  0.51100000000E-03 0.  1.
        -11    1    3    3    0    0 -0.10097585167E+01 -0.14031806208E+02  0.15657659688E+02  0.21049311269E+02  0.51100000000E-03 0. -1.
         12    1    3    3    0    0 -0.11141625045E+02  0.54688323839E+01  0.57180862645E+01  0.13665300832E+02  0.00000000000E+00 0. -1.
</event>
<event>
 7    1  0.5992960E-013  0.5052887E+02  0.7816164E-02  0.1300439E+00
        -11   -1    0    0    0    0  0.00000000000E+00  0.00000000000E+00  0.45593999997E+02  0.45594000000E+02  0.51100000000E-03 0.  1.
         11   -1    0    0    0    0 -0.00000000000E+00 -0.00000000000E+00 -0.45593999997E+02  0.45594000000E+02  0.51100000000E-03 0. -1.
    9900012    2    1    2    0    0  0.66602509461E+01 -0.37915919863E+02  0.13083928550E+02  0.50528866856E+02  0.30000021295E+02 0.  0.
        -12    1    1    2    0    0 -0.66602509461E+01  0.37915919863E+02 -0.13083928550E+02  0.40659133144E+02  0.00000000000E+00 0.  1.
         11    1    3    3    0    0  0.30618521635E+01  0.10176861768E+01 -0.38797328240E+00  0.32497918940E+01  0.51100000000E-03 0. -1.
        -11    1    3    3    0    0 -0.33194742877E+01 -0.27852535473E+01  0.92736250299E+01  0.10236047495E+02  0.51100000000E-03 0.  1.
         12    1    3    3    0    0  0.69178730704E+01 -0.36148352493E+02  0.41982768021E+01  0.37043027466E+02  0.00000000000E+00 0. -1.
</event>
<event>
 7    1  0.5992960E-013  0.5052884E+02  0.7816164E-02  0.1300439E+00
        -11   -1    0    0    0    0  0.00000000000E+00  0.00000000000E+00  0.45593999997E+02  0.45594000000E+02  0.51100000000E-03 0. -1.
         11   -1    0    0    0    0 -0.00000000000E+00 -0.00000000000E+00 -0.45593999997E+02  0.45594000000E+02  0.51100000000E-03 0.  1.
    9900012    2    1    2    0    0  0.39582786543E+02  0.18404175178E+00 -0.92917407731E+01  0.50528839797E+02  0.29999939046E+02 0.  0.
        -12    1    1    2    0    0 -0.39582786543E+02 -0.18404175178E+00  0.92917407731E+01  0.40659160203E+02  0.00000000000E+00 0.  1.
         11    1    3    3    0    0  0.86838161976E+01 -0.45733333921E+01 -0.73106150849E+01  0.12238020071E+02  0.51100000000E-03 0. -1.
        -11    1    3    3    0    0 -0.21929910674E+01 -0.32886170956E+01 -0.15104150885E+01  0.42314969247E+01  0.51100000000E-03 0.  1.
        -12    1    3    3    0    0  0.33091961412E+02  0.80459922395E+01 -0.47071059974E+00  0.34059322801E+02  0.00000000000E+00 0.  1.
</event>
<event>
 7    1  0.5992960E-013  0.5052888E+02  0.7816164E-02  0.1300439E+00
        -11   -1    0    0    0    0  0.00000000000E+00  0.00000000000E+00  0.45593999997E+02  0.45594000000E+02  0.51100000000E-03 0.  1.
         11   -1    0    0    0    0 -0.00000000000E+00 -0.00000000000E+00 -0.45593999997E+02  0.45594000000E+02  0.51100000000E-03 0. -1.
    9900012    2    1    2    0    0 -0.28526906422E+02 -0.21739409032E+02 -0.19151452802E+02  0.50528875077E+02  0.30000046283E+02 0.  0.
        -12    1    1    2    0    0  0.28526906422E+02  0.21739409032E+02  0.19151452802E+02  0.40659124923E+02  0.00000000000E+00 0.  1.
         11    1    3    3    0    0  0.26449502685E+01 -0.24800717305E+00  0.61202916983E+00  0.27261418611E+01  0.51100000000E-03 0.  1.
        -11    1    3    3    0    0 -0.23011643746E+01  0.53091662117E+00 -0.98971824752E+01  0.10175040597E+02  0.51100000000E-03 0. -1.
         12    1    3    3    0    0 -0.28870692316E+02 -0.22022318480E+02 -0.98662994968E+01  0.37627692619E+02  0.00000000000E+00 0. -1.
</event>
<event>
 7    1  0.5992960E-013  0.5052886E+02  0.7816164E-02  0.1300439E+00
        -11   -1    0    0    0    0  0.00000000000E+00  0.00000000000E+00  0.45593999997E+02  0.45594000000E+02  0.51100000000E-03 0.  1.
         11   -1    0    0    0    0 -0.00000000000E+00 -0.00000000000E+00 -0.45593999997E+02  0.45594000000E+02  0.51100000000E-03 0. -1.
    9900012    2    1    2    0    0  0.20434270621E+02 -0.60411632710E+01 -0.34628174264E+02  0.50528861761E+02  0.30000005808E+02 0.  0.
        -12    1    1    2    0    0 -0.20434270621E+02  0.60411632710E+01  0.34628174264E+02  0.40659138239E+02  0.00000000000E+00 0.  1.
         11    1    3    3    0    0  0.26052266721E+01 -0.10446160271E+02 -0.21701468816E+02  0.24225259946E+02  0.51100000000E-03 0. -1.
        -11    1    3    3    0    0  0.63626466965E+01 -0.45017253002E+01 -0.74612426777E+01  0.10789761175E+02  0.51100000000E-03 0.  1.
        -12    1    3    3    0    0  0.11466397253E+02  0.89067223003E+01 -0.54654627703E+01  0.15513840639E+02  0.00000000000E+00 0.  1.
</event>
<event>
 7    1  0.5992960E-013  0.5052886E+02  0.7816164E-02  0.1300439E+00
        -11   -1    0    0    0    0  0.00000000000E+00  0.00000000000E+00  0.45593999997E+02  0.45594000000E+02  0.51100000000E-03 0.  1.
         11   -1    0    0    0    0 -0.00000000000E+00 -0.00000000000E+00 -0.45593999997E+02  0.45594000000E+02  0.51100000000E-03 0. -1.
    9900012    2    1    2    0    0  0.30208488858E+02 -0.16898629418E+02 -0.21331885921E+02  0.50528857950E+02  0.29999994225E+02 0.  0.
        -12    1    1    2    0    0 -0.30208488858E+02  0.16898629418E+02  0.21331885921E+02  0.40659142050E+02  0.00000000000E+00 0.  1.
         11    1    3    3    0    0  0.38065204127E+01  0.75373766382E+00 -0.63375253162E+01  0.74311469850E+01  0.51100000000E-03 0. -1.
        -11    1    3    3    0    0  0.80940209909E+01  0.58630043729E+01 -0.62886400609E+00  0.10014163284E+02  0.51100000000E-03 0.  1.
         12    1    3    3    0    0  0.18307947454E+02 -0.23515371455E+02 -0.14365496599E+02  0.33083547681E+02  0.00000000000E+00 0. -1.
</event>
<event>
 7    1  0.5992960E-013  0.5052888E+02  0.7816164E-02  0.1300439E+00
        -11   -1    0    0    0    0  0.00000000000E+00  0.00000000000E+00  0.45593999997E+02  0.45594000000E+02  0.51100000000E-03 0.  1.
         11   -1    0    0    0    0 -0.00000000000E+00 -0.00000000000E+00 -0.45593999997E+02  0.45594000000E+02  0.51100000000E-03 0. -1.
    9900012    2    1    2    0    0 -0.33133507791E+02 -0.78091371943E+01 -0.22234038631E+02  0.50528875119E+02  0.30000046411E+02 0.  0.
        -12    1    1    2    0    0  0.33133507791E+02  0.78091371943E+01  0.22234038631E+02  0.40659124881E+02  0.00000000000E+00 0.  1.
         11    1    3    3    0    0 -0.29244949751E+02 -0.95142424194E+01 -0.18221259135E+02  0.35746358968E+02  0.51100000000E-03 0. -1.
        -11    1    3    3    0    0 -0.72888676088E+01  0.22631035888E+01 -0.68986485720E+01  0.10287885169E+02  0.51100000000E-03 0.  1.
        -12    1    3    3    0    0  0.34003095686E+01 -0.55799836374E+00  0.28858690761E+01  0.44946309816E+01  0.00000000000E+00 0.  1.
</event>
<event>
 7    1  0.5992960E-013  0.5052886E+02  0.7816164E-02  0.1300439E+00
        -11   -1    0    0    0    0  0.00000000000E+00  0.00000000000E+00  0.45593999997E+02  0.45594000000E+02  0.51100000000E-03 0.  1.
         11   -1    0    0    0    0 -0.00000000000E+00 -0.00000000000E+00 -0.45593999997E+02  0.45594000000E+02  0.51100000000E-03 0. -1.
    9900012    2    1    2    0    0 -0.37683759343E+02  0.10916020453E+02 -0.10674275669E+02  0.50528863489E+02  0.30000011062E+02 0.  0.
        -12    1    1    2    0    0  0.37683759343E+02 -0.10916020453E+02  0.10674275669E+02  0.40659136511E+02  0.00000000000E+00 0.  1.
         11    1    3    3    0    0 -0.30383335508E+02  0.15128226690E+02 -0.11049017849E+02  0.35694412939E+02  0.51100000000E-03 0. -1.
        -11    1    3    3    0    0 -0.10481363671E+02 -0.14739421001E+01  0.80610496716E+00  0.10615144615E+02  0.51100000000E-03 0.  1.
        -12    1    3    3    0    0  0.31809398359E+01 -0.27382641368E+01 -0.43136278710E+00  0.42193059355E+01  0.00000000000E+00 0.  1.
</event>
<event>
 7    1  0.5992960E-013  0.5052886E+02  0.7816164E-02  0.1300439E+00
        -11   -1    0    0    0    0  0.00000000000E+00  0.00000000000E+00  0.45593999997E+02  0.45594000000E+02  0.51100000000E-03 0.  1.
         11   -1    0    0    0    0 -0.00000000000E+00 -0.00000000000E+00 -0.45593999997E+02  0.45594000000E+02  0.51100000000E-03 0. -1.
    9900012    2    1    2    0    0  0.39352566948E+02  0.42724452527E+01 -0.92891106838E+01  0.50528857226E+02  0.29999992025E+02 0.  0.
        -12    1    1    2    0    0 -0.39352566948E+02 -0.42724452527E+01  0.92891106838E+01  0.40659142774E+02  0.00000000000E+00 0.  1.
         11    1    3    3    0    0  0.19152623186E+01  0.98208034169E+01  0.11897962977E+00  0.10006526166E+02  0.51100000000E-03 0. -1.
        -11    1    3    3    0    0  0.13426468158E+02 -0.53529929288E+01 -0.78787262915E+01  0.16462044488E+02  0.51100000000E-03 0.  1.
        -12    1    3    3    0    0  0.24010836471E+02 -0.19536523539E+00 -0.15293640221E+01  0.24060286572E+02  0.00000000000E+00 0.  1.
</event>
<event>
 7    1  0.5992960E-013  0.5052886E+02  0.7816164E-02  0.1300439E+00
        -11   -1    0    0    0    0  0.00000000000E+00  0.00000000000E+00  0.45593999997E+02  0.45594000000E+02  0.51100000000E-03 0.  1.
         11   -1    0    0    0    0 -0.00000000000E+00 -0.00000000000E+00 -0.45593999997E+02  0.45594000000E+02  0.51100000000E-03 0. -1.
    9900012    2    1    2    0    0 -0.23477022458E+02  0.11040905562E+02 -0.31306445654E+02  0.50528859348E+02  0.29999998473E+02 0.  0.
        -12    1    1    2    0    0  0.23477022458E+02 -0.11040905562E+02  0.31306445654E+02  0.40659140652E+02  0.00000000000E+00 0.  1.
         11    1    3    3    0    0 -0.61998926451E+01  0.63558581641E+01 -0.11250755971E+02  0.14332310072E+02  0.51100000000E-03 0. -1.
        -11    1    3    3    0    0  0.50537285764E+01  0.55734255083E+01 -0.30701159615E+01  0.81258142176E+01  0.51100000000E-03 0.  1.
        -12    1    3    3    0    0 -0.22330858389E+02 -0.88837811028E+00 -0.16985573721E+02  0.28070735058E+02  0.00000000000E+00 0.  1.
</event>
<event>
 7    1  0.5992960E-013  0.5052886E+02  0.7816164E-02  0.1300439E+00
        -11   -1    0    0    0    0  0.00000000000E+00  0.00000000000E+00  0.45593999997E+02  0.45594000000E+02  0.51100000000E-03 0. -1.
         11   -1    0    0    0    0 -0.00000000000E+00 -0.00000000000E+00 -0.45593999997E+02  0.45594000000E+02  0.51100000000E-03 0.  1.
    9900012    2    1    2    0    0 -0.12569698335E+02  0.32546786323E+02  0.20877618977E+02  0.50528860925E+02  0.30000003268E+02 0.  0.
        -12    1    1    2    0    0  0.12569698335E+02 -0.32546786323E+02 -0.20877618977E+02  0.40659139075E+02  0.00000000000E+00 0.  1.
         11    1    3    3    0    0  0.43909282239E+01 -0.11225838332E+01  0.23960468992E+01  0.51265471942E+01  0.51100000000E-03 0. -1.
        -11    1    3    3    0    0 -0.16219746409E+01 -0.20397661323E+01  0.11149689212E+01  0.28345376284E+01  0.51100000000E-03 0.  1.
        -12    1    3    3    0    0 -0.15338651918E+02  0.35709136288E+02  0.17366603156E+02  0.42567776103E+02  0.00000000000E+00 0.  1.
</event>
<event>
 7    1  0.5992960E-013  0.5052886E+02  0.7816164E-02  0.1300439E+00
        -11   -1    0    0    0    0  0.00000000000E+00  0.00000000000E+00  0.45593999997E+02  0.45594000000E+02  0.51100000000E-03 0.  1.
         11   -1    0    0    0    0 -0.00000000000E+00 -0.00000000000E+00 -0.45593999997E+02  0.45594000000E+02  0.51100000000E-03 0. -1.
    9900012    2    1    2    0    0  0.33008021689E+02  0.59392934299E+01 -0.22986102029E+02  0.50528860944E+02  0.30000003325E+02 0.  0.
        -12    1    1    2    0    0 -0.33008021689E+02 -0.59392934299E+01  0.22986102029E+02  0.40659139056E+02  0.00000000000E+00 0.  1.
         11    1    3    3    0    0  0.19363130323E+02  0.35412298225E+01 -0.83882380095E+01  0.21397047967E+02  0.51100000000E-03 0. -1.
        -11    1    3    3    0    0  0.12650318764E+02  0.10794889689E+02 -0.11023204690E+02  0.19951722987E+02  0.51100000000E-03 0.  1.
        -12    1    3    3    0    0  0.99457260223E+00 -0.83968260812E+01 -0.35746593298E+01  0.91800899899E+01  0.00000000000E+00 0.  1.
</event>
<event>
 7    1  0.5992960E-013  0.5052885E+02  0.7816164E-02  0.1300439E+00
        -11   -1    0    0    0    0  0.00000000000E+00  0.00000000000E+00  0.45593999997E+02  0.45594000000E+02  0.51100000000E-03 0.  1.
         11   -1    0    0    0    0 -0.00000000000E+00 -0.00000000000E+00 -0.45593999997E+02  0.45594000000E+02  0.51100000000E-03 0. -1.
    9900012    2    1    2    0    0  0.23468459534E+02 -0.23798454703E+02 -0.23152345167E+02  0.50528854339E+02  0.29999983249E+02 0.  0.
        -12    1    1    2    0    0 -0.23468459534E+02  0.23798454703E+02  0.23152345167E+02  0.40659145661E+02  0.00000000000E+00 0.  1.
         11    1    3    3    0    0  0.24183831154E+02 -0.16053394475E+02 -0.12410928179E+02  0.31568976892E+02  0.51100000000E-03 0. -1.
        -11    1    3    3    0    0  0.59695233333E+01 -0.10623189343E+01 -0.31274876270E+01  0.68223829754E+01  0.51100000000E-03 0.  1.
         12    1    3    3    0    0 -0.66848949535E+01 -0.66827412937E+01 -0.76139293611E+01  0.12137494472E+02  0.00000000000E+00 0. -1.
</event>
<event>
 7    1  0.5992960E-013  0.5052891E+02  0.7816164E-02  0.1300439E+00
        -11   -1    0    0    0    0  0.00000000000E+00  0.00000000000E+00  0.45593999997E+02  0.45594000000E+02  0.51100000000E-03 0.  1.
         11   -1    0    0    0    0 -0.00000000000E+00 -0.00000000000E+00 -0.45593999997E+02  0.45594000000E+02  0.51100000000E-03 0. -1.
    9900012    2    1    2    0    0  0.15008384390E+02 -0.31558202278E+02 -0.20784364511E+02  0.50528910720E+02  0.30000154623E+02 0.  0.
        -12    1    1    2    0    0 -0.15008384390E+02  0.31558202278E+02  0.20784364511E+02  0.40659089280E+02  0.00000000000E+00 0.  1.
         11    1    3    3    0    0  0.58383531340E+01  0.12653814632E+01 -0.13939876595E+01  0.61343915282E+01  0.51100000000E-03 0. -1.
        -11    1    3    3    0    0  0.11869558391E+02 -0.83764257343E+01 -0.11612054877E+02  0.18598138165E+02  0.51100000000E-03 0.  1.
         12    1    3    3    0    0 -0.26995271344E+01 -0.24447158006E+02 -0.77783219741E+01  0.25796381027E+02  0.00000000000E+00 0. -1.
</event>
<event>
 7    1  0.5992960E-013  0.5052886E+02  0.7816164E-02  0.1300439E+00
        -11   -1    0    0    0    0  0.00000000000E+00  0.00000000000E+00  0.45593999997E+02  0.45594000000E+02  0.51100000000E-03 0.  1.
         11   -1    0    0    0    0 -0.00000000000E+00 -0.00000000000E+00 -0.45593999997E+02  0.45594000000E+02  0.51100000000E-03 0. -1.
    9900012    2    1    2    0    0  0.19497190648E+02  0.13084879147E+02 -0.33193545295E+02  0.50528856444E+02  0.29999989647E+02 0.  0.
        -12    1    1    2    0    0 -0.19497190648E+02 -0.13084879147E+02  0.33193545295E+02  0.40659143556E+02  0.00000000000E+00 0.  1.
         11    1    3    3    0    0 -0.23907534725E+01  0.90729821183E+01 -0.14256362893E+02  0.17066885770E+02  0.51100000000E-03 0. -1.
        -11    1    3    3    0    0 -0.13633291119E+01  0.17718215493E+01  0.12738279760E+01  0.25730635133E+01  0.51100000000E-03 0.  1.
         12    1    3    3    0    0  0.23251273232E+02  0.22400754793E+01 -0.20211010378E+02  0.30888907161E+02  0.00000000000E+00 0. -1.
</event>
<event>
 7    1  0.5992960E-013  0.5052886E+02  0.7816164E-02  0.1300439E+00
        -11   -1    0    0    0    0  0.00000000000E+00  0.00000000000E+00  0.45593999997E+02  0.45594000000E+02  0.51100000000E-03 0.  1.
         11   -1    0    0    0    0 -0.00000000000E+00 -0.00000000000E+00 -0.45593999997E+02  0.45594000000E+02  0.51100000000E-03 0. -1.
    9900012    2    1    2    0    0 -0.39270503170E+02 -0.68533947343E+01  0.80015351197E+01  0.50528855852E+02  0.29999987848E+02 0.  0.
        -12    1    1    2    0    0  0.39270503170E+02  0.68533947343E+01 -0.80015351197E+01  0.40659144148E+02  0.00000000000E+00 0.  1.
         11    1    3    3    0    0 -0.81126340745E+01 -0.37312496431E+01 -0.45847959979E+01  0.10037799068E+02  0.51100000000E-03 0. -1.
        -11    1    3    3    0    0 -0.23568426666E+02 -0.77771407404E+00 -0.22231295229E+01  0.23685816005E+02  0.51100000000E-03 0.  1.
        -12    1    3    3    0    0 -0.75894424296E+01 -0.23444310172E+01  0.14809460641E+02  0.16805240779E+02  0.00000000000E+00 0.  1.
</event>
<event>
 7    1  0.5992960E-013  0.5052887E+02  0.7816164E-02  0.1300439E+00
        -11   -1    0    0    0    0  0.00000000000E+00  0.00000000000E+00  0.45593999997E+02  0.45594000000E+02  0.51100000000E-03 0.  1.
         11   -1    0    0    0    0 -0.00000000000E+00 -0.00000000000E+00 -0.45593999997E+02  0.45594000000E+02  0.51100000000E-03 0. -1.
    9900012    2    1    2    0    0  0.52224613061E+01 -0.18578046662E+01 -0.40279519634E+02  0.50528865206E+02  0.30000016279E+02 0.  0.
        -12    1    1    2    0    0 -0.52224613061E+01  0.18578046662E+01  0.40279519634E+02  0.40659134794E+02  0.00000000000E+00 0.  1.
         11    1    3    3    0    0 -0.28304563352E+01 -0.50228954448E+01 -0.11760896367E+02  0.13098077925E+02  0.51100000000E-03 0. -1.
        -11    1    3    3    0    0  0.41926074363E+01 -0.87439732272E+01 -0.20179507208E+02  0.22388558156E+02  0.51100000000E-03 0.  1.
        -12    1    3    3    0    0  0.38603102050E+01  0.11909064006E+02 -0.83391160590E+01  0.15042229124E+02  0.00000000000E+00 0.  1.
</event>
<event>
 7    1  0.5992960E-013  0.5052886E+02  0.7816164E-02  0.1300439E+00
        -11   -1    0    0    0    0  0.00000000000E+00  0.00000000000E+00  0.45593999997E+02  0.45594000000E+02  0.51100000000E-03 0.  1.
         11   -1    0    0    0    0 -0.00000000000E+00 -0.00000000000E+00 -0.45593999997E+02  0.45594000000E+02  0.51100000000E-03 0. -1.
    9900012    2    1    2    0    0 -0.92511551039E+01 -0.89290121168E+01 -0.38572721283E+02  0.50528856437E+02  0.29999989625E+02 0.  0.
        -12    1    1    2    0    0  0.92511551039E+01  0.89290121168E+01  0.38572721283E+02  0.40659143563E+02  0.00000000000E+00 0.  1.
         11    1    3    3    0    0  0.44028964398E+01  0.38873223573E+01 -0.72488960469E+01  0.93296980835E+01  0.51100000000E-03 0. -1.
        -11    1    3    3    0    0  0.20931439071E+01  0.21495544471E+01  0.94124435079E-01  0.30017820386E+01  0.51100000000E-03 0.  1.
         12    1    3    3    0    0 -0.15747195451E+02 -0.14965888921E+02 -0.31417949671E+02  0.38197376314E+02  0.00000000000E+00 0. -1.
</event>
<event>
 7    1  0.5992960E-013  0.5052886E+02  0.7816164E-02  0.1300439E+00
        -11   -1    0    0    0    0  0.00000000000E+00  0.00000000000E+00  0.45593999997E+02  0.45594000000E+02  0.51100000000E-03 0. -1.
         11   -1    0    0    0    0 -0.00000000000E+00 -0.00000000000E+00 -0.45593999997E+02  0.45594000000E+02  0.51100000000E-03 0.  1.
    9900012    2    1    2    0    0 -0.15564287043E+02 -0.14623256157E+01  0.37533717080E+02  0.50528863939E+02  0.30000012430E+02 0.  0.
        -12    1    1    2    0    0  0.15564287043E+02  0.14623256157E+01 -0.37533717080E+02  0.40659136061E+02  0.00000000000E+00 0.  1.
         11    1    3    3    0    0 -0.11058991563E+02  0.22881641331E+01  0.12906012512E+02  0.17149406658E+02  0.51100000000E-03 0.  1.
        -11    1    3    3    0    0  0.21961199989E+01 -0.97769944079E+01  0.38562619993E+01  0.10737007012E+02  0.51100000000E-03 0. -1.
         12    1    3    3    0    0 -0.67014154786E+01  0.60265046591E+01  0.20771442569E+02  0.22642450270E+02  0.00000000000E+00 0. -1.
</event>
<event>
 7    1  0.5992960E-013  0.5052886E+02  0.7816164E-02  0.1300439E+00
        -11   -1    0    0    0    0  0.00000000000E+00  0.00000000000E+00  0.45593999997E+02  0.45594000000E+02  0.51100000000E-03 0.  1.
         11   -1    0    0    0    0 -0.00000000000E+00 -0.00000000000E+00 -0.45593999997E+02  0.45594000000E+02  0.51100000000E-03 0. -1.
    9900012    2    1    2    0    0 -0.21392241419E+02  0.14429448551E+02 -0.31421780653E+02  0.50528864768E+02  0.30000014950E+02 0.  0.
        -12    1    1    2    0    0  0.21392241419E+02 -0.14429448551E+02  0.31421780653E+02  0.40659135232E+02  0.00000000000E+00 0.  1.
         11    1    3    3    0    0 -0.61249126742E+01 -0.46324388015E+01  0.18969482838E+00  0.76817985463E+01  0.51100000000E-03 0. -1.
        -11    1    3    3    0    0 -0.45467077867E+01  0.49522579825E+01 -0.13377318363E+00  0.67242327702E+01  0.51100000000E-03 0.  1.
         12    1    3    3    0    0 -0.10720620958E+02  0.14109629370E+02 -0.31477702297E+02  0.36122833452E+02  0.00000000000E+00 0. -1.
</event>
<event>
 7    1  0.5992960E-013  0.5052886E+02  0.7816164E-02  0.1300439E+00
        -11   -1    0    0    0    0  0.00000000000E+00  0.00000000000E+00  0.45593999997E+02  0.45594000000E+02  0.51100000000E-03 0.  1.
         11   -1    0    0    0    0 -0.00000000000E+00 -0.00000000000E+00 -0.45593999997E+02  0.45594000000E+02  0.51100000000E-03 0. -1.
    9900012    2    1    2    0    0 -0.14874283717E+02 -0.14698928766E+02 -0.34869221577E+02  0.50528862818E+02  0.30000009023E+02 0.  0.
        -12    1    1    2    0    0  0.14874283717E+02  0.14698928766E+02  0.34869221577E+02  0.40659137182E+02  0.00000000000E+00 0.  1.
         11    1    3    3    0    0 -0.13025634631E+01 -0.14032913065E+02 -0.54333801464E+01  0.15104335164E+02  0.51100000000E-03 0. -1.
        -11    1    3    3    0    0 -0.49357928294E+01 -0.23751694982E+01 -0.88665189223E+00  0.55488406752E+01  0.51100000000E-03 0.  1.
        -12    1    3    3    0    0 -0.86359274243E+01  0.17091537975E+01 -0.28549189539E+02  0.29875686979E+02  0.00000000000E+00 0.  1.
</event>
<event>
 7    1  0.5992960E-013  0.5052886E+02  0.7816164E-02  0.1300439E+00
        -11   -1    0    0    0    0  0.00000000000E+00  0.00000000000E+00  0.45593999997E+02  0.45594000000E+02  0.51100000000E-03 0.  1.
         11   -1    0    0    0    0 -0.00000000000E+00 -0.00000000000E+00 -0.45593999997E+02  0.45594000000E+02  0.51100000000E-03 0. -1.
    9900012    2    1    2    0    0 -0.32633913805E+02 -0.57703725919E+01 -0.23556237791E+02  0.50528857499E+02  0.29999992854E+02 0.  0.
        -12    1    1    2    0    0  0.32633913805E+02  0.57703725919E+01  0.23556237791E+02  0.40659142501E+02  0.00000000000E+00 0.  1.
         11    1    3    3    0    0 -0.42330779126E+01 -0.65786030951E+01 -0.29965669007E+01  0.83771343996E+01  0.51100000000E-03 0. -1.
        -11    1    3    3    0    0 -0.88902333928E+00 -0.44837562503E+01 -0.12024908827E+02  0.12864403024E+02  0.51100000000E-03 0.  1.
         12    1    3    3    0    0 -0.27511812553E+02  0.52919867534E+01 -0.85347620631E+01  0.29287320076E+02  0.00000000000E+00 0. -1.
</event>
<event>
 7    1  0.5992960E-013  0.5052885E+02  0.7816164E-02  0.1300439E+00
        -11   -1    0    0    0    0  0.00000000000E+00  0.00000000000E+00  0.45593999997E+02  0.45594000000E+02  0.51100000000E-03 0. -1.
         11   -1    0    0    0    0 -0.00000000000E+00 -0.00000000000E+00 -0.45593999997E+02  0.45594000000E+02  0.51100000000E-03 0.  1.
    9900012    2    1    2    0    0 -0.14524442213E+02 -0.37068487250E+02  0.82543383397E+01  0.50528852566E+02  0.29999977859E+02 0.  0.
        -12    1    1    2    0    0  0.14524442213E+02  0.37068487250E+02 -0.82543383397E+01  0.40659147434E+02  0.00000000000E+00 0.  1.
         11    1    3    3    0    0 -0.14136678076E+02 -0.35549123538E+02  0.18565978362E+00  0.38257291085E+02  0.51100000000E-03 0. -1.
        -11    1    3    3    0    0 -0.45438941325E+01  0.20361726257E-01  0.26102607283E+01  0.52403100880E+01  0.51100000000E-03 0.  1.
        -12    1    3    3    0    0  0.41561299954E+01 -0.15397254384E+01  0.54584178278E+01  0.70312513927E+01  0.00000000000E+00 0.  1.
</event>
<event>
 7    1  0.5992960E-013  0.5052886E+02  0.7816164E-02  0.1300439E+00
        -11   -1    0    0    0    0  0.00000000000E+00  0.00000000000E+00  0.45593999997E+02  0.45594000000E+02  0.51100000000E-03 0.  1.
         11   -1    0    0    0    0 -0.00000000000E+00 -0.00000000000E+00 -0.45593999997E+02  0.45594000000E+02  0.51100000000E-03 0. -1.
    9900012    2    1    2    0    0 -0.10463250477E+02 -0.94734359538E+00 -0.39278351887E+02  0.50528855919E+02  0.29999988052E+02 0.  0.
        -12    1    1    2    0    0  0.10463250477E+02  0.94734359538E+00  0.39278351887E+02  0.40659144081E+02  0.00000000000E+00 0.  1.
         11    1    3    3    0    0  0.28740567587E+01  0.10616121069E+00 -0.22106039670E+02  0.22292340895E+02  0.51100000000E-03 0. -1.
        -11    1    3    3    0    0 -0.23784031837E+01  0.78896750663E+01 -0.56312789454E+01  0.99807353025E+01  0.51100000000E-03 0.  1.
         12    1    3    3    0    0 -0.10958904052E+02 -0.89431798724E+01 -0.11541033272E+02  0.18255779721E+02  0.00000000000E+00 0. -1.
</event>
<event>
 7    1  0.5992960E-013  0.5052886E+02  0.7816164E-02  0.1300439E+00
        -11   -1    0    0    0    0  0.00000000000E+00  0.00000000000E+00  0.45593999997E+02  0.45594000000E+02  0.51100000000E-03 0.  1.
         11   -1    0    0    0    0 -0.00000000000E+00 -0.00000000000E+00 -0.45593999997E+02  0.45594000000E+02  0.51100000000E-03 0. -1.
    9900012    2    1    2    0    0  0.18928296123E+02 -0.27006660908E+02 -0.23780787502E+02  0.50528856112E+02  0.29999988637E+02 0.  0.
        -12    1    1    2    0    0 -0.18928296123E+02  0.27006660908E+02  0.23780787502E+02  0.40659143888E+02  0.00000000000E+00 0.  1.
         11    1    3    3    0    0  0.72598141301E+00 -0.37162017877E+01 -0.44535941734E+01  0.58456570257E+01  0.51100000000E-03 0. -1.
        -11    1    3    3    0    0  0.21458843454E+02 -0.24893716905E+02 -0.95067522595E+01  0.34213410273E+02  0.51100000000E-03 0.  1.
        -12    1    3    3    0    0 -0.32565287443E+01  0.16032577852E+01 -0.98204410693E+01  0.10469788813E+02  0.00000000000E+00 0.  1.
</event>
<event>
 7    1  0.5992960E-013  0.5052886E+02  0.7816164E-02  0.1300439E+00
        -11   -1    0    0    0    0  0.00000000000E+00  0.00000000000E+00  0.45593999997E+02  0.45594000000E+02  0.51100000000E-03 0.  1.
         11   -1    0    0    0    0 -0.00000000000E+00 -0.00000000000E+00 -0.45593999997E+02  0.45594000000E+02  0.51100000000E-03 0. -1.
    9900012    2    1    2    0    0  0.27490746543E+02  0.29954851872E+02 -0.36281304011E+00  0.50528856755E+02  0.29999990591E+02 0.  0.
        -12    1    1    2    0    0 -0.27490746543E+02 -0.29954851872E+02  0.36281304011E+00  0.40659143245E+02  0.00000000000E+00 0.  1.
         11    1    3    3    0    0  0.22591702000E+02  0.22649562187E+02  0.25857448317E+01  0.32094761926E+02  0.51100000000E-03 0. -1.
        -11    1    3    3    0    0  0.86795407575E+01  0.88745242596E+01 -0.55357417218E+01  0.13591763876E+02  0.51100000000E-03 0.  1.
        -12    1    3    3    0    0 -0.37804962139E+01 -0.15692345752E+01  0.25871838501E+01  0.48423309520E+01  0.00000000000E+00 0.  1.
</event>
<event>
 7    1  0.5992960E-013  0.5052879E+02  0.7816164E-02  0.1300439E+00
        -11   -1    0    0    0    0  0.00000000000E+00  0.00000000000E+00  0.45593999997E+02  0.45594000000E+02  0.51100000000E-03 0. -1.
         11   -1    0    0    0    0 -0.00000000000E+00 -0.00000000000E+00 -0.45593999997E+02  0.45594000000E+02  0.51100000000E-03 0.  1.
    9900012    2    1    2    0    0  0.97424104008E+00 -0.29043097521E+02  0.28438012706E+02  0.50528791622E+02  0.29999792615E+02 0.  0.
        -12    1    1    2    0    0 -0.97424104008E+00  0.29043097521E+02 -0.28438012706E+02  0.40659208378E+02  0.00000000000E+00 0.  1.
         11    1    3    3    0    0  0.13784402557E+01  0.41318139829E+01  0.10105860181E+01  0.44713833082E+01  0.51100000000E-03 0. -1.
        -11    1    3    3    0    0 -0.15533052666E+01  0.11133780394E+00 -0.13347845219E+01  0.20510493263E+01  0.51100000000E-03 0.  1.
         12    1    3    3    0    0  0.11491060509E+01 -0.33286249308E+02  0.28762211210E+02  0.44006358988E+02  0.00000000000E+00 0. -1.
</event>
<event>
 7    1  0.5992960E-013  0.5052886E+02  0.7816164E-02  0.1300439E+00
        -11   -1    0    0    0    0  0.00000000000E+00  0.00000000000E+00  0.45593999997E+02  0.45594000000E+02  0.51100000000E-03 0. -1.
         11   -1    0    0    0    0 -0.00000000000E+00 -0.00000000000E+00 -0.45593999997E+02  0.45594000000E+02  0.51100000000E-03 0.  1.
    9900012    2    1    2    0    0  0.38085629120E+02  0.13936192367E+02 -0.29039889693E+01  0.50528858899E+02  0.29999997110E+02 0.  0.
        -12    1    1    2    0    0 -0.38085629120E+02 -0.13936192367E+02  0.29039889693E+01  0.40659141101E+02  0.00000000000E+00 0.  1.
         11    1    3    3    0    0  0.13696518132E+02 -0.81149292640E+01 -0.53007713243E+01  0.16779298639E+02  0.51100000000E-03 0.  1.
        -11    1    3    3    0    0  0.55801266619E+01  0.76912681747E+01 -0.19220222479E+01  0.96947196700E+01  0.51100000000E-03 0. -1.
        -12    1    3    3    0    0  0.18808984326E+02  0.14359853456E+02  0.43188046029E+01  0.24054840590E+02  0.00000000000E+00 0.  1.
</event>
<event>
 7    1  0.5992960E-013  0.5052886E+02  0.7816164E-02  0.1300439E+00
        -11   -1    0    0    0    0  0.00000000000E+00  0.00000000000E+00  0.45593999997E+02  0.45594000000E+02  0.51100000000E-03 0. -1.
         11   -1    0    0    0    0 -0.00000000000E+00 -0.00000000000E+00 -0.45593999997E+02  0.45594000000E+02  0.51100000000E-03 0.  1.
    9900012    2    1    2    0    0  0.33657744153E+02 -0.57779933002E+00  0.22803242175E+02  0.50528862685E+02  0.30000008617E+02 0.  0.
        -12    1    1    2    0    0 -0.33657744153E+02  0.57779933002E+00 -0.22803242175E+02  0.40659137315E+02  0.00000000000E+00 0.  1.
         11    1    3    3    0    0  0.72664159719E+01  0.11825579040E+01  0.70371614701E+01  0.10184345148E+02  0.51100000000E-03 0. -1.
        -11    1    3    3    0    0  0.68773819478E+01 -0.73740813793E+01  0.17254334605E+02  0.19984682173E+02  0.51100000000E-03 0.  1.
        -12    1    3    3    0    0  0.19513946233E+02  0.56137241453E+01 -0.14882539003E+01  0.20359835364E+02  0.00000000000E+00 0.  1.
</event>
<event>
 7    1  0.5992960E-013  0.5052886E+02  0.7816164E-02  0.1300439E+00
        -11   -1    0    0    0    0  0.00000000000E+00  0.00000000000E+00  0.45593999997E+02  0.45594000000E+02  0.51100000000E-03 0.  1.
         11   -1    0    0    0    0 -0.00000000000E+00 -0.00000000000E+00 -0.45593999997E+02  0.45594000000E+02  0.51100000000E-03 0. -1.
    9900012    2    1    2    0    0 -0.49179611754E+01 -0.17966842502E+02 -0.36141003368E+02  0.50528857165E+02  0.29999991838E+02 0.  0.
        -12    1    1    2    0    0  0.49179611754E+01  0.17966842502E+02  0.36141003368E+02  0.40659142835E+02  0.00000000000E+00 0.  1.
         11    1    3    3    0    0  0.30611861549E+01 -0.64703738516E+01 -0.54874247763E+01  0.90193364164E+01  0.51100000000E-03 0. -1.
        -11    1    3    3    0    0 -0.89888245740E+01 -0.15405281440E+02 -0.99654107409E+01  0.20431130046E+02  0.51100000000E-03 0.  1.
         12    1    3    3    0    0  0.10096772436E+01  0.39088127895E+01 -0.20688167851E+02  0.21078390702E+02  0.00000000000E+00 0. -1.
</event>
<event>
 7    1  0.5992960E-013  0.5052886E+02  0.7816164E-02  0.1300439E+00
        -11   -1    0    0    0    0  0.00000000000E+00  0.00000000000E+00  0.45593999997E+02  0.45594000000E+02  0.51100000000E-03 0.  1.
         11   -1    0    0    0    0 -0.00000000000E+00 -0.00000000000E+00 -0.45593999997E+02  0.45594000000E+02  0.51100000000E-03 0. -1.
    9900012    2    1    2    0    0  0.23346655177E+02 -0.23999712634E+02 -0.23067578094E+02  0.50528859901E+02  0.30000000155E+02 0.  0.
        -12    1    1    2    0    0 -0.23346655177E+02  0.23999712634E+02  0.23067578094E+02  0.40659140099E+02  0.00000000000E+00 0.  1.
         11    1    3    3    0    0  0.69414981482E+01 -0.11851770966E+02 -0.77945178756E+01  0.15792510274E+02  0.51100000000E-03 0. -1.
        -11    1    3    3    0    0  0.10141997269E+02 -0.16057096222E+02 -0.14276213150E+01  0.19045433850E+02  0.51100000000E-03 0.  1.
         12    1    3    3    0    0  0.62631597602E+01  0.39091545532E+01 -0.13845438903E+02  0.15690915777E+02  0.00000000000E+00 0. -1.
</event>
<event>
 7    1  0.5992960E-013  0.5052887E+02  0.7816164E-02  0.1300439E+00
        -11   -1    0    0    0    0  0.00000000000E+00  0.00000000000E+00  0.45593999997E+02  0.45594000000E+02  0.51100000000E-03 0.  1.
         11   -1    0    0    0    0 -0.00000000000E+00 -0.00000000000E+00 -0.45593999997E+02  0.45594000000E+02  0.51100000000E-03 0. -1.
    9900012    2    1    2    0    0  0.23902616678E+02 -0.28073058494E+02 -0.17138647646E+02  0.50528868918E+02  0.30000027562E+02 0.  0.
        -12    1    1    2    0    0 -0.23902616678E+02  0.28073058494E+02  0.17138647646E+02  0.40659131082E+02  0.00000000000E+00 0.  1.
         11    1    3    3    0    0  0.14090356739E+02 -0.28139380133E+02 -0.61819792316E+01  0.32071478525E+02  0.51100000000E-03 0. -1.
        -11    1    3    3    0    0  0.94408193209E+01 -0.25789311581E+01 -0.32680211333E+01  0.10317941547E+02  0.51100000000E-03 0.  1.
        -12    1    3    3    0    0  0.37144061762E+00  0.26452527974E+01 -0.76886472814E+01  0.81394488458E+01  0.00000000000E+00 0.  1.
</event>
<event>
 7    1  0.5992960E-013  0.5052886E+02  0.7816164E-02  0.1300439E+00
        -11   -1    0    0    0    0  0.00000000000E+00  0.00000000000E+00  0.45593999997E+02  0.45594000000E+02  0.51100000000E-03 0.  1.
         11   -1    0    0    0    0 -0.00000000000E+00 -0.00000000000E+00 -0.45593999997E+02  0.45594000000E+02  0.51100000000E-03 0. -1.
    9900012    2    1    2    0    0  0.89670953690E+00  0.31468573628E+02 -0.25731117293E+02  0.50528860667E+02  0.30000002484E+02 0.  0.
        -12    1    1    2    0    0 -0.89670953690E+00 -0.31468573628E+02  0.25731117293E+02  0.40659139333E+02  0.00000000000E+00 0.  1.
         11    1    3    3    0    0 -0.85562859588E+01  0.59671287601E+01 -0.92867940536E+01  0.13966431151E+02  0.51100000000E-03 0. -1.
        -11    1    3    3    0    0 -0.19558868791E+01 -0.20096166165E+01 -0.21105728005E+01  0.35097820782E+01  0.51100000000E-03 0.  1.
         12    1    3    3    0    0  0.11408882375E+02  0.27511061484E+02 -0.14333750439E+02  0.33052647438E+02  0.00000000000E+00 0. -1.
</event>
<event>
 7    1  0.5992960E-013  0.5052884E+02  0.7816164E-02  0.1300439E+00
        -11   -1    0    0    0    0  0.00000000000E+00  0.00000000000E+00  0.45593999997E+02  0.45594000000E+02  0.51100000000E-03 0.  1.
         11   -1    0    0    0    0 -0.00000000000E+00 -0.00000000000E+00 -0.45593999997E+02  0.45594000000E+02  0.51100000000E-03 0. -1.
    9900012    2    1    2    0    0 -0.84115620058E+00  0.17757804259E+00 -0.40650067677E+02  0.50528842607E+02  0.29999947589E+02 0.  0.
        -12    1    1    2    0    0  0.84115620058E+00 -0.17757804259E+00  0.40650067677E+02  0.40659157393E+02  0.00000000000E+00 0.  1.
         11    1    3    3    0    0 -0.55725355618E+01 -0.19970947800E+01 -0.91947325061E+01  0.10935476499E+02  0.51100000000E-03 0. -1.
        -11    1    3    3    0    0 -0.85100198232E+01  0.31513331903E+01 -0.20358184264E+02  0.22289167886E+02  0.51100000000E-03 0.  1.
         12    1    3    3    0    0  0.13241399184E+02 -0.97666036767E+00 -0.11097150907E+02  0.17304198222E+02  0.00000000000E+00 0. -1.
</event>
<event>
 7    1  0.6910727E-013  0.5052886E+02  0.7816164E-02  0.1300439E+00
        -11   -1    0    0    0    0  0.00000000000E+00  0.00000000000E+00  0.45593999997E+02  0.45594000000E+02  0.51100000000E-03 0. -1.
         11   -1    0    0    0    0 -0.00000000000E+00 -0.00000000000E+00 -0.45593999997E+02  0.45594000000E+02  0.51100000000E-03 0.  1.
    9900012    2    1    2    0    0  0.61871441361E+01  0.24080433011E+02  0.32171686621E+02  0.50528862938E+02  0.30000009386E+02 0.  0.
        -12    1    1    2    0    0 -0.61871441361E+01 -0.24080433011E+02 -0.32171686621E+02  0.40659137062E+02  0.00000000000E+00 0.  1.
         11    1    3    3    0    0 -0.20958960109E+01  0.21294940378E+01  0.40192321965E+01  0.50081685930E+01  0.51100000000E-03 0. -1.
        -11    1    3    3    0    0  0.97562668208E+00  0.41818480005E+01 -0.53741921876E+01  0.68790727611E+01  0.51100000000E-03 0.  1.
         12    1    3    3    0    0  0.73074134650E+01  0.17769090973E+02  0.33526646613E+02  0.38641621584E+02  0.00000000000E+00 0. -1.
</event>
<event>
 7    1  0.5992960E-013  0.5052887E+02  0.7816164E-02  0.1300439E+00
        -11   -1    0    0    0    0  0.00000000000E+00  0.00000000000E+00  0.45593999997E+02  0.45594000000E+02  0.51100000000E-03 0. -1.
         11   -1    0    0    0    0 -0.00000000000E+00 -0.00000000000E+00 -0.45593999997E+02  0.45594000000E+02  0.51100000000E-03 0.  1.
    9900012    2    1    2    0    0  0.29905455307E+02 -0.25164740547E+02  0.11205536634E+02  0.50528874638E+02  0.30000044950E+02 0.  0.
        -12    1    1    2    0    0 -0.29905455307E+02  0.25164740547E+02 -0.11205536634E+02  0.40659125362E+02  0.00000000000E+00 0.  1.
         11    1    3    3    0    0  0.95887381560E+00 -0.13087898167E+02  0.48416456899E+01  0.13987639210E+02  0.51100000000E-03 0. -1.
        -11    1    3    3    0    0  0.12577440926E+02 -0.29089672468E+00  0.99679680337E+01  0.16051075607E+02  0.51100000000E-03 0.  1.
        -12    1    3    3    0    0  0.16369140566E+02 -0.11785945655E+02 -0.36040770892E+01  0.20490159822E+02  0.00000000000E+00 0.  1.
</event>
<event>
 7    1  0.5992960E-013  0.5052886E+02  0.7816164E-02  0.1300439E+00
        -11   -1    0    0    0    0  0.00000000000E+00  0.00000000000E+00  0.45593999997E+02  0.45594000000E+02  0.51100000000E-03 0. -1.
         11   -1    0    0    0    0 -0.00000000000E+00 -0.00000000000E+00 -0.45593999997E+02  0.45594000000E+02  0.51100000000E-03 0.  1.
    9900012    2    1    2    0    0  0.33673355926E+02 -0.22775471500E+02 -0.74063275931E+00  0.50528861565E+02  0.30000005213E+02 0.  0.
        -12    1    1    2    0    0 -0.33673355926E+02  0.22775471500E+02  0.74063275931E+00  0.40659138435E+02  0.00000000000E+00 0.  1.
         11    1    3    3    0    0  0.12335777659E+02 -0.57143761718E+01  0.72546514742E+01  0.15409590317E+02  0.51100000000E-03 0.  1.
        -11    1    3    3    0    0  0.72487684524E+01 -0.18445116469E+02 -0.26848220790E+01  0.19999380877E+02  0.51100000000E-03 0. -1.
         12    1    3    3    0    0  0.14088809815E+02  0.13840211402E+01 -0.53104621545E+01  0.15119890370E+02  0.00000000000E+00 0. -1.
</event>
<event>
 7    1  0.5992960E-013  0.5052888E+02  0.7816164E-02  0.1300439E+00
        -11   -1    0    0    0    0  0.00000000000E+00  0.00000000000E+00  0.45593999997E+02  0.45594000000E+02  0.51100000000E-03 0.  1.
         11   -1    0    0    0    0 -0.00000000000E+00 -0.00000000000E+00 -0.45593999997E+02  0.45594000000E+02  0.51100000000E-03 0. -1.
    9900012    2    1    2    0    0 -0.24019897330E+02  0.28939533417E+02 -0.15450306622E+02  0.50528880029E+02  0.30000061336E+02 0.  0.
        -12    1    1    2    0    0  0.24019897330E+02 -0.28939533417E+02  0.15450306622E+02  0.40659119971E+02  0.00000000000E+00 0.  1.
         11    1    3    3    0    0  0.15158742341E+01  0.10100306168E+02 -0.45411283667E+01  0.11177473171E+02  0.51100000000E-03 0. -1.
        -11    1    3    3    0    0 -0.58328298440E+01  0.17003647495E+02 -0.61468597091E+01  0.18998152980E+02  0.51100000000E-03 0.  1.
        -12    1    3    3    0    0 -0.19702941720E+02  0.18355797536E+01 -0.47623185459E+01  0.20353253878E+02  0.00000000000E+00 0.  1.
</event>
<event>
 7    1  0.5992960E-013  0.5052886E+02  0.7816164E-02  0.1300439E+00
        -11   -1    0    0    0    0  0.00000000000E+00  0.00000000000E+00  0.45593999997E+02  0.45594000000E+02  0.51100000000E-03 0.  1.
         11   -1    0    0    0    0 -0.00000000000E+00 -0.00000000000E+00 -0.45593999997E+02  0.45594000000E+02  0.51100000000E-03 0. -1.
    9900012    2    1    2    0    0 -0.37071632568E+02 -0.12337051974E+02 -0.11254181697E+02  0.50528863285E+02  0.30000010442E+02 0.  0.
        -12    1    1    2    0    0  0.37071632568E+02  0.12337051974E+02  0.11254181697E+02  0.40659136715E+02  0.00000000000E+00 0.  1.
         11    1    3    3    0    0 -0.68062065727E+01 -0.64445956705E+01 -0.10556907304E+02  0.14117561877E+02  0.51100000000E-03 0. -1.
        -11    1    3    3    0    0 -0.17437870786E+02 -0.71142866132E+01  0.84165263037E+01  0.20628386433E+02  0.51100000000E-03 0.  1.
         12    1    3    3    0    0 -0.12827555210E+02  0.12218303098E+01 -0.91138006970E+01  0.15782914975E+02  0.00000000000E+00 0. -1.
</event>
<event>
 7    1  0.5992960E-013  0.5052887E+02  0.7816164E-02  0.1300439E+00
        -11   -1    0    0    0    0  0.00000000000E+00  0.00000000000E+00  0.45593999997E+02  0.45594000000E+02  0.51100000000E-03 0.  1.
         11   -1    0    0    0    0 -0.00000000000E+00 -0.00000000000E+00 -0.45593999997E+02  0.45594000000E+02  0.51100000000E-03 0. -1.
    9900012    2    1    2    0    0  0.35606865445E+02 -0.17809161423E+02  0.82553100660E+01  0.50528865213E+02  0.30000016300E+02 0.  0.
        -12    1    1    2    0    0 -0.35606865445E+02  0.17809161423E+02 -0.82553100660E+01  0.40659134787E+02  0.00000000000E+00 0.  1.
         11    1    3    3    0    0  0.15215202317E+02 -0.24415159211E+01  0.13367962913E+02  0.20400142506E+02  0.51100000000E-03 0. -1.
        -11    1    3    3    0    0 -0.24093437370E+01 -0.11240445376E+01 -0.13519771690E+01  0.29826591981E+01  0.51100000000E-03 0.  1.
         12    1    3    3    0    0  0.22801006865E+02 -0.14243600964E+02 -0.37606756782E+01  0.27146063509E+02  0.00000000000E+00 0. -1.
</event>
<event>
 7    1  0.5992960E-013  0.5052886E+02  0.7816164E-02  0.1300439E+00
        -11   -1    0    0    0    0  0.00000000000E+00  0.00000000000E+00  0.45593999997E+02  0.45594000000E+02  0.51100000000E-03 0.  1.
         11   -1    0    0    0    0 -0.00000000000E+00 -0.00000000000E+00 -0.45593999997E+02  0.45594000000E+02  0.51100000000E-03 0. -1.
    9900012    2    1    2    0    0 -0.29831578981E+02  0.16106533583E+02 -0.22445982413E+02  0.50528860129E+02  0.30000000848E+02 0.  0.
        -12    1    1    2    0    0  0.29831578981E+02 -0.16106533583E+02  0.22445982413E+02  0.40659139871E+02  0.00000000000E+00 0.  1.
         11    1    3    3    0    0 -0.20273797278E+02  0.91578130801E+01 -0.13678048194E+01  0.22288187158E+02  0.51100000000E-03 0. -1.
        -11    1    3    3    0    0 -0.71020848079E+01 -0.18861366407E+01 -0.29366462429E+01  0.79133438863E+01  0.51100000000E-03 0.  1.
         12    1    3    3    0    0 -0.24556968954E+01  0.88348571439E+01 -0.18141531350E+02  0.20327329085E+02  0.00000000000E+00 0. -1.
</event>
<event>
 7    1  0.5992960E-013  0.5052884E+02  0.7816164E-02  0.1300439E+00
        -11   -1    0    0    0    0  0.00000000000E+00  0.00000000000E+00  0.45593999997E+02  0.45594000000E+02  0.51100000000E-03 0.  1.
         11   -1    0    0    0    0 -0.00000000000E+00 -0.00000000000E+00 -0.45593999997E+02  0.45594000000E+02  0.51100000000E-03 0. -1.
    9900012    2    1    2    0    0 -0.38088468497E+02 -0.34173263516E+01 -0.13811519866E+02  0.50528835807E+02  0.29999926920E+02 0.  0.
        -12    1    1    2    0    0  0.38088468497E+02  0.34173263516E+01  0.13811519866E+02  0.40659164193E+02  0.00000000000E+00 0.  1.
         11    1    3    3    0    0 -0.22621030921E+02  0.46760524489E+01 -0.15035397626E+02  0.27561561794E+02  0.51100000000E-03 0. -1.
        -11    1    3    3    0    0 -0.76470277421E+01 -0.39884237976E+01 -0.68398406431E+01  0.11007632714E+02  0.51100000000E-03 0.  1.
        -12    1    3    3    0    0 -0.78204098333E+01 -0.41049550030E+01  0.80637184034E+01  0.11959641300E+02  0.00000000000E+00 0.  1.
</event>
<event>
 7    1  0.5992960E-013  0.5052886E+02  0.7816164E-02  0.1300439E+00
        -11   -1    0    0    0    0  0.00000000000E+00  0.00000000000E+00  0.45593999997E+02  0.45594000000E+02  0.51100000000E-03 0. -1.
         11   -1    0    0    0    0 -0.00000000000E+00 -0.00000000000E+00 -0.45593999997E+02  0.45594000000E+02  0.51100000000E-03 0.  1.
    9900012    2    1    2    0    0  0.26596372863E+01  0.84419271274E+01  0.39684077109E+02  0.50528858591E+02  0.29999996173E+02 0.  0.
        -12    1    1    2    0    0 -0.26596372863E+01 -0.84419271274E+01 -0.39684077109E+02  0.40659141409E+02  0.00000000000E+00 0.  1.
         11    1    3    3    0    0  0.74771766139E+01  0.89035496018E+01  0.16803942255E+02  0.20434134217E+02  0.51100000000E-03 0. -1.
        -11    1    3    3    0    0 -0.30887817626E+01 -0.15968590748E+01 -0.27178648101E+01  0.44133118028E+01  0.51100000000E-03 0.  1.
        -12    1    3    3    0    0 -0.17287575650E+01  0.11352366005E+01  0.25597999664E+02  0.25681412571E+02  0.00000000000E+00 0.  1.
</event>
<event>
 7    1  0.5992960E-013  0.5052885E+02  0.7816164E-02  0.1300439E+00
        -11   -1    0    0    0    0  0.00000000000E+00  0.00000000000E+00  0.45593999997E+02  0.45594000000E+02  0.51100000000E-03 0.  1.
         11   -1    0    0    0    0 -0.00000000000E+00 -0.00000000000E+00 -0.45593999997E+02  0.45594000000E+02  0.51100000000E-03 0. -1.
    9900012    2    1    2    0    0  0.60121674573E+01 -0.22003793516E+02 -0.33657882856E+02  0.50528853859E+02  0.29999981789E+02 0.  0.
        -12    1    1    2    0    0 -0.60121674573E+01  0.22003793516E+02  0.33657882856E+02  0.40659146141E+02  0.00000000000E+00 0.  1.
         11    1    3    3    0    0 -0.22975644471E+01 -0.48246102391E+00 -0.72178027437E+00  0.24561225649E+01  0.51100000000E-03 0. -1.
        -11    1    3    3    0    0 -0.57168543703E+01 -0.13190160913E+02 -0.41124957299E+01  0.14952437601E+02  0.51100000000E-03 0.  1.
        -12    1    3    3    0    0  0.14026586275E+02 -0.83311715785E+01 -0.28823606851E+02  0.33120293693E+02  0.00000000000E+00 0.  1.
</event>
<event>
 7    1  0.5992960E-013  0.5052886E+02  0.7816164E-02  0.1300439E+00
        -11   -1    0    0    0    0  0.00000000000E+00  0.00000000000E+00  0.45593999997E+02  0.45594000000E+02  0.51100000000E-03 0.  1.
         11   -1    0    0    0    0 -0.00000000000E+00 -0.00000000000E+00 -0.45593999997E+02  0.45594000000E+02  0.51100000000E-03 0. -1.
    9900012    2    1    2    0    0  0.84684290190E+01 -0.23420630151E+01 -0.39698437897E+02  0.50528861781E+02  0.30000005869E+02 0.  0.
        -12    1    1    2    0    0 -0.84684290190E+01  0.23420630151E+01  0.39698437897E+02  0.40659138219E+02  0.00000000000E+00 0.  1.
         11    1    3    3    0    0 -0.40642943030E+01  0.38277234961E+01 -0.25203555884E+02  0.25814515002E+02  0.51100000000E-03 0. -1.
        -11    1    3    3    0    0  0.43922315440E+00 -0.25286878999E+01  0.24716248801E+01  0.35631600137E+01  0.51100000000E-03 0.  1.
        -12    1    3    3    0    0  0.12093500168E+02 -0.36410986113E+01 -0.16966506893E+02  0.21151186765E+02  0.00000000000E+00 0.  1.
</event>
<event>
 7    1  0.5992960E-013  0.5052886E+02  0.7816164E-02  0.1300439E+00
        -11   -1    0    0    0    0  0.00000000000E+00  0.00000000000E+00  0.45593999997E+02  0.45594000000E+02  0.51100000000E-03 0.  1.
         11   -1    0    0    0    0 -0.00000000000E+00 -0.00000000000E+00 -0.45593999997E+02  0.45594000000E+02  0.51100000000E-03 0. -1.
    9900012    2    1    2    0    0  0.26071829968E+02  0.31157417617E+02 -0.16250510992E+01  0.50528858573E+02  0.29999996119E+02 0.  0.
        -12    1    1    2    0    0 -0.26071829968E+02 -0.31157417617E+02  0.16250510992E+01  0.40659141427E+02  0.00000000000E+00 0.  1.
         11    1    3    3    0    0  0.24036263848E+02  0.32127034239E+02 -0.88732046848E+01  0.41092846949E+02  0.51100000000E-03 0. -1.
        -11    1    3    3    0    0  0.34728058084E+01  0.98769762827E+00  0.44758944054E+01  0.57506136870E+01  0.51100000000E-03 0.  1.
        -12    1    3    3    0    0 -0.14372396878E+01 -0.19573142498E+01  0.27722591802E+01  0.36853979371E+01  0.00000000000E+00 0.  1.
</event>
<event>
 7    1  0.5992960E-013  0.5052886E+02  0.7816164E-02  0.1300439E+00
        -11   -1    0    0    0    0  0.00000000000E+00  0.00000000000E+00  0.45593999997E+02  0.45594000000E+02  0.51100000000E-03 0.  1.
         11   -1    0    0    0    0 -0.00000000000E+00 -0.00000000000E+00 -0.45593999997E+02  0.45594000000E+02  0.51100000000E-03 0. -1.
    9900012    2    1    2    0    0  0.25666907081E+02 -0.27795727464E+02 -0.14892050358E+02  0.50528858983E+02  0.29999997365E+02 0.  0.
        -12    1    1    2    0    0 -0.25666907081E+02  0.27795727464E+02  0.14892050358E+02  0.40659141017E+02  0.00000000000E+00 0.  1.
         11    1    3    3    0    0  0.78565774874E+01 -0.14832028375E+02 -0.49981866478E+01  0.17512759507E+02  0.51100000000E-03 0. -1.
        -11    1    3    3    0    0 -0.47708590839E+00 -0.96257047290E+00  0.59251108870E+01  0.60217183730E+01  0.51100000000E-03 0.  1.
        -12    1    3    3    0    0  0.18287415502E+02 -0.12001128616E+02 -0.15818974597E+02  0.26994381103E+02  0.00000000000E+00 0.  1.
</event>
<event>
 7    1  0.5992960E-013  0.5052886E+02  0.7816164E-02  0.1300439E+00
        -11   -1    0    0    0    0  0.00000000000E+00  0.00000000000E+00  0.45593999997E+02  0.45594000000E+02  0.51100000000E-03 0.  1.
         11   -1    0    0    0    0 -0.00000000000E+00 -0.00000000000E+00 -0.45593999997E+02  0.45594000000E+02  0.51100000000E-03 0. -1.
    9900012    2    1    2    0    0  0.22262483572E+02 -0.31341279707E+02 -0.13239022291E+02  0.50528859580E+02  0.29999999180E+02 0.  0.
        -12    1    1    2    0    0 -0.22262483572E+02  0.31341279707E+02  0.13239022291E+02  0.40659140420E+02  0.00000000000E+00 0.  1.
         11    1    3    3    0    0 -0.48835241991E+01 -0.40368359725E+01 -0.34591503552E+01  0.72187654563E+01  0.51100000000E-03 0. -1.
        -11    1    3    3    0    0  0.14936162879E+01  0.10308430438E+01 -0.43382142984E+01  0.47025132170E+01  0.51100000000E-03 0.  1.
         12    1    3    3    0    0  0.25652391484E+02 -0.28335286778E+02 -0.54416576374E+01  0.38607580907E+02  0.00000000000E+00 0. -1.
</event>
<event>
 7    1  0.5992960E-013  0.5052887E+02  0.7816164E-02  0.1300439E+00
        -11   -1    0    0    0    0  0.00000000000E+00  0.00000000000E+00  0.45593999997E+02  0.45594000000E+02  0.51100000000E-03 0. -1.
         11   -1    0    0    0    0 -0.00000000000E+00 -0.00000000000E+00 -0.45593999997E+02  0.45594000000E+02  0.51100000000E-03 0.  1.
    9900012    2    1    2    0    0  0.48023127406E+01  0.37945690663E+02  0.13792289998E+02  0.50528869279E+02  0.30000028661E+02 0.  0.
        -12    1    1    2    0    0 -0.48023127406E+01 -0.37945690663E+02 -0.13792289998E+02  0.40659130721E+02  0.00000000000E+00 0.  1.
         11    1    3    3    0    0  0.34197179965E+01  0.48332830938E+01  0.96374124755E+01  0.11310827385E+02  0.51100000000E-03 0. -1.
        -11    1    3    3    0    0  0.72173430551E+01  0.25623949258E+01  0.25589659682E+01  0.80749127313E+01  0.51100000000E-03 0.  1.
        -12    1    3    3    0    0 -0.58347483110E+01  0.30550012644E+02  0.15959115543E+01  0.31143129163E+02  0.00000000000E+00 0.  1.
</event>
<event>
 7    1  0.5992960E-013  0.5052886E+02  0.7816164E-02  0.1300439E+00
        -11   -1    0    0    0    0  0.00000000000E+00  0.00000000000E+00  0.45593999997E+02  0.45594000000E+02  0.51100000000E-03 0. -1.
         11   -1    0    0    0    0 -0.00000000000E+00 -0.00000000000E+00 -0.45593999997E+02  0.45594000000E+02  0.51100000000E-03 0.  1.
    9900012    2    1    2    0    0 -0.29112259270E+01  0.40345465924E+02  0.41150774606E+01  0.50528859336E+02  0.29999998437E+02 0.  0.
        -12    1    1    2    0    0  0.29112259270E+01 -0.40345465924E+02 -0.41150774606E+01  0.40659140664E+02  0.00000000000E+00 0.  1.
         11    1    3    3    0    0  0.80458677327E+00  0.27450578896E+02  0.14840305376E+01  0.27502436046E+02  0.51100000000E-03 0. -1.
        -11    1    3    3    0    0 -0.21704624748E+01  0.12136073477E+02 -0.63597137828E+01  0.13872315829E+02  0.51100000000E-03 0.  1.
        -12    1    3    3    0    0 -0.15453502254E+01  0.75881355137E+00  0.89907607058E+01  0.91541074603E+01  0.00000000000E+00 0.  1.
</event>
<event>
 7    1  0.5992960E-013  0.5052886E+02  0.7816164E-02  0.1300439E+00
        -11   -1    0    0    0    0  0.00000000000E+00  0.00000000000E+00  0.45593999997E+02  0.45594000000E+02  0.51100000000E-03 0. -1.
         11   -1    0    0    0    0 -0.00000000000E+00 -0.00000000000E+00 -0.45593999997E+02  0.45594000000E+02  0.51100000000E-03 0.  1.
    9900012    2    1    2    0    0  0.37712861623E+02  0.11129903751E+01 -0.15154780551E+02  0.50528855236E+02  0.29999985976E+02 0.  0.
        -12    1    1    2    0    0 -0.37712861623E+02 -0.11129903751E+01  0.15154780551E+02  0.40659144764E+02  0.00000000000E+00 0.  1.
         11    1    3    3    0    0  0.21518140156E+02  0.60489193174E+01 -0.16734094292E+02  0.27922207877E+02  0.51100000000E-03 0. -1.
        -11    1    3    3    0    0  0.42659454836E+01  0.50221721716E+01  0.24822881103E+01  0.70414670853E+01  0.51100000000E-03 0.  1.
         12    1    3    3    0    0  0.11928775983E+02 -0.99581011139E+01 -0.90297436899E+00  0.15565180274E+02  0.00000000000E+00 0. -1.
</event>
<event>
 7    1  0.5992960E-013  0.5052886E+02  0.7816164E-02  0.1300439E+00
        -11   -1    0    0    0    0  0.00000000000E+00  0.00000000000E+00  0.45593999997E+02  0.45594000000E+02  0.51100000000E-03 0. -1.
         11   -1    0    0    0    0 -0.00000000000E+00 -0.00000000000E+00 -0.45593999997E+02  0.45594000000E+02  0.51100000000E-03 0.  1.
    9900012    2    1    2    0    0 -0.39345949205E+02 -0.93403790954E+01 -0.42212913166E+01  0.50528859566E+02  0.29999999136E+02 0.  0.
        -12    1    1    2    0    0  0.39345949205E+02  0.93403790954E+01  0.42212913166E+01  0.40659140434E+02  0.00000000000E+00 0.  1.
         11    1    3    3    0    0 -0.92203796042E+00 -0.47827376260E+01 -0.21660869125E+01  0.53307284655E+01  0.51100000000E-03 0.  1.
        -11    1    3    3    0    0 -0.16226970009E+02  0.93130650403E+01 -0.32807495341E+01  0.18995027083E+02  0.51100000000E-03 0. -1.
         12    1    3    3    0    0 -0.22196941236E+02 -0.13870706510E+02  0.12255451299E+01  0.26203104018E+02  0.00000000000E+00 0. -1.
</event>
<event>
 7    1  0.5992960E-013  0.5052885E+02  0.7816164E-02  0.1300439E+00
        -11   -1    0    0    0    0  0.00000000000E+00  0.00000000000E+00  0.45593999997E+02  0.45594000000E+02  0.51100000000E-03 0. -1.
         11   -1    0    0    0    0 -0.00000000000E+00 -0.00000000000E+00 -0.45593999997E+02  0.45594000000E+02  0.51100000000E-03 0.  1.
    9900012    2    1    2    0    0  0.33823140064E+02  0.60317030735E+01  0.21743516457E+02  0.50528846619E+02  0.29999959783E+02 0.  0.
        -12    1    1    2    0    0 -0.33823140064E+02 -0.60317030735E+01 -0.21743516457E+02  0.40659153381E+02  0.00000000000E+00 0.  1.
         11    1    3    3    0    0  0.13951195845E+02 -0.69672735231E+00  0.12602898954E+02  0.18813674730E+02  0.51100000000E-03 0. -1.
        -11    1    3    3    0    0  0.91156277945E+01  0.10961787649E+01  0.15495253913E+02  0.18011084700E+02  0.51100000000E-03 0.  1.
        -12    1    3    3    0    0  0.10756316424E+02  0.56322516609E+01 -0.63546364103E+01  0.13704087190E+02  0.00000000000E+00 0.  1.
</event>
<event>
 7    1  0.5992960E-013  0.5052886E+02  0.7816164E-02  0.1300439E+00
        -11   -1    0    0    0    0  0.00000000000E+00  0.00000000000E+00  0.45593999997E+02  0.45594000000E+02  0.51100000000E-03 0.  1.
         11   -1    0    0    0    0 -0.00000000000E+00 -0.00000000000E+00 -0.45593999997E+02  0.45594000000E+02  0.51100000000E-03 0. -1.
    9900012    2    1    2    0    0 -0.10657132229E+01  0.39886645596E+02  0.78157327895E+01  0.50528856863E+02  0.29999990921E+02 0.  0.
        -12    1    1    2    0    0  0.10657132229E+01 -0.39886645596E+02 -0.78157327895E+01  0.40659143137E+02  0.00000000000E+00 0.  1.
         11    1    3    3    0    0 -0.46422965979E-01  0.23916482277E+00  0.62913715495E+00  0.67466193392E+00  0.51100000000E-03 0. -1.
        -11    1    3    3    0    0 -0.13210423630E+02  0.11782259832E+02  0.80063703902E+01  0.19427786964E+02  0.51100000000E-03 0.  1.
         12    1    3    3    0    0  0.12191133373E+02  0.27865220941E+02 -0.81977475567E+00  0.30426407965E+02  0.00000000000E+00 0. -1.
</event>
<event>
 7    1  0.5992960E-013  0.5052883E+02  0.7816164E-02  0.1300439E+00
        -11   -1    0    0    0    0  0.00000000000E+00  0.00000000000E+00  0.45593999997E+02  0.45594000000E+02  0.51100000000E-03 0.  1.
         11   -1    0    0    0    0 -0.00000000000E+00 -0.00000000000E+00 -0.45593999997E+02  0.45594000000E+02  0.51100000000E-03 0. -1.
    9900012    2    1    2    0    0  0.20341285516E+02 -0.30279443358E+02 -0.17959823152E+02  0.50528833331E+02  0.29999919394E+02 0.  0.
        -12    1    1    2    0    0 -0.20341285516E+02  0.30279443358E+02  0.17959823152E+02  0.40659166669E+02  0.00000000000E+00 0.  1.
         11    1    3    3    0    0  0.31129924386E+01  0.16059906804E+01 -0.24466259535E+01  0.42726931561E+01  0.51100000000E-03 0. -1.
        -11    1    3    3    0    0  0.29615606132E+01  0.12384859211E+01  0.40962079167E+01  0.52041914070E+01  0.51100000000E-03 0.  1.
        -12    1    3    3    0    0  0.14266732464E+02 -0.33123919960E+02 -0.19609405115E+02  0.41051948768E+02  0.00000000000E+00 0.  1.
</event>
<event>
 7    1  0.5992960E-013  0.5052887E+02  0.7816164E-02  0.1300439E+00
        -11   -1    0    0    0    0  0.00000000000E+00  0.00000000000E+00  0.45593999997E+02  0.45594000000E+02  0.51100000000E-03 0.  1.
         11   -1    0    0    0    0 -0.00000000000E+00 -0.00000000000E+00 -0.45593999997E+02  0.45594000000E+02  0.51100000000E-03 0. -1.
    9900012    2    1    2    0    0 -0.38088638267E+02  0.12755501380E+02 -0.63022088413E+01  0.50528867978E+02  0.30000024706E+02 0.  0.
        -12    1    1    2    0    0  0.38088638267E+02 -0.12755501380E+02  0.63022088413E+01  0.40659132022E+02  0.00000000000E+00 0.  1.
         11    1    3    3    0    0  0.39214687856E+00  0.60474673898E+01 -0.77627089324E+01  0.98481110491E+01  0.51100000000E-03 0. -1.
        -11    1    3    3    0    0 -0.53958188693E+01  0.40055471693E+01 -0.26670571915E+01  0.72299698284E+01  0.51100000000E-03 0.  1.
         12    1    3    3    0    0 -0.33084966276E+02  0.27024868212E+01  0.41275572826E+01  0.33450787101E+02  0.00000000000E+00 0. -1.
</event>
<event>
 7    1  0.5992960E-013  0.5052886E+02  0.7816164E-02  0.1300439E+00
        -11   -1    0    0    0    0  0.00000000000E+00  0.00000000000E+00  0.45593999997E+02  0.45594000000E+02  0.51100000000E-03 0.  1.
         11   -1    0    0    0    0 -0.00000000000E+00 -0.00000000000E+00 -0.45593999997E+02  0.45594000000E+02  0.51100000000E-03 0. -1.
    9900012    2    1    2    0    0  0.50676030407E+01  0.39812074282E+02 -0.65179326947E+01  0.50528864424E+02  0.30000013903E+02 0.  0.
        -12    1    1    2    0    0 -0.50676030407E+01 -0.39812074282E+02  0.65179326947E+01  0.40659135576E+02  0.00000000000E+00 0.  1.
         11    1    3    3    0    0  0.46101863384E+01  0.54013687527E+00  0.72863397480E+00  0.46985608061E+01  0.51100000000E-03 0. -1.
        -11    1    3    3    0    0  0.10743555959E+02  0.17013827901E+02  0.46168908918E+00  0.20127282270E+02  0.51100000000E-03 0.  1.
        -12    1    3    3    0    0 -0.10286139257E+02  0.22258109506E+02 -0.77082557587E+01  0.25703021348E+02  0.00000000000E+00 0.  1.
</event>
<event>
 7    1  0.5992960E-013  0.5052885E+02  0.7816164E-02  0.1300439E+00
        -11   -1    0    0    0    0  0.00000000000E+00  0.00000000000E+00  0.45593999997E+02  0.45594000000E+02  0.51100000000E-03 0.  1.
         11   -1    0    0    0    0 -0.00000000000E+00 -0.00000000000E+00 -0.45593999997E+02  0.45594000000E+02  0.51100000000E-03 0. -1.
    9900012    2    1    2    0    0 -0.29836195895E+02  0.20199978033E+02 -0.18839558587E+02  0.50528847700E+02  0.29999963068E+02 0.  0.
        -12    1    1    2    0    0  0.29836195895E+02 -0.20199978033E+02  0.18839558587E+02  0.40659152300E+02  0.00000000000E+00 0.  1.
         11    1    3    3    0    0 -0.43510689493E-01  0.80531681728E+01 -0.43452951096E+01  0.91507923510E+01  0.51100000000E-03 0. -1.
        -11    1    3    3    0    0  0.61024255980E+00 -0.61278646405E+00 -0.76557822994E+01  0.77044731234E+01  0.51100000000E-03 0.  1.
         12    1    3    3    0    0 -0.30402927766E+02  0.12759596324E+02 -0.68384811781E+01  0.33673582225E+02  0.00000000000E+00 0. -1.
</event>
<event>
 7    1  0.5992960E-013  0.5052886E+02  0.7816164E-02  0.1300439E+00
        -11   -1    0    0    0    0  0.00000000000E+00  0.00000000000E+00  0.45593999997E+02  0.45594000000E+02  0.51100000000E-03 0.  1.
         11   -1    0    0    0    0 -0.00000000000E+00 -0.00000000000E+00 -0.45593999997E+02  0.45594000000E+02  0.51100000000E-03 0. -1.
    9900012    2    1    2    0    0  0.23174334281E+02  0.10857362245E+02 -0.31594835891E+02  0.50528859093E+02  0.29999997700E+02 0.  0.
        -12    1    1    2    0    0 -0.23174334281E+02 -0.10857362245E+02  0.31594835891E+02  0.40659140907E+02  0.00000000000E+00 0.  1.
         11    1    3    3    0    0  0.99800480280E+01  0.96910478105E+01 -0.41915543738E+01  0.14528829775E+02  0.51100000000E-03 0.  1.
        -11    1    3    3    0    0  0.15546257066E+02 -0.86067166941E+00 -0.28687153122E+02  0.32640153477E+02  0.51100000000E-03 0. -1.
         12    1    3    3    0    0 -0.23519708127E+01  0.20269861039E+01  0.12838716049E+01  0.33598758410E+01  0.00000000000E+00 0. -1.
</event>
<event>
 7    1  0.5992960E-013  0.5052886E+02  0.7816164E-02  0.1300439E+00
        -11   -1    0    0    0    0  0.00000000000E+00  0.00000000000E+00  0.45593999997E+02  0.45594000000E+02  0.51100000000E-03 0. -1.
         11   -1    0    0    0    0 -0.00000000000E+00 -0.00000000000E+00 -0.45593999997E+02  0.45594000000E+02  0.51100000000E-03 0.  1.
    9900012    2    1    2    0    0  0.29247193235E+02  0.19722492352E+02  0.20218564297E+02  0.50528863770E+02  0.30000011916E+02 0.  0.
        -12    1    1    2    0    0 -0.29247193235E+02 -0.19722492352E+02 -0.20218564297E+02  0.40659136230E+02  0.00000000000E+00 0.  1.
         11    1    3    3    0    0  0.22242803947E+01  0.11127993094E+02 -0.32799030500E+01  0.11812595728E+02  0.51100000000E-03 0. -1.
        -11    1    3    3    0    0  0.17482744319E+01 -0.11683483234E+01 -0.86972331815E+00  0.22755043848E+01  0.51100000000E-03 0.  1.
         12    1    3    3    0    0  0.25274638409E+02  0.97628475813E+01  0.24368190666E+02  0.36440763657E+02  0.00000000000E+00 0. -1.
</event>
<event>
 7    1  0.1080630E-012  0.5052892E+02  0.7816164E-02  0.1300439E+00
        -11   -1    0    0    0    0  0.00000000000E+00  0.00000000000E+00  0.45593999997E+02  0.45594000000E+02  0.51100000000E-03 0. -1.
         11   -1    0    0    0    0 -0.00000000000E+00 -0.00000000000E+00 -0.45593999997E+02  0.45594000000E+02  0.51100000000E-03 0.  1.
    9900012    2    1    2    0    0 -0.26171423694E+02 -0.29226464897E+02  0.10678524955E+02  0.50528922739E+02  0.30000191156E+02 0.  0.
        -12    1    1    2    0    0  0.26171423694E+02  0.29226464897E+02 -0.10678524955E+02  0.40659077261E+02  0.00000000000E+00 0.  1.
         11    1    3    3    0    0 -0.17100310820E+02 -0.13117577218E+02  0.68587448283E+00  0.21562974894E+02  0.51100000000E-03 0. -1.
        -11    1    3    3    0    0  0.23305805085E+01 -0.20141137856E+01 -0.47076485788E+01  0.56258524021E+01  0.51100000000E-03 0.  1.
         12    1    3    3    0    0 -0.11401693383E+02 -0.14094773892E+02  0.14700299051E+02  0.23340095443E+02  0.00000000000E+00 0. -1.
</event>
<event>
 7    1  0.5992960E-013  0.5052886E+02  0.7816164E-02  0.1300439E+00
        -11   -1    0    0    0    0  0.00000000000E+00  0.00000000000E+00  0.45593999997E+02  0.45594000000E+02  0.51100000000E-03 0. -1.
         11   -1    0    0    0    0 -0.00000000000E+00 -0.00000000000E+00 -0.45593999997E+02  0.45594000000E+02  0.51100000000E-03 0.  1.
    9900012    2    1    2    0    0  0.75831974713E+01  0.22309979517E+02  0.33134954580E+02  0.50528864680E+02  0.30000014681E+02 0.  0.
        -12    1    1    2    0    0 -0.75831974713E+01 -0.22309979517E+02 -0.33134954580E+02  0.40659135320E+02  0.00000000000E+00 0.  1.
         11    1    3    3    0    0  0.13480170407E+02  0.16146135824E+02  0.22875790589E+02  0.31075947155E+02  0.51100000000E-03 0. -1.
        -11    1    3    3    0    0  0.30292472837E+01  0.42002472756E+01 -0.65210357258E+00  0.52195455369E+01  0.51100000000E-03 0.  1.
        -12    1    3    3    0    0 -0.89262202195E+01  0.19635964175E+01  0.10911267564E+02  0.14233371988E+02  0.00000000000E+00 0.  1.
</event>
<event>
 7    1  0.5992960E-013  0.5052887E+02  0.7816164E-02  0.1300439E+00
        -11   -1    0    0    0    0  0.00000000000E+00  0.00000000000E+00  0.45593999997E+02  0.45594000000E+02  0.51100000000E-03 0.  1.
         11   -1    0    0    0    0 -0.00000000000E+00 -0.00000000000E+00 -0.45593999997E+02  0.45594000000E+02  0.51100000000E-03 0. -1.
    9900012    2    1    2    0    0  0.16187190812E+02  0.29647995004E+02  0.22630429984E+02  0.50528866765E+02  0.30000021020E+02 0.  0.
        -12    1    1    2    0    0 -0.16187190812E+02 -0.29647995004E+02 -0.22630429984E+02  0.40659133235E+02  0.00000000000E+00 0.  1.
         11    1    3    3    0    0  0.81462334611E+00  0.11286283298E+02  0.12760864886E+02  0.17055306353E+02  0.51100000000E-03 0. -1.
        -11    1    3    3    0    0  0.41890172435E+01  0.27190685191E+01  0.13059209105E+02  0.13981564354E+02  0.51100000000E-03 0.  1.
        -12    1    3    3    0    0  0.11183550222E+02  0.15642643187E+02 -0.31896440071E+01  0.19491996058E+02  0.00000000000E+00 0.  1.
</event>
<event>
 7    1  0.5992960E-013  0.5052889E+02  0.7816164E-02  0.1300439E+00
        -11   -1    0    0    0    0  0.00000000000E+00  0.00000000000E+00  0.45593999997E+02  0.45594000000E+02  0.51100000000E-03 0.  1.
         11   -1    0    0    0    0 -0.00000000000E+00 -0.00000000000E+00 -0.45593999997E+02  0.45594000000E+02  0.51100000000E-03 0. -1.
    9900012    2    1    2    0    0 -0.14719790719E+02  0.35929515862E+02 -0.12064858563E+02  0.50528890799E+02  0.30000094072E+02 0.  0.
        -12    1    1    2    0    0  0.14719790719E+02 -0.35929515862E+02  0.12064858563E+02  0.40659109201E+02  0.00000000000E+00 0.  1.
         11    1    3    3    0    0  0.30129798719E+01  0.20273160619E+02 -0.73297626311E+00  0.20508933265E+02  0.51100000000E-03 0. -1.
        -11    1    3    3    0    0 -0.84474698701E+01 -0.17174230508E+00  0.61657054249E-02  0.84492177687E+01  0.51100000000E-03 0.  1.
         12    1    3    3    0    0 -0.92853007206E+01  0.15828097548E+02 -0.11338048005E+02  0.21570739765E+02  0.00000000000E+00 0. -1.
</event>
<event>
 7    1  0.5992960E-013  0.5052884E+02  0.7816164E-02  0.1300439E+00
        -11   -1    0    0    0    0  0.00000000000E+00  0.00000000000E+00  0.45593999997E+02  0.45594000000E+02  0.51100000000E-03 0.  1.
         11   -1    0    0    0    0 -0.00000000000E+00 -0.00000000000E+00 -0.45593999997E+02  0.45594000000E+02  0.51100000000E-03 0. -1.
    9900012    2    1    2    0    0 -0.32602115174E+01 -0.38647902834E+01 -0.40343546960E+02  0.50528839109E+02  0.29999936956E+02 0.  0.
        -12    1    1    2    0    0  0.32602115174E+01  0.38647902834E+01  0.40343546960E+02  0.40659160891E+02  0.00000000000E+00 0.  1.
         11    1    3    3    0    0  0.30933462093E+01 -0.34428642883E-01 -0.65942347721E+01  0.72838114056E+01  0.51100000000E-03 0. -1.
        -11    1    3    3    0    0  0.59920652948E+01 -0.79834795920E+01 -0.26545395561E+02  0.28360162529E+02  0.51100000000E-03 0.  1.
        -12    1    3    3    0    0 -0.12345623022E+02  0.41531179516E+01 -0.72039166265E+01  0.14884865175E+02  0.00000000000E+00 0.  1.
</event>
<event>
 7    1  0.5992960E-013  0.5052892E+02  0.7816164E-02  0.1300439E+00
        -11   -1    0    0    0    0  0.00000000000E+00  0.00000000000E+00  0.45593999997E+02  0.45594000000E+02  0.51100000000E-03 0. -1.
         11   -1    0    0    0    0 -0.00000000000E+00 -0.00000000000E+00 -0.45593999997E+02  0.45594000000E+02  0.51100000000E-03 0.  1.
    9900012    2    1    2    0    0 -0.19457540221E+02 -0.15217637945E+02  0.32295335988E+02  0.50528916112E+02  0.30000171013E+02 0.  0.
        -12    1    1    2    0    0  0.19457540221E+02  0.15217637945E+02 -0.32295335988E+02  0.40659083888E+02  0.00000000000E+00 0.  1.
         11    1    3    3    0    0 -0.85647361966E-01 -0.34054274879E+01  0.54838105183E+01  0.64557300058E+01  0.51100000000E-03 0. -1.
        -11    1    3    3    0    0 -0.99421676149E+01 -0.19602046694E+02  0.21473920741E+02  0.30728101206E+02  0.51100000000E-03 0.  1.
        -12    1    3    3    0    0 -0.94297252436E+01  0.77898362361E+01  0.53376047287E+01  0.13345084900E+02  0.00000000000E+00 0.  1.
</event>
<event>
 7    1  0.5992960E-013  0.5052887E+02  0.7816164E-02  0.1300439E+00
        -11   -1    0    0    0    0  0.00000000000E+00  0.00000000000E+00  0.45593999997E+02  0.45594000000E+02  0.51100000000E-03 0. -1.
         11   -1    0    0    0    0 -0.00000000000E+00 -0.00000000000E+00 -0.45593999997E+02  0.45594000000E+02  0.51100000000E-03 0.  1.
    9900012    2    1    2    0    0  0.46935358333E+01  0.15083132167E+02  0.37465115455E+02  0.50528867808E+02  0.30000024189E+02 0.  0.
        -12    1    1    2    0    0 -0.46935358333E+01 -0.15083132167E+02 -0.37465115455E+02  0.40659132192E+02  0.00000000000E+00 0.  1.
         11    1    3    3    0    0  0.15099585753E+02  0.10933185724E+02  0.18781528595E+02  0.26462763586E+02  0.51100000000E-03 0. -1.
        -11    1    3    3    0    0  0.18912591964E+01  0.17040206020E+01  0.41806621397E+01  0.48947404167E+01  0.51100000000E-03 0.  1.
         12    1    3    3    0    0 -0.12297309116E+02  0.24459258408E+01  0.14502924721E+02  0.19171363805E+02  0.00000000000E+00 0. -1.
</event>
<event>
 7    1  0.5992960E-013  0.5052891E+02  0.7816164E-02  0.1300439E+00
        -11   -1    0    0    0    0  0.00000000000E+00  0.00000000000E+00  0.45593999997E+02  0.45594000000E+02  0.51100000000E-03 0.  1.
         11   -1    0    0    0    0 -0.00000000000E+00 -0.00000000000E+00 -0.45593999997E+02  0.45594000000E+02  0.51100000000E-03 0. -1.
    9900012    2    1    2    0    0 -0.39342603596E+02  0.12608836644E+01 -0.10184865693E+02  0.50528907849E+02  0.30000145898E+02 0.  0.
        -12    1    1    2    0    0  0.39342603596E+02 -0.12608836644E+01  0.10184865693E+02  0.40659092151E+02  0.00000000000E+00 0.  1.
         11    1    3    3    0    0 -0.32341132503E+02  0.26772508152E+01 -0.10991638002E+02  0.34262700269E+02  0.51100000000E-03 0. -1.
        -11    1    3    3    0    0 -0.73417367917E+01  0.51449223958E+01  0.28140928426E+01  0.93962995038E+01  0.51100000000E-03 0.  1.
        -12    1    3    3    0    0  0.34026569807E+00 -0.65612895466E+01 -0.20073205334E+01  0.68699080768E+01  0.00000000000E+00 0.  1.
</event>
<event>
 7    1  0.5992960E-013  0.5052886E+02  0.7816164E-02  0.1300439E+00
        -11   -1    0    0    0    0  0.00000000000E+00  0.00000000000E+00  0.45593999997E+02  0.45594000000E+02  0.51100000000E-03 0.  1.
         11   -1    0    0    0    0 -0.00000000000E+00 -0.00000000000E+00 -0.45593999997E+02  0.45594000000E+02  0.51100000000E-03 0. -1.
    9900012    2    1    2    0    0  0.16767355851E+02 -0.64839212790E+01 -0.36468891768E+02  0.50528861739E+02  0.30000005741E+02 0.  0.
        -12    1    1    2    0    0 -0.16767355851E+02  0.64839212790E+01  0.36468891768E+02  0.40659138261E+02  0.00000000000E+00 0.  1.
         11    1    3    3    0    0  0.69323702383E+01 -0.61018045152E+01 -0.16041201568E+02  0.18509725106E+02  0.51100000000E-03 0. -1.
        -11    1    3    3    0    0  0.12319053551E+02  0.32973247863E+01 -0.23418880567E+02  0.26665997045E+02  0.51100000000E-03 0.  1.
        -12    1    3    3    0    0 -0.24840679379E+01 -0.36794415501E+01  0.29911903672E+01  0.53531395884E+01  0.00000000000E+00 0.  1.
</event>
<event>
 7    1  0.5992960E-013  0.5052882E+02  0.7816164E-02  0.1300439E+00
        -11   -1    0    0    0    0  0.00000000000E+00  0.00000000000E+00  0.45593999997E+02  0.45594000000E+02  0.51100000000E-03 0. -1.
         11   -1    0    0    0    0 -0.00000000000E+00 -0.00000000000E+00 -0.45593999997E+02  0.45594000000E+02  0.51100000000E-03 0.  1.
    9900012    2    1    2    0    0 -0.39746399183E+00 -0.38256651894E+02  0.13763690481E+02  0.50528824314E+02  0.29999891985E+02 0.  0.
        -12    1    1    2    0    0  0.39746399183E+00  0.38256651894E+02 -0.13763690481E+02  0.40659175686E+02  0.00000000000E+00 0.  1.
         11    1    3    3    0    0 -0.44068985923E+01  0.23231064925E+01  0.60303341516E+00  0.50180901287E+01  0.51100000000E-03 0. -1.
        -11    1    3    3    0    0  0.83438305674E+01 -0.11811305446E+02  0.48733371883E+01  0.15260270655E+02  0.51100000000E-03 0.  1.
         12    1    3    3    0    0 -0.43343959669E+01 -0.28768452941E+02  0.82873198773E+01  0.30250463530E+02  0.00000000000E+00 0. -1.
</event>
<event>
 7    1  0.5992960E-013  0.5052886E+02  0.7816164E-02  0.1300439E+00
        -11   -1    0    0    0    0  0.00000000000E+00  0.00000000000E+00  0.45593999997E+02  0.45594000000E+02  0.51100000000E-03 0. -1.
         11   -1    0    0    0    0 -0.00000000000E+00 -0.00000000000E+00 -0.45593999997E+02  0.45594000000E+02  0.51100000000E-03 0.  1.
    9900012    2    1    2    0    0 -0.37833604545E+02 -0.14877634609E+02  0.66326676620E+00  0.50528861209E+02  0.30000004132E+02 0.  0.
        -12    1    1    2    0    0  0.37833604545E+02  0.14877634609E+02 -0.66326676620E+00  0.40659138791E+02  0.00000000000E+00 0.  1.
         11    1    3    3    0    0 -0.24025509726E+02 -0.19680045309E+01  0.10127499675E+01  0.24127242324E+02  0.51100000000E-03 0. -1.
        -11    1    3    3    0    0 -0.17768207266E+02 -0.95335881101E+01  0.27402451399E+01  0.20349629858E+02  0.51100000000E-03 0.  1.
        -12    1    3    3    0    0  0.39601124465E+01 -0.33760419676E+01 -0.30897283411E+01  0.60519890266E+01  0.00000000000E+00 0.  1.
</event>
<event>
 7    1  0.5992960E-013  0.5052886E+02  0.7816164E-02  0.1300439E+00
        -11   -1    0    0    0    0  0.00000000000E+00  0.00000000000E+00  0.45593999997E+02  0.45594000000E+02  0.51100000000E-03 0.  1.
         11   -1    0    0    0    0 -0.00000000000E+00 -0.00000000000E+00 -0.45593999997E+02  0.45594000000E+02  0.51100000000E-03 0. -1.
    9900012    2    1    2    0    0 -0.29676502075E+01  0.37551994608E+02 -0.15303800901E+02  0.50528861190E+02  0.30000004072E+02 0.  0.
        -12    1    1    2    0    0  0.29676502075E+01 -0.37551994608E+02  0.15303800901E+02  0.40659138810E+02  0.00000000000E+00 0.  1.
         11    1    3    3    0    0  0.80646261928E+01  0.11160182327E+02 -0.10704464111E+02  0.17440568149E+02  0.51100000000E-03 0. -1.
        -11    1    3    3    0    0  0.18102366475E+01  0.16331817042E+01 -0.45897007646E+01  0.51970753861E+01  0.51100000000E-03 0.  1.
         12    1    3    3    0    0 -0.12842513048E+02  0.24758630577E+02 -0.96360259749E-02  0.27891217655E+02  0.00000000000E+00 0. -1.
</event>
<event>
 7    1  0.5992960E-013  0.5052889E+02  0.7816164E-02  0.1300439E+00
        -11   -1    0    0    0    0  0.00000000000E+00  0.00000000000E+00  0.45593999997E+02  0.45594000000E+02  0.51100000000E-03 0. -1.
         11   -1    0    0    0    0 -0.00000000000E+00 -0.00000000000E+00 -0.45593999997E+02  0.45594000000E+02  0.51100000000E-03 0.  1.
    9900012    2    1    2    0    0 -0.12974474538E+02 -0.34909308830E+02  0.16314605851E+02  0.50528890362E+02  0.30000092744E+02 0.  0.
        -12    1    1    2    0    0  0.12974474538E+02  0.34909308830E+02 -0.16314605851E+02  0.40659109638E+02  0.00000000000E+00 0.  1.
         11    1    3    3    0    0 -0.10248504283E+02 -0.26132552105E+02  0.10541779798E+02  0.29984516690E+02  0.51100000000E-03 0. -1.
        -11    1    3    3    0    0  0.95620631306E+00 -0.76888770757E+01  0.11368707744E+02  0.13757931430E+02  0.51100000000E-03 0.  1.
        -12    1    3    3    0    0 -0.36821765679E+01 -0.10878796491E+01 -0.55958816910E+01  0.67864422423E+01  0.00000000000E+00 0.  1.
</event>
<event>
 7    1  0.5992960E-013  0.5052886E+02  0.7816164E-02  0.1300439E+00
        -11   -1    0    0    0    0  0.00000000000E+00  0.00000000000E+00  0.45593999997E+02  0.45594000000E+02  0.51100000000E-03 0.  1.
         11   -1    0    0    0    0 -0.00000000000E+00 -0.00000000000E+00 -0.45593999997E+02  0.45594000000E+02  0.51100000000E-03 0. -1.
    9900012    2    1    2    0    0  0.78226250090E+01  0.35777879815E+02 -0.17661129839E+02  0.50528860151E+02  0.30000000914E+02 0.  0.
        -12    1    1    2    0    0 -0.78226250090E+01 -0.35777879815E+02  0.17661129839E+02  0.40659139849E+02  0.00000000000E+00 0.  1.
         11    1    3    3    0    0  0.38225335541E+01  0.14484578103E+02  0.46976206645E+01  0.15699758144E+02  0.51100000000E-03 0. -1.
        -11    1    3    3    0    0  0.45076344221E+01  0.26004468848E+01  0.57761221530E+00  0.52359075828E+01  0.51100000000E-03 0.  1.
        -12    1    3    3    0    0 -0.50754296718E+00  0.18692854827E+02 -0.22936362719E+02  0.29593194424E+02  0.00000000000E+00 0.  1.
</event>
<event>
 7    1  0.5992960E-013  0.5052882E+02  0.7816164E-02  0.1300439E+00
        -11   -1    0    0    0    0  0.00000000000E+00  0.00000000000E+00  0.45593999997E+02  0.45594000000E+02  0.51100000000E-03 0. -1.
         11   -1    0    0    0    0 -0.00000000000E+00 -0.00000000000E+00 -0.45593999997E+02  0.45594000000E+02  0.51100000000E-03 0.  1.
    9900012    2    1    2    0    0  0.35012570407E+02 -0.20241787346E+02  0.41903435570E+01  0.50528818742E+02  0.29999875047E+02 0.  0.
        -12    1    1    2    0    0 -0.35012570407E+02  0.20241787346E+02 -0.41903435570E+01  0.40659181258E+02  0.00000000000E+00 0.  1.
         11    1    3    3    0    0  0.14852868682E+02  0.13990273601E+01  0.71677898562E+01  0.16551199272E+02  0.51100000000E-03 0. -1.
        -11    1    3    3    0    0 -0.22163721494E+01 -0.16437689282E+00 -0.19324085600E+01  0.29450854608E+01  0.51100000000E-03 0.  1.
        -12    1    3    3    0    0  0.22376073874E+02 -0.21476437814E+02 -0.10450377392E+01  0.31032534009E+02  0.00000000000E+00 0.  1.
</event>
<event>
 7    1  0.5992960E-013  0.5052886E+02  0.7816164E-02  0.1300439E+00
        -11   -1    0    0    0    0  0.00000000000E+00  0.00000000000E+00  0.45593999997E+02  0.45594000000E+02  0.51100000000E-03 0.  1.
         11   -1    0    0    0    0 -0.00000000000E+00 -0.00000000000E+00 -0.45593999997E+02  0.45594000000E+02  0.51100000000E-03 0. -1.
    9900012    2    1    2    0    0  0.92170538832E+01 -0.11340727944E+02 -0.37942054753E+02  0.50528859436E+02  0.29999998741E+02 0.  0.
        -12    1    1    2    0    0 -0.92170538832E+01  0.11340727944E+02  0.37942054753E+02  0.40659140564E+02  0.00000000000E+00 0.  1.
         11    1    3    3    0    0  0.14209073408E+02 -0.36137192199E+01 -0.97847949124E+01  0.17626654403E+02  0.51100000000E-03 0. -1.
        -11    1    3    3    0    0  0.41610837268E+01  0.70632781853E+00 -0.44918802638E+01  0.61636438358E+01  0.51100000000E-03 0.  1.
         12    1    3    3    0    0 -0.91531032517E+01 -0.84333365422E+01 -0.23665379576E+02  0.26738561197E+02  0.00000000000E+00 0. -1.
</event>
<event>
 7    1  0.5992960E-013  0.5052886E+02  0.7816164E-02  0.1300439E+00
        -11   -1    0    0    0    0  0.00000000000E+00  0.00000000000E+00  0.45593999997E+02  0.45594000000E+02  0.51100000000E-03 0.  1.
         11   -1    0    0    0    0 -0.00000000000E+00 -0.00000000000E+00 -0.45593999997E+02  0.45594000000E+02  0.51100000000E-03 0. -1.
    9900012    2    1    2    0    0  0.78160199992E+01 -0.39038834310E+02  0.82489242410E+01  0.50528861986E+02  0.30000006492E+02 0.  0.
        -12    1    1    2    0    0 -0.78160199992E+01  0.39038834310E+02 -0.82489242410E+01  0.40659138014E+02  0.00000000000E+00 0.  1.
         11    1    3    3    0    0 -0.83788488655E+00 -0.45175034984E+00 -0.49025641205E+01  0.49941230140E+01  0.51100000000E-03 0. -1.
        -11    1    3    3    0    0 -0.52512420734E+01 -0.16826477384E+02  0.71552451513E+01  0.19023759300E+02  0.51100000000E-03 0.  1.
         12    1    3    3    0    0  0.13905146959E+02 -0.21760606577E+02  0.59962432103E+01  0.26510979672E+02  0.00000000000E+00 0. -1.
</event>
<event>
 7    1  0.5992960E-013  0.5052885E+02  0.7816164E-02  0.1300439E+00
        -11   -1    0    0    0    0  0.00000000000E+00  0.00000000000E+00  0.45593999997E+02  0.45594000000E+02  0.51100000000E-03 0.  1.
         11   -1    0    0    0    0 -0.00000000000E+00 -0.00000000000E+00 -0.45593999997E+02  0.45594000000E+02  0.51100000000E-03 0. -1.
    9900012    2    1    2    0    0 -0.33009495917E+02  0.37000737760E+01 -0.23448861666E+02  0.50528849983E+02  0.29999970009E+02 0.  0.
        -12    1    1    2    0    0  0.33009495917E+02 -0.37000737760E+01  0.23448861666E+02  0.40659150017E+02  0.00000000000E+00 0.  1.
         11    1    3    3    0    0 -0.12408615252E+02  0.46586630462E+01 -0.17480741990E+02  0.21937484237E+02  0.51100000000E-03 0. -1.
        -11    1    3    3    0    0 -0.24321694335E+01 -0.79192102745E+01 -0.34449797196E+01  0.89720245795E+01  0.51100000000E-03 0.  1.
         12    1    3    3    0    0 -0.18168711232E+02  0.69606210043E+01 -0.25231399565E+01  0.19619341167E+02  0.00000000000E+00 0. -1.
</event>
<event>
 7    1  0.5992960E-013  0.5052886E+02  0.7816164E-02  0.1300439E+00
        -11   -1    0    0    0    0  0.00000000000E+00  0.00000000000E+00  0.45593999997E+02  0.45594000000E+02  0.51100000000E-03 0. -1.
         11   -1    0    0    0    0 -0.00000000000E+00 -0.00000000000E+00 -0.45593999997E+02  0.45594000000E+02  0.51100000000E-03 0.  1.
    9900012    2    1    2    0    0 -0.13917769772E+02  0.15433447131E+02  0.34946673531E+02  0.50528860847E+02  0.30000003031E+02 0.  0.
        -12    1    1    2    0    0  0.13917769772E+02 -0.15433447131E+02 -0.34946673531E+02  0.40659139153E+02  0.00000000000E+00 0.  1.
         11    1    3    3    0    0 -0.62206357719E+00 -0.25519595086E+01  0.12377951133E+02  0.12653581902E+02  0.51100000000E-03 0. -1.
        -11    1    3    3    0    0 -0.82276923039E+01 -0.16382531121E+01  0.12977260666E+02  0.15452769608E+02  0.51100000000E-03 0.  1.
         12    1    3    3    0    0 -0.50680138909E+01  0.19623659752E+02  0.95914617321E+01  0.22422509338E+02  0.00000000000E+00 0. -1.
</event>
<event>
 7    1  0.5992960E-013  0.5052886E+02  0.7816164E-02  0.1300439E+00
        -11   -1    0    0    0    0  0.00000000000E+00  0.00000000000E+00  0.45593999997E+02  0.45594000000E+02  0.51100000000E-03 0.  1.
         11   -1    0    0    0    0 -0.00000000000E+00 -0.00000000000E+00 -0.45593999997E+02  0.45594000000E+02  0.51100000000E-03 0. -1.
    9900012    2    1    2    0    0  0.17037037722E+02 -0.28443292172E+02 -0.23534751404E+02  0.50528855302E+02  0.29999986176E+02 0.  0.
        -12    1    1    2    0    0 -0.17037037722E+02  0.28443292172E+02  0.23534751404E+02  0.40659144698E+02  0.00000000000E+00 0.  1.
         11    1    3    3    0    0 -0.29074964892E+01 -0.43043701302E+01 -0.14185329974E+01  0.53845495799E+01  0.51100000000E-03 0. -1.
        -11    1    3    3    0    0  0.45589164726E+01 -0.18148404497E+02 -0.15582445004E+01  0.18777018703E+02  0.51100000000E-03 0.  1.
         12    1    3    3    0    0  0.15385617738E+02 -0.59905175454E+01 -0.20557973906E+02  0.26367287020E+02  0.00000000000E+00 0. -1.
</event>
<event>
 7    1  0.5992960E-013  0.5052887E+02  0.7816164E-02  0.1300439E+00
        -11   -1    0    0    0    0  0.00000000000E+00  0.00000000000E+00  0.45593999997E+02  0.45594000000E+02  0.51100000000E-03 0. -1.
         11   -1    0    0    0    0 -0.00000000000E+00 -0.00000000000E+00 -0.45593999997E+02  0.45594000000E+02  0.51100000000E-03 0.  1.
    9900012    2    1    2    0    0 -0.31456927587E+02  0.24154497769E+02  0.89547164740E+01  0.50528868150E+02  0.30000025229E+02 0.  0.
        -12    1    1    2    0    0  0.31456927587E+02 -0.24154497769E+02 -0.89547164740E+01  0.40659131850E+02  0.00000000000E+00 0.  1.
         11    1    3    3    0    0 -0.49459421184E+01 -0.23647607496E+01  0.63930142163E+01  0.84217021957E+01  0.51100000000E-03 0.  1.
        -11    1    3    3    0    0 -0.21421907598E+01  0.10796421841E+02 -0.50708675111E+01  0.12118803712E+02  0.51100000000E-03 0. -1.
         12    1    3    3    0    0 -0.24368794709E+02  0.15722836677E+02  0.76325697689E+01  0.29988362243E+02  0.00000000000E+00 0. -1.
</event>
<event>
 7    1  0.5992960E-013  0.5052892E+02  0.7816164E-02  0.1300439E+00
        -11   -1    0    0    0    0  0.00000000000E+00  0.00000000000E+00  0.45593999997E+02  0.45594000000E+02  0.51100000000E-03 0.  1.
         11   -1    0    0    0    0 -0.00000000000E+00 -0.00000000000E+00 -0.45593999997E+02  0.45594000000E+02  0.51100000000E-03 0. -1.
    9900012    2    1    2    0    0 -0.47044507733E+01 -0.24907818600E+02 -0.31790398229E+02  0.50528921013E+02  0.30000185911E+02 0.  0.
        -12    1    1    2    0    0  0.47044507733E+01  0.24907818600E+02  0.31790398229E+02  0.40659078987E+02  0.00000000000E+00 0.  1.
         11    1    3    3    0    0 -0.62280182490E+01 -0.37888603649E+00 -0.73631546361E+01  0.96513114339E+01  0.51100000000E-03 0.  1.
        -11    1    3    3    0    0 -0.52307688941E+01 -0.36612343196E+01 -0.16267133833E+02  0.17475274630E+02  0.51100000000E-03 0. -1.
         12    1    3    3    0    0  0.67543363697E+01 -0.20867698244E+02 -0.81601097594E+01  0.23402334950E+02  0.00000000000E+00 0. -1.
</event>
<event>
 7    1  0.5992960E-013  0.5052886E+02  0.7816164E-02  0.1300439E+00
        -11   -1    0    0    0    0  0.00000000000E+00  0.00000000000E+00  0.45593999997E+02  0.45594000000E+02  0.51100000000E-03 0.  1.
         11   -1    0    0    0    0 -0.00000000000E+00 -0.00000000000E+00 -0.45593999997E+02  0.45594000000E+02  0.51100000000E-03 0. -1.
    9900012    2    1    2    0    0 -0.12282562474E+01  0.21612045235E+02 -0.34417679218E+02  0.50528858894E+02  0.29999997095E+02 0.  0.
        -12    1    1    2    0    0  0.12282562474E+01 -0.21612045235E+02  0.34417679218E+02  0.40659141106E+02  0.00000000000E+00 0.  1.
         11    1    3    3    0    0  0.93495522957E+00 -0.26479270161E+00 -0.18747075336E+02  0.18772242550E+02  0.51100000000E-03 0. -1.
        -11    1    3    3    0    0 -0.59995493758E+01  0.11137397941E+01 -0.59111612376E+01  0.84956951734E+01  0.51100000000E-03 0.  1.
        -12    1    3    3    0    0  0.38363378988E+01  0.20763098143E+02 -0.97594426451E+01  0.23260921171E+02  0.00000000000E+00 0.  1.
</event>
<event>
 7    1  0.5992960E-013  0.5052886E+02  0.7816164E-02  0.1300439E+00
        -11   -1    0    0    0    0  0.00000000000E+00  0.00000000000E+00  0.45593999997E+02  0.45594000000E+02  0.51100000000E-03 0.  1.
         11   -1    0    0    0    0 -0.00000000000E+00 -0.00000000000E+00 -0.45593999997E+02  0.45594000000E+02  0.51100000000E-03 0. -1.
    9900012    2    1    2    0    0  0.25940577461E+02 -0.28103502166E+02 -0.13800204976E+02  0.50528855268E+02  0.29999986071E+02 0.  0.
        -12    1    1    2    0    0 -0.25940577461E+02  0.28103502166E+02  0.13800204976E+02  0.40659144732E+02  0.00000000000E+00 0.  1.
         11    1    3    3    0    0 -0.74927915552E+00 -0.12697459990E+01  0.28717634995E+01  0.32281109047E+01  0.51100000000E-03 0. -1.
        -11    1    3    3    0    0  0.28267517123E+01 -0.18623725025E+02 -0.49576877223E+01  0.19478509359E+02  0.51100000000E-03 0.  1.
         12    1    3    3    0    0  0.23863104904E+02 -0.82100311417E+01 -0.11714280754E+02  0.27822235004E+02  0.00000000000E+00 0. -1.
</event>
<event>
 7    1  0.5992960E-013  0.5052884E+02  0.7816164E-02  0.1300439E+00
        -11   -1    0    0    0    0  0.00000000000E+00  0.00000000000E+00  0.45593999997E+02  0.45594000000E+02  0.51100000000E-03 0. -1.
         11   -1    0    0    0    0 -0.00000000000E+00 -0.00000000000E+00 -0.45593999997E+02  0.45594000000E+02  0.51100000000E-03 0.  1.
    9900012    2    1    2    0    0  0.10824772330E+02 -0.20522014019E+02  0.33389198157E+02  0.50528839790E+02  0.29999939025E+02 0.  0.
        -12    1    1    2    0    0 -0.10824772330E+02  0.20522014019E+02 -0.33389198157E+02  0.40659160210E+02  0.00000000000E+00 0.  1.
         11    1    3    3    0    0  0.75185062353E+01 -0.13475406526E+02  0.27849605517E+01  0.15680259009E+02  0.51100000000E-03 0. -1.
        -11    1    3    3    0    0  0.11196044858E+01 -0.57888099571E+01  0.21394719165E+01  0.62722544006E+01  0.51100000000E-03 0.  1.
         12    1    3    3    0    0  0.21866616091E+01 -0.12577975356E+01  0.28464765689E+02  0.28576326380E+02  0.00000000000E+00 0. -1.
</event>
<event>
 7    1  0.5992960E-013  0.5052886E+02  0.7816164E-02  0.1300439E+00
        -11   -1    0    0    0    0  0.00000000000E+00  0.00000000000E+00  0.45593999997E+02  0.45594000000E+02  0.51100000000E-03 0. -1.
         11   -1    0    0    0    0 -0.00000000000E+00 -0.00000000000E+00 -0.45593999997E+02  0.45594000000E+02  0.51100000000E-03 0.  1.
    9900012    2    1    2    0    0 -0.32344119528E+02 -0.44457382876E+01  0.24233423518E+02  0.50528862376E+02  0.30000007677E+02 0.  0.
        -12    1    1    2    0    0  0.32344119528E+02  0.44457382876E+01 -0.24233423518E+02  0.40659137624E+02  0.00000000000E+00 0.  1.
         11    1    3    3    0    0  0.22939174674E+01 -0.49061702075E+00  0.68780763209E+01  0.72670968443E+01  0.51100000000E-03 0.  1.
        -11    1    3    3    0    0 -0.53779478683E+01 -0.70157731841E+01  0.91423381367E+01  0.12717143685E+02  0.51100000000E-03 0. -1.
         12    1    3    3    0    0 -0.29260089127E+02  0.30606519172E+01  0.82130090604E+01  0.30544621846E+02  0.00000000000E+00 0. -1.
</event>
<event>
 7    1  0.5992960E-013  0.5052886E+02  0.7816164E-02  0.1300439E+00
        -11   -1    0    0    0    0  0.00000000000E+00  0.00000000000E+00  0.45593999997E+02  0.45594000000E+02  0.51100000000E-03 0. -1.
         11   -1    0    0    0    0 -0.00000000000E+00 -0.00000000000E+00 -0.45593999997E+02  0.45594000000E+02  0.51100000000E-03 0.  1.
    9900012    2    1    2    0    0 -0.63692787792E+00  0.23105135618E+02  0.33450153920E+02  0.50528858760E+02  0.29999996688E+02 0.  0.
        -12    1    1    2    0    0  0.63692787792E+00 -0.23105135618E+02 -0.33450153920E+02  0.40659141240E+02  0.00000000000E+00 0.  1.
         11    1    3    3    0    0 -0.78671505649E+00  0.14329640152E+02  0.70414004853E+01  0.15985581895E+02  0.51100000000E-03 0. -1.
        -11    1    3    3    0    0 -0.26302148807E+01  0.45302461365E+01 -0.20576879262E+01  0.56280760690E+01  0.51100000000E-03 0.  1.
         12    1    3    3    0    0  0.27800020593E+01  0.42452493296E+01  0.28466441361E+02  0.28915200796E+02  0.00000000000E+00 0. -1.
</event>
<event>
 7    1  0.5992960E-013  0.5052886E+02  0.7816164E-02  0.1300439E+00
        -11   -1    0    0    0    0  0.00000000000E+00  0.00000000000E+00  0.45593999997E+02  0.45594000000E+02  0.51100000000E-03 0.  1.
         11   -1    0    0    0    0 -0.00000000000E+00 -0.00000000000E+00 -0.45593999997E+02  0.45594000000E+02  0.51100000000E-03 0. -1.
    9900012    2    1    2    0    0 -0.89922675458E+01  0.11631148598E+01 -0.39635240301E+02  0.50528856065E+02  0.29999988496E+02 0.  0.
        -12    1    1    2    0    0  0.89922675458E+01 -0.11631148598E+01  0.39635240301E+02  0.40659143935E+02  0.00000000000E+00 0.  1.
         11    1    3    3    0    0 -0.21755695863E+01 -0.75670044774E+01 -0.17940557879E+02  0.19592250434E+02  0.51100000000E-03 0. -1.
        -11    1    3    3    0    0  0.14745315051E+01 -0.51423599349E+01 -0.86363470236E+01  0.10158966435E+02  0.51100000000E-03 0.  1.
        -12    1    3    3    0    0 -0.82912294647E+01  0.13872479272E+02 -0.13058335398E+02  0.20777639196E+02  0.00000000000E+00 0.  1.
</event>
<event>
 7    1  0.5992960E-013  0.5052887E+02  0.7816164E-02  0.1300439E+00
        -11   -1    0    0    0    0  0.00000000000E+00  0.00000000000E+00  0.45593999997E+02  0.45594000000E+02  0.51100000000E-03 0. -1.
         11   -1    0    0    0    0 -0.00000000000E+00 -0.00000000000E+00 -0.45593999997E+02  0.45594000000E+02  0.51100000000E-03 0.  1.
    9900012    2    1    2    0    0 -0.15043721730E+02 -0.20105217210E+02  0.31978614496E+02  0.50528866861E+02  0.30000021310E+02 0.  0.
        -12    1    1    2    0    0  0.15043721730E+02  0.20105217210E+02 -0.31978614496E+02  0.40659133139E+02  0.00000000000E+00 0.  1.
         11    1    3    3    0    0 -0.67476450775E+01 -0.52158613542E+01  0.76006086046E+01  0.11423886168E+02  0.51100000000E-03 0. -1.
        -11    1    3    3    0    0 -0.21674011340E+01 -0.20553958190E+02  0.22497909115E+02  0.30550265788E+02  0.51100000000E-03 0.  1.
         12    1    3    3    0    0 -0.61286755184E+01  0.56646023335E+01  0.18800967765E+01  0.85547149044E+01  0.00000000000E+00 0. -1.
</event>
<event>
 7    1  0.5992960E-013  0.5052886E+02  0.7816164E-02  0.1300439E+00
        -11   -1    0    0    0    0  0.00000000000E+00  0.00000000000E+00  0.45593999997E+02  0.45594000000E+02  0.51100000000E-03 0. -1.
         11   -1    0    0    0    0 -0.00000000000E+00 -0.00000000000E+00 -0.45593999997E+02  0.45594000000E+02  0.51100000000E-03 0.  1.
    9900012    2    1    2    0    0 -0.27040928438E+02  0.17397546638E+02  0.24885327318E+02  0.50528856434E+02  0.29999989616E+02 0.  0.
        -12    1    1    2    0    0  0.27040928438E+02 -0.17397546638E+02 -0.24885327318E+02  0.40659143566E+02  0.00000000000E+00 0.  1.
         11    1    3    3    0    0 -0.27587292112E+01  0.10658512379E+02  0.60093466947E+01  0.12542994896E+02  0.51100000000E-03 0. -1.
        -11    1    3    3    0    0 -0.78440519458E+01  0.11072575647E+02  0.15595498394E+02  0.20672461218E+02  0.51100000000E-03 0.  1.
        -12    1    3    3    0    0 -0.16438147281E+02 -0.43335413877E+01  0.32804822291E+01  0.17313400320E+02  0.00000000000E+00 0.  1.
</event>
<event>
 7    1  0.5992960E-013  0.5052886E+02  0.7816164E-02  0.1300439E+00
        -11   -1    0    0    0    0  0.00000000000E+00  0.00000000000E+00  0.45593999997E+02  0.45594000000E+02  0.51100000000E-03 0.  1.
         11   -1    0    0    0    0 -0.00000000000E+00 -0.00000000000E+00 -0.45593999997E+02  0.45594000000E+02  0.51100000000E-03 0. -1.
    9900012    2    1    2    0    0  0.86865389476E+01  0.39705409513E+02 -0.10911168191E+01  0.50528855403E+02  0.29999986482E+02 0.  0.
        -12    1    1    2    0    0 -0.86865389476E+01 -0.39705409513E+02  0.10911168191E+01  0.40659144597E+02  0.00000000000E+00 0.  1.
         11    1    3    3    0    0  0.34550368665E+01  0.47852121913E+01 -0.95682286961E+01  0.11242176662E+02  0.51100000000E-03 0. -1.
        -11    1    3    3    0    0  0.11136777344E+01  0.60763201209E+01  0.80501009299E+01  0.10147219794E+02  0.51100000000E-03 0.  1.
         12    1    3    3    0    0  0.41178243467E+01  0.28843877201E+02  0.42701094709E+00  0.29139458946E+02  0.00000000000E+00 0. -1.
</event>
<event>
 7    1  0.5992960E-013  0.5052894E+02  0.7816164E-02  0.1300439E+00
        -11   -1    0    0    0    0  0.00000000000E+00  0.00000000000E+00  0.45593999997E+02  0.45594000000E+02  0.51100000000E-03 0. -1.
         11   -1    0    0    0    0 -0.00000000000E+00 -0.00000000000E+00 -0.45593999997E+02  0.45594000000E+02  0.51100000000E-03 0.  1.
    9900012    2    1    2    0    0 -0.48064317263E+01 -0.13094644363E+02  0.38191458564E+02  0.50528941918E+02  0.30000249452E+02 0.  0.
        -12    1    1    2    0    0  0.48064317263E+01  0.13094644363E+02 -0.38191458564E+02  0.40659058082E+02  0.00000000000E+00 0.  1.
         11    1    3    3    0    0 -0.24407056728E+01 -0.10767975332E+01  0.14505059892E+02  0.14748332103E+02  0.51100000000E-03 0.  1.
        -11    1    3    3    0    0 -0.19696028066E+01 -0.14821529469E+02  0.27338103655E+02  0.31159733355E+02  0.51100000000E-03 0. -1.
        -12    1    3    3    0    0 -0.39612324687E+00  0.28036826397E+01 -0.36517049831E+01  0.46208764596E+01  0.00000000000E+00 0.  1.
</event>
<event>
 7    1  0.5992960E-013  0.5052885E+02  0.7816164E-02  0.1300439E+00
        -11   -1    0    0    0    0  0.00000000000E+00  0.00000000000E+00  0.45593999997E+02  0.45594000000E+02  0.51100000000E-03 0. -1.
         11   -1    0    0    0    0 -0.00000000000E+00 -0.00000000000E+00 -0.45593999997E+02  0.45594000000E+02  0.51100000000E-03 0.  1.
    9900012    2    1    2    0    0  0.36943104351E+02 -0.75446830968E+01 -0.15213523177E+02  0.50528849866E+02  0.29999969653E+02 0.  0.
        -12    1    1    2    0    0 -0.36943104351E+02  0.75446830968E+01  0.15213523177E+02  0.40659150134E+02  0.00000000000E+00 0.  1.
         11    1    3    3    0    0  0.14531053635E+02 -0.11468831451E+02 -0.12861171455E+02  0.22540970388E+02  0.51100000000E-03 0. -1.
        -11    1    3    3    0    0 -0.82540794595E-01 -0.34603432739E+01 -0.25701594925E+01  0.43112073290E+01  0.51100000000E-03 0.  1.
        -12    1    3    3    0    0  0.22494591510E+02  0.73844916276E+01  0.21780776977E+00  0.23676672149E+02  0.00000000000E+00 0.  1.
</event>
<event>
 7    1  0.5992960E-013  0.5052886E+02  0.7816164E-02  0.1300439E+00
        -11   -1    0    0    0    0  0.00000000000E+00  0.00000000000E+00  0.45593999997E+02  0.45594000000E+02  0.51100000000E-03 0.  1.
         11   -1    0    0    0    0 -0.00000000000E+00 -0.00000000000E+00 -0.45593999997E+02  0.45594000000E+02  0.51100000000E-03 0. -1.
    9900012    2    1    2    0    0  0.18243051228E+02 -0.56806021371E+01 -0.35889937691E+02  0.50528858516E+02  0.29999995946E+02 0.  0.
        -12    1    1    2    0    0 -0.18243051228E+02  0.56806021371E+01  0.35889937691E+02  0.40659141484E+02  0.00000000000E+00 0.  1.
         11    1    3    3    0    0 -0.26225747357E+01 -0.83694544934E+01 -0.94673375460E+01  0.12905663378E+02  0.51100000000E-03 0.  1.
        -11    1    3    3    0    0 -0.17065398195E+01  0.20883408024E+01  0.21195792683E+00  0.27052489509E+01  0.51100000000E-03 0. -1.
         12    1    3    3    0    0  0.22572165783E+02  0.60051155384E+00 -0.26634558071E+02  0.34917946187E+02  0.00000000000E+00 0. -1.
</event>
<event>
 7    1  0.5992960E-013  0.5052885E+02  0.7816164E-02  0.1300439E+00
        -11   -1    0    0    0    0  0.00000000000E+00  0.00000000000E+00  0.45593999997E+02  0.45594000000E+02  0.51100000000E-03 0.  1.
         11   -1    0    0    0    0 -0.00000000000E+00 -0.00000000000E+00 -0.45593999997E+02  0.45594000000E+02  0.51100000000E-03 0. -1.
    9900012    2    1    2    0    0 -0.29768907673E+02  0.52797721827E+01 -0.27186438489E+02  0.50528852246E+02  0.29999976887E+02 0.  0.
        -12    1    1    2    0    0  0.29768907673E+02 -0.52797721827E+01  0.27186438489E+02  0.40659147754E+02  0.00000000000E+00 0.  1.
         11    1    3    3    0    0 -0.24502122795E+02 -0.86523249276E+01 -0.15333668602E+02  0.30171810373E+02  0.51100000000E-03 0.  1.
        -11    1    3    3    0    0 -0.66878652555E+01  0.90224593499E+01 -0.65935914410E+01  0.13023354512E+02  0.51100000000E-03 0. -1.
        -12    1    3    3    0    0  0.14210803777E+01  0.49096377604E+01 -0.52591784463E+01  0.73336873610E+01  0.00000000000E+00 0.  1.
</event>
<event>
 7    1  0.5992960E-013  0.5052888E+02  0.7816164E-02  0.1300439E+00
        -11   -1    0    0    0    0  0.00000000000E+00  0.00000000000E+00  0.45593999997E+02  0.45594000000E+02  0.51100000000E-03 0.  1.
         11   -1    0    0    0    0 -0.00000000000E+00 -0.00000000000E+00 -0.45593999997E+02  0.45594000000E+02  0.51100000000E-03 0. -1.
    9900012    2    1    2    0    0 -0.38440529366E+02 -0.12515837238E+02 -0.43409223930E+01  0.50528879412E+02  0.30000059462E+02 0.  0.
        -12    1    1    2    0    0  0.38440529366E+02  0.12515837238E+02  0.43409223930E+01  0.40659120588E+02  0.00000000000E+00 0.  1.
         11    1    3    3    0    0 -0.24293447410E+02 -0.64140485848E+01  0.10232644573E+02  0.27129663130E+02  0.51100000000E-03 0. -1.
        -11    1    3    3    0    0  0.11690259435E-01 -0.31184730030E+01 -0.39952524107E+00  0.31439833352E+01  0.51100000000E-03 0.  1.
         12    1    3    3    0    0 -0.14158772215E+02 -0.29833156502E+01 -0.14174041725E+02  0.20255232947E+02  0.00000000000E+00 0. -1.
</event>
<event>
 7    1  0.5992960E-013  0.5052887E+02  0.7816164E-02  0.1300439E+00
        -11   -1    0    0    0    0  0.00000000000E+00  0.00000000000E+00  0.45593999997E+02  0.45594000000E+02  0.51100000000E-03 0.  1.
         11   -1    0    0    0    0 -0.00000000000E+00 -0.00000000000E+00 -0.45593999997E+02  0.45594000000E+02  0.51100000000E-03 0. -1.
    9900012    2    1    2    0    0 -0.76305317909E+01  0.26817703089E+02 -0.29593084182E+02  0.50528870080E+02  0.30000031097E+02 0.  0.
        -12    1    1    2    0    0  0.76305317909E+01 -0.26817703089E+02  0.29593084182E+02  0.40659129920E+02  0.00000000000E+00 0.  1.
         11    1    3    3    0    0 -0.71183962854E+01  0.14124548353E+02 -0.10876867186E+02  0.19195850382E+02  0.51100000000E-03 0. -1.
        -11    1    3    3    0    0 -0.26631711309E+01  0.11730962994E+02  0.43504901308E+00  0.12037326993E+02  0.51100000000E-03 0.  1.
         12    1    3    3    0    0  0.21510356253E+01  0.96219174256E+00 -0.19151266010E+02  0.19295692705E+02  0.00000000000E+00 0. -1.
</event>
<event>
 7    1  0.5992960E-013  0.5052884E+02  0.7816164E-02  0.1300439E+00
        -11   -1    0    0    0    0  0.00000000000E+00  0.00000000000E+00  0.45593999997E+02  0.45594000000E+02  0.51100000000E-03 0.  1.
         11   -1    0    0    0    0 -0.00000000000E+00 -0.00000000000E+00 -0.45593999997E+02  0.45594000000E+02  0.51100000000E-03 0. -1.
    9900012    2    1    2    0    0  0.12704879084E+02 -0.38394929921E+02 -0.41931812386E+01  0.50528839100E+02  0.29999936928E+02 0.  0.
        -12    1    1    2    0    0 -0.12704879084E+02  0.38394929921E+02  0.41931812386E+01  0.40659160900E+02  0.00000000000E+00 0.  1.
         11    1    3    3    0    0  0.55414758754E+01 -0.90270624606E+01  0.49685649411E+01  0.11699677319E+02  0.51100000000E-03 0. -1.
        -11    1    3    3    0    0 -0.35997063987E+01  0.17575550587E+01 -0.36851588031E+01  0.54430948555E+01  0.51100000000E-03 0.  1.
         12    1    3    3    0    0  0.10763109607E+02 -0.31125422519E+02 -0.54765873766E+01  0.33386066925E+02  0.00000000000E+00 0. -1.
</event>
<event>
 7    1  0.5992960E-013  0.5052886E+02  0.7816164E-02  0.1300439E+00
        -11   -1    0    0    0    0  0.00000000000E+00  0.00000000000E+00  0.45593999997E+02  0.45594000000E+02  0.51100000000E-03 0.  1.
         11   -1    0    0    0    0 -0.00000000000E+00 -0.00000000000E+00 -0.45593999997E+02  0.45594000000E+02  0.51100000000E-03 0. -1.
    9900012    2    1    2    0    0 -0.19947607443E+02  0.34994559417E+02 -0.55353082631E+01  0.50528857497E+02  0.29999992847E+02 0.  0.
        -12    1    1    2    0    0  0.19947607443E+02 -0.34994559417E+02  0.55353082631E+01  0.40659142503E+02  0.00000000000E+00 0.  1.
         11    1    3    3    0    0  0.41888501661E+01  0.12986755309E+02  0.16817684968E+01  0.13748840849E+02  0.51100000000E-03 0. -1.
        -11    1    3    3    0    0  0.22191556524E+00  0.12325301590E+01  0.29376036010E+01  0.31934138924E+01  0.51100000000E-03 0.  1.
         12    1    3    3    0    0 -0.24358373175E+02  0.20775273950E+02 -0.10154680361E+02  0.33586602755E+02  0.00000000000E+00 0. -1.
</event>
<event>
 7    1  0.5992960E-013  0.5052886E+02  0.7816164E-02  0.1300439E+00
        -11   -1    0    0    0    0  0.00000000000E+00  0.00000000000E+00  0.45593999997E+02  0.45594000000E+02  0.51100000000E-03 0.  1.
         11   -1    0    0    0    0 -0.00000000000E+00 -0.00000000000E+00 -0.45593999997E+02  0.45594000000E+02  0.51100000000E-03 0. -1.
    9900012    2    1    2    0    0 -0.13899954340E+02  0.37362103306E+02 -0.80018910129E+01  0.50528858913E+02  0.29999997153E+02 0.  0.
        -12    1    1    2    0    0  0.13899954340E+02 -0.37362103306E+02  0.80018910129E+01  0.40659141087E+02  0.00000000000E+00 0.  1.
         11    1    3    3    0    0 -0.10501621771E+02  0.14095209052E+02 -0.27198340115E+01  0.17786412661E+02  0.51100000000E-03 0. -1.
        -11    1    3    3    0    0 -0.11169455953E+02  0.21655060659E+02 -0.36133045952E+01  0.24632384553E+02  0.51100000000E-03 0.  1.
        -12    1    3    3    0    0  0.77711233830E+01  0.16118335955E+01 -0.16687524062E+01  0.81100616993E+01  0.00000000000E+00 0.  1.
</event>
<event>
 7    1  0.6015182E-013  0.5052886E+02  0.7816164E-02  0.1300439E+00
        -11   -1    0    0    0    0  0.00000000000E+00  0.00000000000E+00  0.45593999997E+02  0.45594000000E+02  0.51100000000E-03 0. -1.
         11   -1    0    0    0    0 -0.00000000000E+00 -0.00000000000E+00 -0.45593999997E+02  0.45594000000E+02  0.51100000000E-03 0.  1.
    9900012    2    1    2    0    0  0.51450093484E+01 -0.26579157009E+01  0.40244630212E+02  0.50528857142E+02  0.29999991769E+02 0.  0.
        -12    1    1    2    0    0 -0.51450093484E+01  0.26579157009E+01 -0.40244630212E+02  0.40659142858E+02  0.00000000000E+00 0.  1.
         11    1    3    3    0    0  0.32598813748E+01 -0.25609218968E+01 -0.14157488825E+01  0.43805813197E+01  0.51100000000E-03 0. -1.
        -11    1    3    3    0    0 -0.54988672288E+00  0.13801426400E+01 -0.19463952049E+01  0.24485962651E+01  0.51100000000E-03 0.  1.
         12    1    3    3    0    0  0.24350146965E+01 -0.14771364441E+01  0.43606774299E+02  0.43699679557E+02  0.00000000000E+00 0. -1.
</event>
<event>
 7    1  0.5992960E-013  0.5052888E+02  0.7816164E-02  0.1300439E+00
        -11   -1    0    0    0    0  0.00000000000E+00  0.00000000000E+00  0.45593999997E+02  0.45594000000E+02  0.51100000000E-03 0.  1.
         11   -1    0    0    0    0 -0.00000000000E+00 -0.00000000000E+00 -0.45593999997E+02  0.45594000000E+02  0.51100000000E-03 0. -1.
    9900012    2    1    2    0    0 -0.52511595379E+01 -0.39927953378E+02  0.55989464368E+01  0.50528876317E+02  0.30000050053E+02 0.  0.
        -12    1    1    2    0    0  0.52511595379E+01  0.39927953378E+02 -0.55989464368E+01  0.40659123683E+02  0.00000000000E+00 0.  1.
         11    1    3    3    0    0  0.19796559912E+00 -0.26158296363E+02 -0.54505015219E-01  0.26159102241E+02  0.51100000000E-03 0. -1.
        -11    1    3    3    0    0 -0.52212042335E+01 -0.48955654532E+01 -0.62627679458E+01  0.95105098369E+01  0.51100000000E-03 0.  1.
         12    1    3    3    0    0 -0.22792090351E+00 -0.88740915623E+01  0.11916219398E+02  0.14859264239E+02  0.00000000000E+00 0. -1.
</event>
<event>
 7    1  0.5992960E-013  0.5052884E+02  0.7816164E-02  0.1300439E+00
        -11   -1    0    0    0    0  0.00000000000E+00  0.00000000000E+00  0.45593999997E+02  0.45594000000E+02  0.51100000000E-03 0.  1.
         11   -1    0    0    0    0 -0.00000000000E+00 -0.00000000000E+00 -0.45593999997E+02  0.45594000000E+02  0.51100000000E-03 0. -1.
    9900012    2    1    2    0    0 -0.62379695740E+01 -0.14060605061E+02 -0.37637144026E+02  0.50528837570E+02  0.29999932278E+02 0.  0.
        -12    1    1    2    0    0  0.62379695740E+01  0.14060605061E+02  0.37637144026E+02  0.40659162430E+02  0.00000000000E+00 0.  1.
         11    1    3    3    0    0 -0.28264971801E+01 -0.79297393424E+01 -0.14979963605E+02  0.17183397865E+02  0.51100000000E-03 0. -1.
        -11    1    3    3    0    0 -0.58765610172E+01 -0.49548585604E+01 -0.27078605753E+02  0.28148454355E+02  0.51100000000E-03 0.  1.
        -12    1    3    3    0    0  0.24650886232E+01 -0.11760071587E+01  0.44214253324E+01  0.51969853500E+01  0.00000000000E+00 0.  1.
</event>
<event>
 7    1  0.5992960E-013  0.5052886E+02  0.7816164E-02  0.1300439E+00
        -11   -1    0    0    0    0  0.00000000000E+00  0.00000000000E+00  0.45593999997E+02  0.45594000000E+02  0.51100000000E-03 0.  1.
         11   -1    0    0    0    0 -0.00000000000E+00 -0.00000000000E+00 -0.45593999997E+02  0.45594000000E+02  0.51100000000E-03 0. -1.
    9900012    2    1    2    0    0 -0.49248836184E+01  0.26903323148E+02 -0.30085249779E+02  0.50528861675E+02  0.30000005548E+02 0.  0.
        -12    1    1    2    0    0  0.49248836184E+01 -0.26903323148E+02  0.30085249779E+02  0.40659138325E+02  0.00000000000E+00 0.  1.
         11    1    3    3    0    0 -0.31094926506E+01  0.91278723128E+01 -0.20221271235E+02  0.22402830359E+02  0.51100000000E-03 0. -1.
        -11    1    3    3    0    0 -0.65374340389E+01  0.61043660401E+01 -0.12393800777E+02  0.15284228032E+02  0.51100000000E-03 0.  1.
        -12    1    3    3    0    0  0.47220430712E+01  0.11671084795E+02  0.25298222325E+01  0.12841803284E+02  0.00000000000E+00 0.  1.
</event>
<event>
 7    1  0.5992960E-013  0.5052887E+02  0.7816164E-02  0.1300439E+00
        -11   -1    0    0    0    0  0.00000000000E+00  0.00000000000E+00  0.45593999997E+02  0.45594000000E+02  0.51100000000E-03 0. -1.
         11   -1    0    0    0    0 -0.00000000000E+00 -0.00000000000E+00 -0.45593999997E+02  0.45594000000E+02  0.51100000000E-03 0.  1.
    9900012    2    1    2    0    0 -0.10112747190E+02 -0.20188963227E+02  0.33812762881E+02  0.50528870329E+02  0.30000031853E+02 0.  0.
        -12    1    1    2    0    0  0.10112747190E+02  0.20188963227E+02 -0.33812762881E+02  0.40659129671E+02  0.00000000000E+00 0.  1.
         11    1    3    3    0    0 -0.38098468233E+01 -0.15517910475E+02  0.25836956780E+02  0.30378755969E+02  0.51100000000E-03 0. -1.
        -11    1    3    3    0    0 -0.33384224600E+01 -0.46744405885E+01  0.13058520033E+02  0.14266057796E+02  0.51100000000E-03 0.  1.
        -12    1    3    3    0    0 -0.29644779071E+01  0.33878359558E-02 -0.50827139315E+01  0.58840565640E+01  0.00000000000E+00 0.  1.
</event>
<event>
 7    1  0.5992960E-013  0.5052887E+02  0.7816164E-02  0.1300439E+00
        -11   -1    0    0    0    0  0.00000000000E+00  0.00000000000E+00  0.45593999997E+02  0.45594000000E+02  0.51100000000E-03 0.  1.
         11   -1    0    0    0    0 -0.00000000000E+00 -0.00000000000E+00 -0.45593999997E+02  0.45594000000E+02  0.51100000000E-03 0. -1.
    9900012    2    1    2    0    0  0.39969755476E+02 -0.35303420601E+01 -0.65665877807E+01  0.50528871345E+02  0.30000034941E+02 0.  0.
        -12    1    1    2    0    0 -0.39969755476E+02  0.35303420601E+01  0.65665877807E+01  0.40659128655E+02  0.00000000000E+00 0.  1.
         11    1    3    3    0    0  0.28711983531E+02 -0.10376581708E+02 -0.12497263578E+01  0.30555085705E+02  0.51100000000E-03 0. -1.
        -11    1    3    3    0    0  0.94142472774E+01 -0.24514684891E+01 -0.20012061657E+01  0.99318968950E+01  0.51100000000E-03 0.  1.
         12    1    3    3    0    0  0.18435246677E+01  0.92977081365E+01 -0.33156552572E+01  0.10041888745E+02  0.00000000000E+00 0. -1.
</event>
<event>
 7    1  0.5992960E-013  0.5052894E+02  0.7816164E-02  0.1300439E+00
        -11   -1    0    0    0    0  0.00000000000E+00  0.00000000000E+00  0.45593999997E+02  0.45594000000E+02  0.51100000000E-03 0.  1.
         11   -1    0    0    0    0 -0.00000000000E+00 -0.00000000000E+00 -0.45593999997E+02  0.45594000000E+02  0.51100000000E-03 0. -1.
    9900012    2    1    2    0    0  0.22855538107E+02 -0.31460544254E+02  0.11875089115E+02  0.50528939405E+02  0.30000241816E+02 0.  0.
        -12    1    1    2    0    0 -0.22855538107E+02  0.31460544254E+02 -0.11875089115E+02  0.40659060595E+02  0.00000000000E+00 0.  1.
         11    1    3    3    0    0 -0.14408555290E+01 -0.10530489771E+02 -0.99492668284E+00  0.10675071842E+02  0.51100000000E-03 0. -1.
        -11    1    3    3    0    0 -0.20508961444E+01 -0.74577398615E+01  0.50802573706E+01  0.92538140272E+01  0.51100000000E-03 0.  1.
         12    1    3    3    0    0  0.26347289781E+02 -0.13472314622E+02  0.77897584270E+01  0.30600053536E+02  0.00000000000E+00 0. -1.
</event>
<event>
 7    1  0.5992960E-013  0.5052884E+02  0.7816164E-02  0.1300439E+00
        -11   -1    0    0    0    0  0.00000000000E+00  0.00000000000E+00  0.45593999997E+02  0.45594000000E+02  0.51100000000E-03 0.  1.
         11   -1    0    0    0    0 -0.00000000000E+00 -0.00000000000E+00 -0.45593999997E+02  0.45594000000E+02  0.51100000000E-03 0. -1.
    9900012    2    1    2    0    0  0.22352390661E+02 -0.95725732989E+01 -0.32586867561E+02  0.50528837868E+02  0.29999933184E+02 0.  0.
        -12    1    1    2    0    0 -0.22352390661E+02  0.95725732989E+01  0.32586867561E+02  0.40659162132E+02  0.00000000000E+00 0.  1.
         11    1    3    3    0    0  0.72040641166E+01 -0.39294194776E+00 -0.18712415989E+02  0.20055110460E+02  0.51100000000E-03 0. -1.
        -11    1    3    3    0    0 -0.28958151371E+01 -0.13242405774E+01 -0.98960553166E+01  0.10395733236E+02  0.51100000000E-03 0.  1.
        -12    1    3    3    0    0  0.18044141681E+02 -0.78553907737E+01 -0.39783962557E+01  0.20077994173E+02  0.00000000000E+00 0.  1.
</event>
<event>
 7    1  0.5992960E-013  0.5052887E+02  0.7816164E-02  0.1300439E+00
        -11   -1    0    0    0    0  0.00000000000E+00  0.00000000000E+00  0.45593999997E+02  0.45594000000E+02  0.51100000000E-03 0.  1.
         11   -1    0    0    0    0 -0.00000000000E+00 -0.00000000000E+00 -0.45593999997E+02  0.45594000000E+02  0.51100000000E-03 0. -1.
    9900012    2    1    2    0    0 -0.21850323184E+02 -0.19526873833E+02 -0.28185627563E+02  0.50528867864E+02  0.30000024358E+02 0.  0.
        -12    1    1    2    0    0  0.21850323184E+02  0.19526873833E+02  0.28185627563E+02  0.40659132136E+02  0.00000000000E+00 0.  1.
         11    1    3    3    0    0 -0.12177652777E+01 -0.15561938053E+01 -0.10326548957E+01  0.22295891608E+01  0.51100000000E-03 0. -1.
        -11    1    3    3    0    0 -0.21376512099E+02 -0.22062390724E+02 -0.12668229749E+02  0.33229330406E+02  0.51100000000E-03 0.  1.
        -12    1    3    3    0    0  0.74395419202E+00  0.40917106967E+01 -0.14484742918E+02  0.15069948297E+02  0.00000000000E+00 0.  1.
</event>
<event>
 7    1  0.5992960E-013  0.5052887E+02  0.7816164E-02  0.1300439E+00
        -11   -1    0    0    0    0  0.00000000000E+00  0.00000000000E+00  0.45593999997E+02  0.45594000000E+02  0.51100000000E-03 0. -1.
         11   -1    0    0    0    0 -0.00000000000E+00 -0.00000000000E+00 -0.45593999997E+02  0.45594000000E+02  0.51100000000E-03 0.  1.
    9900012    2    1    2    0    0  0.28179665974E+02 -0.13403298125E+02  0.26065736366E+02  0.50528873259E+02  0.30000040757E+02 0.  0.
        -12    1    1    2    0    0 -0.28179665974E+02  0.13403298125E+02 -0.26065736366E+02  0.40659126741E+02  0.00000000000E+00 0.  1.
         11    1    3    3    0    0  0.77170878580E+01 -0.32824526407E+01  0.20999037543E+02  0.22611667748E+02  0.51100000000E-03 0. -1.
        -11    1    3    3    0    0  0.13076795157E+02  0.83459707286E+00 -0.14528629174E+01  0.13183699586E+02  0.51100000000E-03 0.  1.
         12    1    3    3    0    0  0.73857829587E+01 -0.10955442558E+02  0.65195617405E+01  0.14733505925E+02  0.00000000000E+00 0. -1.
</event>
<event>
 7    1  0.5992960E-013  0.5052887E+02  0.7816164E-02  0.1300439E+00
        -11   -1    0    0    0    0  0.00000000000E+00  0.00000000000E+00  0.45593999997E+02  0.45594000000E+02  0.51100000000E-03 0.  1.
         11   -1    0    0    0    0 -0.00000000000E+00 -0.00000000000E+00 -0.45593999997E+02  0.45594000000E+02  0.51100000000E-03 0. -1.
    9900012    2    1    2    0    0 -0.25613229919E+02 -0.50677425958E+01 -0.31168023055E+02  0.50528865441E+02  0.30000016995E+02 0.  0.
        -12    1    1    2    0    0  0.25613229919E+02  0.50677425958E+01  0.31168023055E+02  0.40659134559E+02  0.00000000000E+00 0.  1.
         11    1    3    3    0    0 -0.27193606454E+02 -0.32025314655E+01 -0.15554577698E+02  0.31491162687E+02  0.51100000000E-03 0. -1.
        -11    1    3    3    0    0 -0.12752927214E+01  0.64242798299E+00  0.11596009194E+01  0.18394998755E+01  0.51100000000E-03 0.  1.
         12    1    3    3    0    0  0.28556692569E+01 -0.25076391133E+01 -0.16773046277E+02  0.17198202878E+02  0.00000000000E+00 0. -1.
</event>
<event>
 7    1  0.5992960E-013  0.5052886E+02  0.7816164E-02  0.1300439E+00
        -11   -1    0    0    0    0  0.00000000000E+00  0.00000000000E+00  0.45593999997E+02  0.45594000000E+02  0.51100000000E-03 0.  1.
         11   -1    0    0    0    0 -0.00000000000E+00 -0.00000000000E+00 -0.45593999997E+02  0.45594000000E+02  0.51100000000E-03 0. -1.
    9900012    2    1    2    0    0  0.91330802461E+01  0.28418037078E+02 -0.27607378908E+02  0.50528863803E+02  0.30000012016E+02 0.  0.
        -12    1    1    2    0    0 -0.91330802461E+01 -0.28418037078E+02  0.27607378908E+02  0.40659136197E+02  0.00000000000E+00 0.  1.
         11    1    3    3    0    0  0.25780598145E+01  0.18361605791E+02 -0.20715984152E+02  0.27801923662E+02  0.51100000000E-03 0. -1.
        -11    1    3    3    0    0 -0.34943694267E+01  0.10353537833E+02 -0.63946803941E+01  0.12660896530E+02  0.51100000000E-03 0.  1.
        -12    1    3    3    0    0  0.10049389858E+02 -0.29710654622E+00 -0.49671436115E+00  0.10066043611E+02  0.00000000000E+00 0.  1.
</event>
<event>
 7    1  0.5992960E-013  0.5052886E+02  0.7816164E-02  0.1300439E+00
        -11   -1    0    0    0    0  0.00000000000E+00  0.00000000000E+00  0.45593999997E+02  0.45594000000E+02  0.51100000000E-03 0.  1.
         11   -1    0    0    0    0 -0.00000000000E+00 -0.00000000000E+00 -0.45593999997E+02  0.45594000000E+02  0.51100000000E-03 0. -1.
    9900012    2    1    2    0    0  0.32751893776E+02 -0.48990024386E+01 -0.23589806473E+02  0.50528859081E+02  0.29999997663E+02 0.  0.
        -12    1    1    2    0    0 -0.32751893776E+02  0.48990024386E+01  0.23589806473E+02  0.40659140919E+02  0.00000000000E+00 0.  1.
         11    1    3    3    0    0  0.12444597147E+02 -0.74402282251E+01 -0.14601685269E+02  0.20577517031E+02  0.51100000000E-03 0. -1.
        -11    1    3    3    0    0  0.19597457309E+02 -0.23218312840E+01 -0.12979350799E+02  0.23620219747E+02  0.51100000000E-03 0.  1.
        -12    1    3    3    0    0  0.70983932013E+00  0.48630570704E+01  0.39912295951E+01  0.63311223027E+01  0.00000000000E+00 0.  1.
</event>
<event>
 7    1  0.5992960E-013  0.5052887E+02  0.7816164E-02  0.1300439E+00
        -11   -1    0    0    0    0  0.00000000000E+00  0.00000000000E+00  0.45593999997E+02  0.45594000000E+02  0.51100000000E-03 0.  1.
         11   -1    0    0    0    0 -0.00000000000E+00 -0.00000000000E+00 -0.45593999997E+02  0.45594000000E+02  0.51100000000E-03 0. -1.
    9900012    2    1    2    0    0  0.15370101906E+02  0.34144485067E+02 -0.15845462704E+02  0.50528873332E+02  0.30000040980E+02 0.  0.
        -12    1    1    2    0    0 -0.15370101906E+02 -0.34144485067E+02  0.15845462704E+02  0.40659126668E+02  0.00000000000E+00 0.  1.
         11    1    3    3    0    0  0.17258209518E+00  0.98237875476E+00 -0.22954079998E+01  0.25027486378E+01  0.51100000000E-03 0. -1.
        -11    1    3    3    0    0  0.95944313943E+01  0.37251359384E+02 -0.14321848777E+02  0.41046708058E+02  0.51100000000E-03 0.  1.
        -12    1    3    3    0    0  0.56030884162E+01 -0.40892530722E+01  0.77179407274E+00  0.69794166360E+01  0.00000000000E+00 0.  1.
</event>
<event>
 7    1  0.5992960E-013  0.5052886E+02  0.7816164E-02  0.1300439E+00
        -11   -1    0    0    0    0  0.00000000000E+00  0.00000000000E+00  0.45593999997E+02  0.45594000000E+02  0.51100000000E-03 0. -1.
         11   -1    0    0    0    0 -0.00000000000E+00 -0.00000000000E+00 -0.45593999997E+02  0.45594000000E+02  0.51100000000E-03 0.  1.
    9900012    2    1    2    0    0 -0.74697579822E+01  0.14819201501E+02  0.37118189553E+02  0.50528855726E+02  0.29999987464E+02 0.  0.
        -12    1    1    2    0    0  0.74697579822E+01 -0.14819201501E+02 -0.37118189553E+02  0.40659144274E+02  0.00000000000E+00 0.  1.
         11    1    3    3    0    0 -0.53719982379E+01  0.15726192859E+02  0.11007352128E+02  0.19933221216E+02  0.51100000000E-03 0. -1.
        -11    1    3    3    0    0 -0.49868486967E+01  0.36206616985E+01  0.24076007044E+02  0.24852202447E+02  0.51100000000E-03 0.  1.
        -12    1    3    3    0    0  0.28890889524E+01 -0.45276530566E+01  0.20348303807E+01  0.57434320623E+01  0.00000000000E+00 0.  1.
</event>
<event>
 7    1  0.5992960E-013  0.5052885E+02  0.7816164E-02  0.1300439E+00
        -11   -1    0    0    0    0  0.00000000000E+00  0.00000000000E+00  0.45593999997E+02  0.45594000000E+02  0.51100000000E-03 0.  1.
         11   -1    0    0    0    0 -0.00000000000E+00 -0.00000000000E+00 -0.45593999997E+02  0.45594000000E+02  0.51100000000E-03 0. -1.
    9900012    2    1    2    0    0 -0.25854329302E+02  0.77243624436E+01 -0.30414702948E+02  0.50528852515E+02  0.29999977704E+02 0.  0.
        -12    1    1    2    0    0  0.25854329302E+02 -0.77243624436E+01  0.30414702948E+02  0.40659147485E+02  0.00000000000E+00 0.  1.
         11    1    3    3    0    0 -0.14526587142E+02  0.17485889790E+01 -0.77299559693E+01  0.16547855359E+02  0.51100000000E-03 0. -1.
        -11    1    3    3    0    0  0.23002050896E+00 -0.39107855337E+01  0.24371318573E+01  0.46137582161E+01  0.51100000000E-03 0.  1.
        -12    1    3    3    0    0 -0.11557762669E+02  0.98865589983E+01 -0.25121878836E+02  0.29367238940E+02  0.00000000000E+00 0.  1.
</event>
<event>
 7    1  0.5992960E-013  0.5052886E+02  0.7816164E-02  0.1300439E+00
        -11   -1    0    0    0    0  0.00000000000E+00  0.00000000000E+00  0.45593999997E+02  0.45594000000E+02  0.51100000000E-03 0.  1.
         11   -1    0    0    0    0 -0.00000000000E+00 -0.00000000000E+00 -0.45593999997E+02  0.45594000000E+02  0.51100000000E-03 0. -1.
    9900012    2    1    2    0    0 -0.24376054841E+02 -0.12848104582E+02 -0.29898157432E+02  0.50528860082E+02  0.30000000707E+02 0.  0.
        -12    1    1    2    0    0  0.24376054841E+02  0.12848104582E+02  0.29898157432E+02  0.40659139918E+02  0.00000000000E+00 0.  1.
         11    1    3    3    0    0 -0.10168207105E+02 -0.23474071696E+01  0.64186839544E+00  0.10455369503E+02  0.51100000000E-03 0. -1.
        -11    1    3    3    0    0 -0.40118828111E+01  0.44561321384E+01 -0.20837684341E+01  0.63477876834E+01  0.51100000000E-03 0.  1.
         12    1    3    3    0    0 -0.10195964925E+02 -0.14956829551E+02 -0.28456257394E+02  0.33725702896E+02  0.00000000000E+00 0. -1.
</event>
<event>
 7    1  0.5992960E-013  0.5052886E+02  0.7816164E-02  0.1300439E+00
        -11   -1    0    0    0    0  0.00000000000E+00  0.00000000000E+00  0.45593999997E+02  0.45594000000E+02  0.51100000000E-03 0. -1.
         11   -1    0    0    0    0 -0.00000000000E+00 -0.00000000000E+00 -0.45593999997E+02  0.45594000000E+02  0.51100000000E-03 0.  1.
    9900012    2    1    2    0    0  0.12172680299E+02  0.38184071834E+01  0.38605840510E+02  0.50528864488E+02  0.30000014099E+02 0.  0.
        -12    1    1    2    0    0 -0.12172680299E+02 -0.38184071834E+01 -0.38605840510E+02  0.40659135512E+02  0.00000000000E+00 0.  1.
         11    1    3    3    0    0 -0.87817123033E+00  0.10570285263E+02  0.17812574189E+02  0.20731375129E+02  0.51100000000E-03 0. -1.
        -11    1    3    3    0    0  0.66269113393E+01  0.41997681824E+01  0.12059402276E+02  0.14386910378E+02  0.51100000000E-03 0.  1.
        -12    1    3    3    0    0  0.64239401905E+01 -0.10951646262E+02  0.87338640447E+01  0.15410578982E+02  0.00000000000E+00 0.  1.
</event>
<event>
 7    1  0.5992960E-013  0.5052887E+02  0.7816164E-02  0.1300439E+00
        -11   -1    0    0    0    0  0.00000000000E+00  0.00000000000E+00  0.45593999997E+02  0.45594000000E+02  0.51100000000E-03 0.  1.
         11   -1    0    0    0    0 -0.00000000000E+00 -0.00000000000E+00 -0.45593999997E+02  0.45594000000E+02  0.51100000000E-03 0. -1.
    9900012    2    1    2    0    0  0.37901372533E+02 -0.26839529866E+01 -0.14472283427E+02  0.50528872721E+02  0.30000039122E+02 0.  0.
        -12    1    1    2    0    0 -0.37901372533E+02  0.26839529866E+01  0.14472283427E+02  0.40659127279E+02  0.00000000000E+00 0.  1.
         11    1    3    3    0    0  0.13006326028E+02 -0.50330203481E+01 -0.61645608752E+01  0.15247872691E+02  0.51100000000E-03 0. -1.
        -11    1    3    3    0    0  0.24525656410E+02 -0.58860544266E+01 -0.94998972049E+01  0.26951836788E+02  0.51100000000E-03 0.  1.
        -12    1    3    3    0    0  0.36939009488E+00  0.82351217880E+01  0.11921746530E+01  0.83291632418E+01  0.00000000000E+00 0.  1.
</event>
<event>
 7    1  0.5992960E-013  0.5052887E+02  0.7816164E-02  0.1300439E+00
        -11   -1    0    0    0    0  0.00000000000E+00  0.00000000000E+00  0.45593999997E+02  0.45594000000E+02  0.51100000000E-03 0. -1.
         11   -1    0    0    0    0 -0.00000000000E+00 -0.00000000000E+00 -0.45593999997E+02  0.45594000000E+02  0.51100000000E-03 0.  1.
    9900012    2    1    2    0    0 -0.24803949203E+02 -0.27814976538E+02  0.16255960566E+02  0.50528867326E+02  0.30000022724E+02 0.  0.
        -12    1    1    2    0    0  0.24803949203E+02  0.27814976538E+02 -0.16255960566E+02  0.40659132674E+02  0.00000000000E+00 0.  1.
         11    1    3    3    0    0 -0.46952432373E+01 -0.99161200132E+01  0.96594044594E+01  0.14617757692E+02  0.51100000000E-03 0. -1.
        -11    1    3    3    0    0  0.19661801733E+01 -0.79736117286E+00 -0.51857097701E+01  0.56029666601E+01  0.51100000000E-03 0.  1.
         12    1    3    3    0    0 -0.22074886139E+02 -0.17101495352E+02  0.11782265876E+02  0.30308142974E+02  0.00000000000E+00 0. -1.
</event>
<event>
 7    1  0.5992960E-013  0.5052886E+02  0.7816164E-02  0.1300439E+00
        -11   -1    0    0    0    0  0.00000000000E+00  0.00000000000E+00  0.45593999997E+02  0.45594000000E+02  0.51100000000E-03 0.  1.
         11   -1    0    0    0    0 -0.00000000000E+00 -0.00000000000E+00 -0.45593999997E+02  0.45594000000E+02  0.51100000000E-03 0. -1.
    9900012    2    1    2    0    0 -0.33568935025E+02  0.18968228274E+02 -0.12903425093E+02  0.50528862507E+02  0.30000008075E+02 0.  0.
        -12    1    1    2    0    0  0.33568935025E+02 -0.18968228274E+02  0.12903425093E+02  0.40659137493E+02  0.00000000000E+00 0.  1.
         11    1    3    3    0    0 -0.19847707537E+02  0.53362291170E+01  0.20356527783E+01  0.20653104322E+02  0.51100000000E-03 0. -1.
        -11    1    3    3    0    0 -0.67309536142E+01  0.10725464460E+01  0.25148886388E+01  0.72650366525E+01  0.51100000000E-03 0.  1.
        -12    1    3    3    0    0 -0.69902738738E+01  0.12559452711E+02 -0.17453966511E+02  0.22610721532E+02  0.00000000000E+00 0.  1.
</event>
<event>
 7    1  0.5992960E-013  0.5052881E+02  0.7816164E-02  0.1300439E+00
        -11   -1    0    0    0    0  0.00000000000E+00  0.00000000000E+00  0.45593999997E+02  0.45594000000E+02  0.51100000000E-03 0. -1.
         11   -1    0    0    0    0 -0.00000000000E+00 -0.00000000000E+00 -0.45593999997E+02  0.45594000000E+02  0.51100000000E-03 0.  1.
    9900012    2    1    2    0    0  0.15771100353E+02  0.37279326795E+02 -0.38332853384E+01  0.50528808061E+02  0.29999842581E+02 0.  0.
        -12    1    1    2    0    0 -0.15771100353E+02 -0.37279326795E+02  0.38332853384E+01  0.40659191939E+02  0.00000000000E+00 0.  1.
         11    1    3    3    0    0  0.12940045397E+02  0.15788234864E+02  0.29665750269E+01  0.20627983485E+02  0.51100000000E-03 0. -1.
        -11    1    3    3    0    0  0.14869334702E+01 -0.36495068643E+01 -0.89798845287E+00  0.40418133332E+01  0.51100000000E-03 0.  1.
        -12    1    3    3    0    0  0.13441214860E+01  0.25140598796E+02 -0.59018719124E+01  0.25859011243E+02  0.00000000000E+00 0.  1.
</event>
<event>
 7    1  0.5992960E-013  0.5052886E+02  0.7816164E-02  0.1300439E+00
        -11   -1    0    0    0    0  0.00000000000E+00  0.00000000000E+00  0.45593999997E+02  0.45594000000E+02  0.51100000000E-03 0.  1.
         11   -1    0    0    0    0 -0.00000000000E+00 -0.00000000000E+00 -0.45593999997E+02  0.45594000000E+02  0.51100000000E-03 0. -1.
    9900012    2    1    2    0    0  0.48239749974E+01  0.18866506515E+02 -0.35692429273E+02  0.50528864368E+02  0.30000013734E+02 0.  0.
        -12    1    1    2    0    0 -0.48239749974E+01 -0.18866506515E+02  0.35692429273E+02  0.40659135632E+02  0.00000000000E+00 0.  1.
         11    1    3    3    0    0 -0.27152651943E+00 -0.41691639037E-01  0.16225344276E+01  0.16456254354E+01  0.51100000000E-03 0. -1.
        -11    1    3    3    0    0 -0.51420465306E+01 -0.39802518533E+01 -0.74799016757E+01  0.99112046028E+01  0.51100000000E-03 0.  1.
         12    1    3    3    0    0  0.10237548047E+02  0.22888450008E+02 -0.29835062025E+02  0.38972034330E+02  0.00000000000E+00 0. -1.
</event>
<event>
 7    1  0.5992960E-013  0.5052886E+02  0.7816164E-02  0.1300439E+00
        -11   -1    0    0    0    0  0.00000000000E+00  0.00000000000E+00  0.45593999997E+02  0.45594000000E+02  0.51100000000E-03 0.  1.
         11   -1    0    0    0    0 -0.00000000000E+00 -0.00000000000E+00 -0.45593999997E+02  0.45594000000E+02  0.51100000000E-03 0. -1.
    9900012    2    1    2    0    0 -0.31437902394E+01  0.25932887524E+02 -0.31157140590E+02  0.50528862255E+02  0.30000007309E+02 0.  0.
        -12    1    1    2    0    0  0.31437902394E+01 -0.25932887524E+02  0.31157140590E+02  0.40659137745E+02  0.00000000000E+00 0.  1.
         11    1    3    3    0    0  0.16847800780E+01  0.17056074128E+02 -0.15666988697E+02  0.23220738224E+02  0.51100000000E-03 0. -1.
        -11    1    3    3    0    0  0.49946460307E+00  0.10458508842E+02  0.39589167743E+00  0.10477910220E+02  0.51100000000E-03 0.  1.
         12    1    3    3    0    0 -0.53280349205E+01 -0.15816954455E+01 -0.15886043571E+02  0.16830213811E+02  0.00000000000E+00 0. -1.
</event>
<event>
 7    1  0.5992960E-013  0.5052887E+02  0.7816164E-02  0.1300439E+00
        -11   -1    0    0    0    0  0.00000000000E+00  0.00000000000E+00  0.45593999997E+02  0.45594000000E+02  0.51100000000E-03 0.  1.
         11   -1    0    0    0    0 -0.00000000000E+00 -0.00000000000E+00 -0.45593999997E+02  0.45594000000E+02  0.51100000000E-03 0. -1.
    9900012    2    1    2    0    0 -0.10127613436E+02  0.10763636204E+02 -0.37877971992E+02  0.50528865965E+02  0.30000018588E+02 0.  0.
        -12    1    1    2    0    0  0.10127613436E+02 -0.10763636204E+02  0.37877971992E+02  0.40659134035E+02  0.00000000000E+00 0.  1.
         11    1    3    3    0    0  0.40050413618E+00  0.76871004690E+01 -0.18739608701E+02  0.20258944981E+02  0.51100000000E-03 0. -1.
        -11    1    3    3    0    0  0.55210247005E+01 -0.30088540966E+01 -0.51689952910E+01  0.81396209554E+01  0.51100000000E-03 0.  1.
        -12    1    3    3    0    0 -0.16049142273E+02  0.60853898312E+01 -0.13969367999E+02  0.22130300029E+02  0.00000000000E+00 0.  1.
</event>
<event>
 7    1  0.5992960E-013  0.5052886E+02  0.7816164E-02  0.1300439E+00
        -11   -1    0    0    0    0  0.00000000000E+00  0.00000000000E+00  0.45593999997E+02  0.45594000000E+02  0.51100000000E-03 0.  1.
         11   -1    0    0    0    0 -0.00000000000E+00 -0.00000000000E+00 -0.45593999997E+02  0.45594000000E+02  0.51100000000E-03 0. -1.
    9900012    2    1    2    0    0 -0.34335493972E+01 -0.16716637572E+01 -0.40479396686E+02  0.50528864775E+02  0.30000014971E+02 0.  0.
        -12    1    1    2    0    0  0.34335493972E+01  0.16716637572E+01  0.40479396686E+02  0.40659135225E+02  0.00000000000E+00 0.  1.
         11    1    3    3    0    0 -0.51266562452E+01 -0.68969368639E+00 -0.80056415345E+01  0.95314520551E+01  0.51100000000E-03 0. -1.
        -11    1    3    3    0    0 -0.64710893179E+01  0.96425688040E+01 -0.15740258057E+02  0.19560415488E+02  0.51100000000E-03 0.  1.
        -12    1    3    3    0    0  0.81641961660E+01 -0.10624538875E+02 -0.16733497094E+02  0.21436997232E+02  0.00000000000E+00 0.  1.
</event>
<event>
 7    1  0.5992960E-013  0.5052886E+02  0.7816164E-02  0.1300439E+00
        -11   -1    0    0    0    0  0.00000000000E+00  0.00000000000E+00  0.45593999997E+02  0.45594000000E+02  0.51100000000E-03 0.  1.
         11   -1    0    0    0    0 -0.00000000000E+00 -0.00000000000E+00 -0.45593999997E+02  0.45594000000E+02  0.51100000000E-03 0. -1.
    9900012    2    1    2    0    0  0.29960544283E+02 -0.27453030215E+02  0.13648008926E+01  0.50528858799E+02  0.29999996805E+02 0.  0.
        -12    1    1    2    0    0 -0.29960544283E+02  0.27453030215E+02 -0.13648008926E+01  0.40659141201E+02  0.00000000000E+00 0.  1.
         11    1    3    3    0    0  0.59479981305E+01 -0.15198792983E+01  0.80977562616E+01  0.10161809464E+02  0.51100000000E-03 0. -1.
        -11    1    3    3    0    0  0.53490934443E+01 -0.33114043327E+01  0.57228056535E+01  0.85046283951E+01  0.51100000000E-03 0.  1.
         12    1    3    3    0    0  0.18663452709E+02 -0.22621746584E+02 -0.12455761022E+02  0.31862420940E+02  0.00000000000E+00 0. -1.
</event>
<event>
 7    1  0.5992960E-013  0.5052873E+02  0.7816164E-02  0.1300439E+00
        -11   -1    0    0    0    0  0.00000000000E+00  0.00000000000E+00  0.45593999997E+02  0.45594000000E+02  0.51100000000E-03 0. -1.
         11   -1    0    0    0    0 -0.00000000000E+00 -0.00000000000E+00 -0.45593999997E+02  0.45594000000E+02  0.51100000000E-03 0.  1.
    9900012    2    1    2    0    0 -0.88008579416E+01 -0.34116811369E+02  0.20291986670E+02  0.50528725024E+02  0.29999590182E+02 0.  0.
        -12    1    1    2    0    0  0.88008579416E+01  0.34116811369E+02 -0.20291986670E+02  0.40659274976E+02  0.00000000000E+00 0.  1.
         11    1    3    3    0    0 -0.45482006437E+01  0.33945342954E+00 -0.29127586805E+01  0.54116098454E+01  0.51100000000E-03 0. -1.
        -11    1    3    3    0    0  0.29600393819E+01  0.17303750112E-01  0.40767776736E+01  0.50380798945E+01  0.51100000000E-03 0.  1.
         12    1    3    3    0    0 -0.72126966798E+01 -0.34473568549E+02  0.19127967677E+02  0.40079035285E+02  0.00000000000E+00 0. -1.
</event>
<event>
 7    1  0.5992960E-013  0.5052887E+02  0.7816164E-02  0.1300439E+00
        -11   -1    0    0    0    0  0.00000000000E+00  0.00000000000E+00  0.45593999997E+02  0.45594000000E+02  0.51100000000E-03 0. -1.
         11   -1    0    0    0    0 -0.00000000000E+00 -0.00000000000E+00 -0.45593999997E+02  0.45594000000E+02  0.51100000000E-03 0.  1.
    9900012    2    1    2    0    0  0.27180803331E+02 -0.30213205581E+02 -0.12374485134E+01  0.50528866462E+02  0.30000020097E+02 0.  0.
        -12    1    1    2    0    0 -0.27180803331E+02  0.30213205581E+02  0.12374485134E+01  0.40659133538E+02  0.00000000000E+00 0.  1.
         11    1    3    3    0    0  0.53232620183E+01  0.22378692046E+01  0.64911502326E+00  0.58108973203E+01  0.51100000000E-03 0. -1.
        -11    1    3    3    0    0  0.50536409608E+01  0.88384352900E+00 -0.51191344565E+01  0.72474826105E+01  0.51100000000E-03 0.  1.
         12    1    3    3    0    0  0.16803900352E+02 -0.33334918315E+02  0.32325709198E+01  0.37470486531E+02  0.00000000000E+00 0. -1.
</event>
<event>
 7    1  0.5992960E-013  0.5052886E+02  0.7816164E-02  0.1300439E+00
        -11   -1    0    0    0    0  0.00000000000E+00  0.00000000000E+00  0.45593999997E+02  0.45594000000E+02  0.51100000000E-03 0. -1.
         11   -1    0    0    0    0 -0.00000000000E+00 -0.00000000000E+00 -0.45593999997E+02  0.45594000000E+02  0.51100000000E-03 0.  1.
    9900012    2    1    2    0    0  0.15720905257E+02 -0.50731116737E+01  0.37152149905E+02  0.50528861215E+02  0.30000004150E+02 0.  0.
        -12    1    1    2    0    0 -0.15720905257E+02  0.50731116737E+01 -0.37152149905E+02  0.40659138785E+02  0.00000000000E+00 0.  1.
         11    1    3    3    0    0 -0.75254585542E+00  0.32976513240E+01  0.33615478644E+01  0.47687350340E+01  0.51100000000E-03 0. -1.
        -11    1    3    3    0    0  0.13517067748E+02  0.68688319638E+01  0.14289094731E+02  0.20834351479E+02  0.51100000000E-03 0.  1.
        -12    1    3    3    0    0  0.29563833648E+01 -0.15239594961E+02  0.19501507310E+02  0.24925774703E+02  0.00000000000E+00 0.  1.
</event>
<event>
 7    1  0.5992960E-013  0.5052881E+02  0.7816164E-02  0.1300439E+00
        -11   -1    0    0    0    0  0.00000000000E+00  0.00000000000E+00  0.45593999997E+02  0.45594000000E+02  0.51100000000E-03 0. -1.
         11   -1    0    0    0    0 -0.00000000000E+00 -0.00000000000E+00 -0.45593999997E+02  0.45594000000E+02  0.51100000000E-03 0.  1.
    9900012    2    1    2    0    0 -0.34526351905E+02  0.20877276475E+02  0.50239176656E+01  0.50528814106E+02  0.29999860956E+02 0.  0.
        -12    1    1    2    0    0  0.34526351905E+02 -0.20877276475E+02 -0.50239176656E+01  0.40659185894E+02  0.00000000000E+00 0.  1.
         11    1    3    3    0    0 -0.18102452741E+02  0.46079566120E+01  0.11028062097E+02  0.21692169399E+02  0.51100000000E-03 0. -1.
        -11    1    3    3    0    0  0.23143784404E+00  0.78912885009E+01  0.25882161128E+01  0.83081201597E+01  0.51100000000E-03 0.  1.
         12    1    3    3    0    0 -0.16655337008E+02  0.83780313618E+01 -0.85923605439E+01  0.20528524547E+02  0.00000000000E+00 0. -1.
</event>
<event>
 7    1  0.5992960E-013  0.5052885E+02  0.7816164E-02  0.1300439E+00
        -11   -1    0    0    0    0  0.00000000000E+00  0.00000000000E+00  0.45593999997E+02  0.45594000000E+02  0.51100000000E-03 0.  1.
         11   -1    0    0    0    0 -0.00000000000E+00 -0.00000000000E+00 -0.45593999997E+02  0.45594000000E+02  0.51100000000E-03 0. -1.
    9900012    2    1    2    0    0 -0.34918364130E+02  0.60563370305E+01 -0.19929749300E+02  0.50528852458E+02  0.29999977531E+02 0.  0.
        -12    1    1    2    0    0  0.34918364130E+02 -0.60563370305E+01  0.19929749300E+02  0.40659147542E+02  0.00000000000E+00 0.  1.
         11    1    3    3    0    0 -0.17586331921E+01 -0.37087553054E+01 -0.11835136076E+02  0.12526695606E+02  0.51100000000E-03 0. -1.
        -11    1    3    3    0    0 -0.20322719589E+02  0.24961399950E+01 -0.10571587139E+02  0.23043482837E+02  0.51100000000E-03 0.  1.
        -12    1    3    3    0    0 -0.12837011349E+02  0.72689523409E+01  0.24769739148E+01  0.14958674015E+02  0.00000000000E+00 0.  1.
</event>
<event>
 7    1  0.5992960E-013  0.5052886E+02  0.7816164E-02  0.1300439E+00
        -11   -1    0    0    0    0  0.00000000000E+00  0.00000000000E+00  0.45593999997E+02  0.45594000000E+02  0.51100000000E-03 0.  1.
         11   -1    0    0    0    0 -0.00000000000E+00 -0.00000000000E+00 -0.45593999997E+02  0.45594000000E+02  0.51100000000E-03 0. -1.
    9900012    2    1    2    0    0  0.72467452990E+01  0.31623336474E+02 -0.24507439968E+02  0.50528863992E+02  0.30000012589E+02 0.  0.
        -12    1    1    2    0    0 -0.72467452990E+01 -0.31623336474E+02  0.24507439968E+02  0.40659136008E+02  0.00000000000E+00 0.  1.
         11    1    3    3    0    0  0.15104543104E+02  0.15922375162E+02 -0.58882362056E+01  0.22723128725E+02  0.51100000000E-03 0. -1.
        -11    1    3    3    0    0  0.26687882662E+01  0.30169508273E+01 -0.50240776873E+01  0.64393928264E+01  0.51100000000E-03 0.  1.
         12    1    3    3    0    0 -0.10526586071E+02  0.12684010484E+02 -0.13595126075E+02  0.21366342440E+02  0.00000000000E+00 0. -1.
</event>
<event>
 7    1  0.5992960E-013  0.5052886E+02  0.7816164E-02  0.1300439E+00
        -11   -1    0    0    0    0  0.00000000000E+00  0.00000000000E+00  0.45593999997E+02  0.45594000000E+02  0.51100000000E-03 0.  1.
         11   -1    0    0    0    0 -0.00000000000E+00 -0.00000000000E+00 -0.45593999997E+02  0.45594000000E+02  0.51100000000E-03 0. -1.
    9900012    2    1    2    0    0 -0.38562394587E+02 -0.65831821338E+01 -0.11080107122E+02  0.50528864038E+02  0.30000012731E+02 0.  0.
        -12    1    1    2    0    0  0.38562394587E+02  0.65831821338E+01  0.11080107122E+02  0.40659135962E+02  0.00000000000E+00 0.  1.
         11    1    3    3    0    0 -0.30339121644E+02 -0.46910403637E+01 -0.68298417588E+01  0.31450197146E+02  0.51100000000E-03 0. -1.
        -11    1    3    3    0    0 -0.13211041581E+02 -0.26011252817E+01 -0.39487197042E+01  0.14031744722E+02  0.51100000000E-03 0.  1.
        -12    1    3    3    0    0  0.49877686377E+01  0.70898351158E+00 -0.30154565867E+00  0.50469221697E+01  0.00000000000E+00 0.  1.
</event>
<event>
 7    1  0.5992960E-013  0.5052886E+02  0.7816164E-02  0.1300439E+00
        -11   -1    0    0    0    0  0.00000000000E+00  0.00000000000E+00  0.45593999997E+02  0.45594000000E+02  0.51100000000E-03 0.  1.
         11   -1    0    0    0    0 -0.00000000000E+00 -0.00000000000E+00 -0.45593999997E+02  0.45594000000E+02  0.51100000000E-03 0. -1.
    9900012    2    1    2    0    0 -0.38542941469E+02 -0.11149226313E+02 -0.65804402158E+01  0.50528858618E+02  0.29999996256E+02 0.  0.
        -12    1    1    2    0    0  0.38542941469E+02  0.11149226313E+02  0.65804402158E+01  0.40659141382E+02  0.00000000000E+00 0.  1.
         11    1    3    3    0    0 -0.10581468008E+02  0.71904065592E+00 -0.49330363841E+01  0.11696979649E+02  0.51100000000E-03 0.  1.
        -11    1    3    3    0    0 -0.74770104482E+01  0.44666015136E+01 -0.80510092311E+01  0.11860647715E+02  0.51100000000E-03 0. -1.
        -12    1    3    3    0    0 -0.20484463013E+02 -0.16334868483E+02  0.64036053993E+01  0.26971231254E+02  0.00000000000E+00 0.  1.
</event>
<event>
 7    1  0.5992960E-013  0.5052889E+02  0.7816164E-02  0.1300439E+00
        -11   -1    0    0    0    0  0.00000000000E+00  0.00000000000E+00  0.45593999997E+02  0.45594000000E+02  0.51100000000E-03 0.  1.
         11   -1    0    0    0    0 -0.00000000000E+00 -0.00000000000E+00 -0.45593999997E+02  0.45594000000E+02  0.51100000000E-03 0. -1.
    9900012    2    1    2    0    0  0.82433939366E+01  0.29525573456E+02 -0.26710495882E+02  0.50528885133E+02  0.30000076850E+02 0.  0.
        -12    1    1    2    0    0 -0.82433939366E+01 -0.29525573456E+02  0.26710495882E+02  0.40659114867E+02  0.00000000000E+00 0.  1.
         11    1    3    3    0    0 -0.10006646483E+01 -0.62610782141E+00 -0.51734508030E+01  0.53064050179E+01  0.51100000000E-03 0.  1.
        -11    1    3    3    0    0  0.69795465428E+01  0.25298524531E+01 -0.15016270884E+02  0.16751197417E+02  0.51100000000E-03 0. -1.
         12    1    3    3    0    0  0.22645120422E+01  0.27621828824E+02 -0.65207741952E+01  0.28471282698E+02  0.00000000000E+00 0. -1.
</event>
<event>
 7    1  0.5992960E-013  0.5052886E+02  0.7816164E-02  0.1300439E+00
        -11   -1    0    0    0    0  0.00000000000E+00  0.00000000000E+00  0.45593999997E+02  0.45594000000E+02  0.51100000000E-03 0. -1.
         11   -1    0    0    0    0 -0.00000000000E+00 -0.00000000000E+00 -0.45593999997E+02  0.45594000000E+02  0.51100000000E-03 0.  1.
    9900012    2    1    2    0    0  0.29691862286E+02  0.13281245691E+02  0.24396055450E+02  0.50528859642E+02  0.29999999368E+02 0.  0.
        -12    1    1    2    0    0 -0.29691862286E+02 -0.13281245691E+02 -0.24396055450E+02  0.40659140358E+02  0.00000000000E+00 0.  1.
         11    1    3    3    0    0  0.83419346574E+01  0.72837916017E+01  0.93570250993E+01  0.14498117564E+02  0.51100000000E-03 0. -1.
        -11    1    3    3    0    0  0.20383124169E+02  0.12833588158E+02  0.63066608919E+01  0.24898729039E+02  0.51100000000E-03 0.  1.
        -12    1    3    3    0    0  0.96680345958E+00 -0.68361340687E+01  0.87323694591E+01  0.11132013039E+02  0.00000000000E+00 0.  1.
</event>
<event>
 7    1  0.5992960E-013  0.5052886E+02  0.7816164E-02  0.1300439E+00
        -11   -1    0    0    0    0  0.00000000000E+00  0.00000000000E+00  0.45593999997E+02  0.45594000000E+02  0.51100000000E-03 0.  1.
         11   -1    0    0    0    0 -0.00000000000E+00 -0.00000000000E+00 -0.45593999997E+02  0.45594000000E+02  0.51100000000E-03 0. -1.
    9900012    2    1    2    0    0  0.14327019532E+02  0.17528123434E+02 -0.33773760276E+02  0.50528862245E+02  0.30000007281E+02 0.  0.
        -12    1    1    2    0    0 -0.14327019532E+02 -0.17528123434E+02  0.33773760276E+02  0.40659137755E+02  0.00000000000E+00 0.  1.
         11    1    3    3    0    0  0.80455610531E+01  0.13453593441E+01 -0.26071702599E+01  0.85637831272E+01  0.51100000000E-03 0. -1.
        -11    1    3    3    0    0  0.89512715968E+01 -0.24470932452E+01 -0.10064847345E+02  0.13689948170E+02  0.51100000000E-03 0.  1.
         12    1    3    3    0    0 -0.26698131184E+01  0.18629857335E+02 -0.21101742671E+02  0.28275130949E+02  0.00000000000E+00 0. -1.
</event>
<event>
 7    1  0.5992960E-013  0.5052886E+02  0.7816164E-02  0.1300439E+00
        -11   -1    0    0    0    0  0.00000000000E+00  0.00000000000E+00  0.45593999997E+02  0.45594000000E+02  0.51100000000E-03 0.  1.
         11   -1    0    0    0    0 -0.00000000000E+00 -0.00000000000E+00 -0.45593999997E+02  0.45594000000E+02  0.51100000000E-03 0. -1.
    9900012    2    1    2    0    0 -0.21953254447E+02 -0.29284521696E+02 -0.17709796311E+02  0.50528862317E+02  0.30000007498E+02 0.  0.
        -12    1    1    2    0    0  0.21953254447E+02  0.29284521696E+02  0.17709796311E+02  0.40659137683E+02  0.00000000000E+00 0.  1.
         11    1    3    3    0    0 -0.11079207430E+02 -0.18748481450E+02  0.21817820351E+01  0.21886401419E+02  0.51100000000E-03 0. -1.
        -11    1    3    3    0    0  0.24331495631E+01 -0.44884626455E+01 -0.18674608980E+01  0.54363521025E+01  0.51100000000E-03 0.  1.
         12    1    3    3    0    0 -0.13307196580E+02 -0.60475776007E+01 -0.18024117448E+02  0.23206108796E+02  0.00000000000E+00 0. -1.
</event>
<event>
 7    1  0.5992960E-013  0.5052886E+02  0.7816164E-02  0.1300439E+00
        -11   -1    0    0    0    0  0.00000000000E+00  0.00000000000E+00  0.45593999997E+02  0.45594000000E+02  0.51100000000E-03 0.  1.
         11   -1    0    0    0    0 -0.00000000000E+00 -0.00000000000E+00 -0.45593999997E+02  0.45594000000E+02  0.51100000000E-03 0. -1.
    9900012    2    1    2    0    0 -0.36306942382E+02 -0.61303767821E+01 -0.17244990426E+02  0.50528864748E+02  0.30000014888E+02 0.  0.
        -12    1    1    2    0    0  0.36306942382E+02  0.61303767821E+01  0.17244990426E+02  0.40659135252E+02  0.00000000000E+00 0.  1.
         11    1    3    3    0    0 -0.84097438954E+01  0.45721478203E+01  0.20068611471E+01  0.97803793383E+01  0.51100000000E-03 0.  1.
        -11    1    3    3    0    0 -0.42207606744E+01 -0.73231608910E+00 -0.13849047828E+02  0.14496455896E+02  0.51100000000E-03 0. -1.
         12    1    3    3    0    0 -0.23676437813E+02 -0.99702085133E+01 -0.54028037450E+01  0.26252029514E+02  0.00000000000E+00 0. -1.
</event>
<event>
 7    1  0.5992960E-013  0.5052886E+02  0.7816164E-02  0.1300439E+00
        -11   -1    0    0    0    0  0.00000000000E+00  0.00000000000E+00  0.45593999997E+02  0.45594000000E+02  0.51100000000E-03 0.  1.
         11   -1    0    0    0    0 -0.00000000000E+00 -0.00000000000E+00 -0.45593999997E+02  0.45594000000E+02  0.51100000000E-03 0. -1.
    9900012    2    1    2    0    0 -0.22721290745E+02 -0.33574452906E+02  0.31088078462E+01  0.50528860471E+02  0.30000001887E+02 0.  0.
        -12    1    1    2    0    0  0.22721290745E+02  0.33574452906E+02 -0.31088078462E+01  0.40659139529E+02  0.00000000000E+00 0.  1.
         11    1    3    3    0    0 -0.15201081333E+02 -0.23809543064E+02  0.34163223014E+01  0.28454146850E+02  0.51100000000E-03 0. -1.
        -11    1    3    3    0    0 -0.13027897482E+02 -0.99463184329E+01  0.96475813441E+00  0.16419077980E+02  0.51100000000E-03 0.  1.
         12    1    3    3    0    0  0.55076880708E+01  0.18140859142E+00 -0.12722725896E+01  0.56556356411E+01  0.00000000000E+00 0. -1.
</event>
<event>
 7    1  0.5992960E-013  0.5052886E+02  0.7816164E-02  0.1300439E+00
        -11   -1    0    0    0    0  0.00000000000E+00  0.00000000000E+00  0.45593999997E+02  0.45594000000E+02  0.51100000000E-03 0.  1.
         11   -1    0    0    0    0 -0.00000000000E+00 -0.00000000000E+00 -0.45593999997E+02  0.45594000000E+02  0.51100000000E-03 0. -1.
    9900012    2    1    2    0    0  0.30730567634E+02  0.31225236508E+01 -0.26439512310E+02  0.50528858934E+02  0.29999997215E+02 0.  0.
        -12    1    1    2    0    0 -0.30730567634E+02 -0.31225236508E+01  0.26439512310E+02  0.40659141066E+02  0.00000000000E+00 0.  1.
         11    1    3    3    0    0  0.76854797147E+01  0.34369452461E+01 -0.15256158231E+02  0.17424969306E+02  0.51100000000E-03 0. -1.
        -11    1    3    3    0    0  0.95155570073E+00 -0.53863982300E+01 -0.87316934557E+01  0.10303456459E+02  0.51100000000E-03 0.  1.
         12    1    3    3    0    0  0.22093532218E+02  0.50719766348E+01 -0.24516606235E+01  0.22800433169E+02  0.00000000000E+00 0. -1.
</event>
<event>
 7    1  0.5992960E-013  0.5052886E+02  0.7816164E-02  0.1300439E+00
        -11   -1    0    0    0    0  0.00000000000E+00  0.00000000000E+00  0.45593999997E+02  0.45594000000E+02  0.51100000000E-03 0.  1.
         11   -1    0    0    0    0 -0.00000000000E+00 -0.00000000000E+00 -0.45593999997E+02  0.45594000000E+02  0.51100000000E-03 0. -1.
    9900012    2    1    2    0    0  0.31992669017E+02  0.23616463914E+02 -0.84792532985E+01  0.50528856193E+02  0.29999988884E+02 0.  0.
        -12    1    1    2    0    0 -0.31992669017E+02 -0.23616463914E+02  0.84792532985E+01  0.40659143807E+02  0.00000000000E+00 0.  1.
         11    1    3    3    0    0  0.15324948694E+02  0.23491707200E+02 -0.12881694289E+02  0.30865067758E+02  0.51100000000E-03 0. -1.
        -11    1    3    3    0    0  0.50267726321E+01 -0.10670009841E+01 -0.28703511386E+01  0.58860725544E+01  0.51100000000E-03 0.  1.
        -12    1    3    3    0    0  0.11640947690E+02  0.11917576983E+01  0.72727921292E+01  0.13777715881E+02  0.00000000000E+00 0.  1.
</event>
<event>
 7    1  0.5992960E-013  0.5052886E+02  0.7816164E-02  0.1300439E+00
        -11   -1    0    0    0    0  0.00000000000E+00  0.00000000000E+00  0.45593999997E+02  0.45594000000E+02  0.51100000000E-03 0. -1.
         11   -1    0    0    0    0 -0.00000000000E+00 -0.00000000000E+00 -0.45593999997E+02  0.45594000000E+02  0.51100000000E-03 0.  1.
    9900012    2    1    2    0    0 -0.19061176012E+02  0.34960949468E+02  0.82200644148E+01  0.50528857392E+02  0.29999992529E+02 0.  0.
        -12    1    1    2    0    0  0.19061176012E+02 -0.34960949468E+02 -0.82200644148E+01  0.40659142608E+02  0.00000000000E+00 0.  1.
         11    1    3    3    0    0 -0.64366628413E+01  0.12759363458E+02  0.11596825573E+02  0.18404302432E+02  0.51100000000E-03 0. -1.
        -11    1    3    3    0    0 -0.10757441743E+02  0.21329615436E+02  0.42152552868E+01  0.24257852850E+02  0.51100000000E-03 0.  1.
        -12    1    3    3    0    0 -0.18670714269E+01  0.87197057400E+00 -0.75920164446E+01  0.78667021102E+01  0.00000000000E+00 0.  1.
</event>
<event>
 7    1  0.5992960E-013  0.5052886E+02  0.7816164E-02  0.1300439E+00
        -11   -1    0    0    0    0  0.00000000000E+00  0.00000000000E+00  0.45593999997E+02  0.45594000000E+02  0.51100000000E-03 0.  1.
         11   -1    0    0    0    0 -0.00000000000E+00 -0.00000000000E+00 -0.45593999997E+02  0.45594000000E+02  0.51100000000E-03 0. -1.
    9900012    2    1    2    0    0  0.44856599778E+01  0.43067952914E+01 -0.40180795905E+02  0.50528856001E+02  0.29999988301E+02 0.  0.
        -12    1    1    2    0    0 -0.44856599778E+01 -0.43067952914E+01  0.40180795905E+02  0.40659143999E+02  0.00000000000E+00 0.  1.
         11    1    3    3    0    0  0.13303687728E+01  0.10754197147E+02 -0.80119060982E+01  0.13476397031E+02  0.51100000000E-03 0. -1.
        -11    1    3    3    0    0 -0.21798256930E+00  0.30251763057E+00  0.20131690040E+01  0.20474088544E+01  0.51100000000E-03 0.  1.
         12    1    3    3    0    0  0.33732737743E+01 -0.67499194864E+01 -0.34182058811E+02  0.35005050116E+02  0.00000000000E+00 0. -1.
</event>
<event>
 7    1  0.5992960E-013  0.5052887E+02  0.7816164E-02  0.1300439E+00
        -11   -1    0    0    0    0  0.00000000000E+00  0.00000000000E+00  0.45593999997E+02  0.45594000000E+02  0.51100000000E-03 0.  1.
         11   -1    0    0    0    0 -0.00000000000E+00 -0.00000000000E+00 -0.45593999997E+02  0.45594000000E+02  0.51100000000E-03 0. -1.
    9900012    2    1    2    0    0  0.58402061710E+01 -0.96401963018E+01 -0.39065626051E+02  0.50528873945E+02  0.30000042843E+02 0.  0.
        -12    1    1    2    0    0 -0.58402061710E+01  0.96401963018E+01  0.39065626051E+02  0.40659126055E+02  0.00000000000E+00 0.  1.
         11    1    3    3    0    0 -0.74753915773E+01 -0.46074039904E+01 -0.22086074512E+02  0.23767716305E+02  0.51100000000E-03 0. -1.
        -11    1    3    3    0    0 -0.19059588474E+01  0.21485617889E+01 -0.60390593195E+01  0.66872441718E+01  0.51100000000E-03 0.  1.
         12    1    3    3    0    0  0.15221556596E+02 -0.71813541002E+01 -0.10940492219E+02  0.20073913468E+02  0.00000000000E+00 0. -1.
</event>
<event>
 7    1  0.5992960E-013  0.5052886E+02  0.7816164E-02  0.1300439E+00
        -11   -1    0    0    0    0  0.00000000000E+00  0.00000000000E+00  0.45593999997E+02  0.45594000000E+02  0.51100000000E-03 0.  1.
         11   -1    0    0    0    0 -0.00000000000E+00 -0.00000000000E+00 -0.45593999997E+02  0.45594000000E+02  0.51100000000E-03 0. -1.
    9900012    2    1    2    0    0  0.25528237531E+02 -0.28313342296E+02 -0.14136104742E+02  0.50528859322E+02  0.29999998394E+02 0.  0.
        -12    1    1    2    0    0 -0.25528237531E+02  0.28313342296E+02  0.14136104742E+02  0.40659140678E+02  0.00000000000E+00 0.  1.
         11    1    3    3    0    0 -0.11867113157E+00 -0.67851512521E+01 -0.23860166946E+01  0.71934300775E+01  0.51100000000E-03 0. -1.
        -11    1    3    3    0    0 -0.41637538923E+01 -0.44650148918E+01  0.18697742024E+01  0.63850810715E+01  0.51100000000E-03 0.  1.
         12    1    3    3    0    0  0.29810662555E+02 -0.17063176153E+02 -0.13619862250E+02  0.36950348173E+02  0.00000000000E+00 0. -1.
</event>
<event>
 7    1  0.5992960E-013  0.5052885E+02  0.7816164E-02  0.1300439E+00
        -11   -1    0    0    0    0  0.00000000000E+00  0.00000000000E+00  0.45593999997E+02  0.45594000000E+02  0.51100000000E-03 0. -1.
         11   -1    0    0    0    0 -0.00000000000E+00 -0.00000000000E+00 -0.45593999997E+02  0.45594000000E+02  0.51100000000E-03 0.  1.
    9900012    2    1    2    0    0 -0.40932328203E+00 -0.14052625135E+02  0.38151316029E+02  0.50528846867E+02  0.29999960536E+02 0.  0.
        -12    1    1    2    0    0  0.40932328203E+00  0.14052625135E+02 -0.38151316029E+02  0.40659153133E+02  0.00000000000E+00 0.  1.
         11    1    3    3    0    0  0.42293363138E+01 -0.80214093364E+01  0.16155487640E+02  0.18526469565E+02  0.51100000000E-03 0. -1.
        -11    1    3    3    0    0  0.27228367455E+01 -0.12818908481E+02  0.14108304197E+02  0.19255713494E+02  0.51100000000E-03 0.  1.
        -12    1    3    3    0    0 -0.73614963413E+01  0.67876926823E+01  0.78875241920E+01  0.12746663807E+02  0.00000000000E+00 0.  1.
</event>
<event>
 7    1  0.5992960E-013  0.5052878E+02  0.7816164E-02  0.1300439E+00
        -11   -1    0    0    0    0  0.00000000000E+00  0.00000000000E+00  0.45593999997E+02  0.45594000000E+02  0.51100000000E-03 0.  1.
         11   -1    0    0    0    0 -0.00000000000E+00 -0.00000000000E+00 -0.45593999997E+02  0.45594000000E+02  0.51100000000E-03 0. -1.
    9900012    2    1    2    0    0 -0.28268934353E+02  0.74905688339E+01 -0.28247663806E+02  0.50528784791E+02  0.29999771850E+02 0.  0.
        -12    1    1    2    0    0  0.28268934353E+02 -0.74905688339E+01  0.28247663806E+02  0.40659215209E+02  0.00000000000E+00 0.  1.
         11    1    3    3    0    0 -0.10276154272E+02 -0.48479255064E+01 -0.30782935490E+01  0.11771899582E+02  0.51100000000E-03 0. -1.
        -11    1    3    3    0    0 -0.88153384930E+01 -0.47155390184E+00  0.27019448300E+00  0.88320756987E+01  0.51100000000E-03 0.  1.
         12    1    3    3    0    0 -0.91774415881E+01  0.12810048242E+02 -0.25439564740E+02  0.29924809510E+02  0.00000000000E+00 0. -1.
</event>
<event>
 7    1  0.5992960E-013  0.5052886E+02  0.7816164E-02  0.1300439E+00
        -11   -1    0    0    0    0  0.00000000000E+00  0.00000000000E+00  0.45593999997E+02  0.45594000000E+02  0.51100000000E-03 0.  1.
         11   -1    0    0    0    0 -0.00000000000E+00 -0.00000000000E+00 -0.45593999997E+02  0.45594000000E+02  0.51100000000E-03 0. -1.
    9900012    2    1    2    0    0  0.11699839536E+02  0.22517946666E+02 -0.31768246242E+02  0.50528860357E+02  0.30000001541E+02 0.  0.
        -12    1    1    2    0    0 -0.11699839536E+02 -0.22517946666E+02  0.31768246242E+02  0.40659139643E+02  0.00000000000E+00 0.  1.
         11    1    3    3    0    0 -0.19484401214E+00 -0.63110019429E+00 -0.10556853090E+02  0.10577494934E+02  0.51100000000E-03 0. -1.
        -11    1    3    3    0    0 -0.23636141167E+01  0.12398735950E+02 -0.17720947339E+02  0.21756546135E+02  0.51100000000E-03 0.  1.
         12    1    3    3    0    0  0.14258297665E+02  0.10750310910E+02 -0.34904458126E+01  0.18194819288E+02  0.00000000000E+00 0. -1.
</event>
<event>
 7    1  0.5992960E-013  0.5052881E+02  0.7816164E-02  0.1300439E+00
        -11   -1    0    0    0    0  0.00000000000E+00  0.00000000000E+00  0.45593999997E+02  0.45594000000E+02  0.51100000000E-03 0.  1.
         11   -1    0    0    0    0 -0.00000000000E+00 -0.00000000000E+00 -0.45593999997E+02  0.45594000000E+02  0.51100000000E-03 0. -1.
    9900012    2    1    2    0    0 -0.31847402841E+02 -0.16790240128E+02 -0.18894457151E+02  0.50528809866E+02  0.29999848070E+02 0.  0.
        -12    1    1    2    0    0  0.31847402841E+02  0.16790240128E+02  0.18894457151E+02  0.40659190134E+02  0.00000000000E+00 0.  1.
         11    1    3    3    0    0 -0.22898219322E+02 -0.18051412067E+02 -0.61237052589E+01  0.29793987516E+02  0.51100000000E-03 0. -1.
        -11    1    3    3    0    0 -0.12198406101E+02 -0.75724065307E+00 -0.11273007608E+02  0.16626942762E+02  0.51100000000E-03 0.  1.
        -12    1    3    3    0    0  0.32492225820E+01  0.20184125916E+01 -0.14977442844E+01  0.41078795892E+01  0.00000000000E+00 0.  1.
</event>
<event>
 7    1  0.5992960E-013  0.5052886E+02  0.7816164E-02  0.1300439E+00
        -11   -1    0    0    0    0  0.00000000000E+00  0.00000000000E+00  0.45593999997E+02  0.45594000000E+02  0.51100000000E-03 0.  1.
         11   -1    0    0    0    0 -0.00000000000E+00 -0.00000000000E+00 -0.45593999997E+02  0.45594000000E+02  0.51100000000E-03 0. -1.
    9900012    2    1    2    0    0 -0.31573159569E+02 -0.17897682976E+01 -0.25555776376E+02  0.50528863488E+02  0.30000011059E+02 0.  0.
        -12    1    1    2    0    0  0.31573159569E+02  0.17897682976E+01  0.25555776376E+02  0.40659136512E+02  0.00000000000E+00 0.  1.
         11    1    3    3    0    0 -0.96510710053E+01  0.21561743577E+01 -0.14493118447E+02  0.17545447899E+02  0.51100000000E-03 0. -1.
        -11    1    3    3    0    0 -0.11415564016E+01  0.41294373787E+01 -0.97506725856E+01  0.10650400003E+02  0.51100000000E-03 0.  1.
        -12    1    3    3    0    0 -0.20780532162E+02 -0.80753800340E+01 -0.13119853432E+01  0.22333015586E+02  0.00000000000E+00 0.  1.
</event>
<event>
 7    1  0.5992960E-013  0.5052888E+02  0.7816164E-02  0.1300439E+00
        -11   -1    0    0    0    0  0.00000000000E+00  0.00000000000E+00  0.45593999997E+02  0.45594000000E+02  0.51100000000E-03 0.  1.
         11   -1    0    0    0    0 -0.00000000000E+00 -0.00000000000E+00 -0.45593999997E+02  0.45594000000E+02  0.51100000000E-03 0. -1.
    9900012    2    1    2    0    0  0.26956004517E+02  0.17943291642E+02  0.24588122551E+02  0.50528884601E+02  0.30000075233E+02 0.  0.
        -12    1    1    2    0    0 -0.26956004517E+02 -0.17943291642E+02 -0.24588122551E+02  0.40659115399E+02  0.00000000000E+00 0.  1.
         11    1    3    3    0    0  0.19627188815E+02  0.18577203125E+02  0.19454763060E+02  0.33299051379E+02  0.51100000000E-03 0. -1.
        -11    1    3    3    0    0  0.66642881828E+01  0.54393936571E+01  0.67219142627E+01  0.10917136619E+02  0.51100000000E-03 0.  1.
        -12    1    3    3    0    0  0.66452751828E+00 -0.60733051399E+01 -0.15885547712E+01  0.63126966033E+01  0.00000000000E+00 0.  1.
</event>
<event>
 7    1  0.5992960E-013  0.5052885E+02  0.7816164E-02  0.1300439E+00
        -11   -1    0    0    0    0  0.00000000000E+00  0.00000000000E+00  0.45593999997E+02  0.45594000000E+02  0.51100000000E-03 0.  1.
         11   -1    0    0    0    0 -0.00000000000E+00 -0.00000000000E+00 -0.45593999997E+02  0.45594000000E+02  0.51100000000E-03 0. -1.
    9900012    2    1    2    0    0 -0.17030008943E+02 -0.33291753388E+00 -0.36919297847E+02  0.50528848605E+02  0.29999965819E+02 0.  0.
        -12    1    1    2    0    0  0.17030008943E+02  0.33291753388E+00  0.36919297847E+02  0.40659151395E+02  0.00000000000E+00 0.  1.
         11    1    3    3    0    0 -0.52296284405E+01  0.62846295960E+01 -0.26600025392E+02  0.27828167994E+02  0.51100000000E-03 0. -1.
        -11    1    3    3    0    0 -0.47008462828E+01  0.46051404107E+01 -0.14709049817E+01  0.67430583346E+01  0.51100000000E-03 0.  1.
         12    1    3    3    0    0 -0.70995342199E+01 -0.11222687541E+02 -0.88483674724E+01  0.15957622276E+02  0.00000000000E+00 0. -1.
</event>
<event>
 7    1  0.5992960E-013  0.5052884E+02  0.7816164E-02  0.1300439E+00
        -11   -1    0    0    0    0  0.00000000000E+00  0.00000000000E+00  0.45593999997E+02  0.45594000000E+02  0.51100000000E-03 0.  1.
         11   -1    0    0    0    0 -0.00000000000E+00 -0.00000000000E+00 -0.45593999997E+02  0.45594000000E+02  0.51100000000E-03 0. -1.
    9900012    2    1    2    0    0  0.12985613040E+02  0.40411749826E+01 -0.38317233279E+02  0.50528836120E+02  0.29999927870E+02 0.  0.
        -12    1    1    2    0    0 -0.12985613040E+02 -0.40411749826E+01  0.38317233279E+02  0.40659163880E+02  0.00000000000E+00 0.  1.
         11    1    3    3    0    0  0.11417541984E+02  0.10571336790E+02 -0.11275400150E+02  0.19215828770E+02  0.51100000000E-03 0. -1.
        -11    1    3    3    0    0 -0.53902786996E+01  0.87406625145E+00 -0.11699691431E+02  0.12911308071E+02  0.51100000000E-03 0.  1.
        -12    1    3    3    0    0  0.69583497560E+01 -0.74042280590E+01 -0.15342141698E+02  0.18401699279E+02  0.00000000000E+00 0.  1.
</event>
<event>
 7    1  0.5992960E-013  0.5052886E+02  0.7816164E-02  0.1300439E+00
        -11   -1    0    0    0    0  0.00000000000E+00  0.00000000000E+00  0.45593999997E+02  0.45594000000E+02  0.51100000000E-03 0. -1.
         11   -1    0    0    0    0 -0.00000000000E+00 -0.00000000000E+00 -0.45593999997E+02  0.45594000000E+02  0.51100000000E-03 0.  1.
    9900012    2    1    2    0    0  0.38870172710E+00  0.40035566348E+02 -0.70829439081E+01  0.50528858885E+02  0.29999997066E+02 0.  0.
        -12    1    1    2    0    0 -0.38870172710E+00 -0.40035566348E+02  0.70829439081E+01  0.40659141115E+02  0.00000000000E+00 0.  1.
         11    1    3    3    0    0  0.47165767744E+01  0.13953454583E+02 -0.86302257875E+01  0.17071197635E+02  0.51100000000E-03 0. -1.
        -11    1    3    3    0    0 -0.79894688495E+01  0.63899772621E+01 -0.62219597315E+01  0.11973980335E+02  0.51100000000E-03 0.  1.
         12    1    3    3    0    0  0.36615938022E+01  0.19692134503E+02  0.77692416109E+01  0.21483680915E+02  0.00000000000E+00 0. -1.
</event>
<event>
 7    1  0.5992960E-013  0.5052889E+02  0.7816164E-02  0.1300439E+00
        -11   -1    0    0    0    0  0.00000000000E+00  0.00000000000E+00  0.45593999997E+02  0.45594000000E+02  0.51100000000E-03 0.  1.
         11   -1    0    0    0    0 -0.00000000000E+00 -0.00000000000E+00 -0.45593999997E+02  0.45594000000E+02  0.51100000000E-03 0. -1.
    9900012    2    1    2    0    0 -0.33491613384E+01 -0.39362874414E+02  0.96182157820E+01  0.50528894764E+02  0.30000106124E+02 0.  0.
        -12    1    1    2    0    0  0.33491613384E+01  0.39362874414E+02 -0.96182157820E+01  0.40659105236E+02  0.00000000000E+00 0.  1.
         11    1    3    3    0    0 -0.11110559970E+02 -0.22982220351E+02  0.10336893899E+02  0.27540486032E+02  0.51100000000E-03 0. -1.
        -11    1    3    3    0    0  0.53730056682E+01 -0.65223047084E+01  0.63963804812E+01  0.10598270243E+02  0.51100000000E-03 0.  1.
         12    1    3    3    0    0  0.23883929632E+01 -0.98583493540E+01 -0.71150585982E+01  0.12390138489E+02  0.00000000000E+00 0. -1.
</event>
<event>
 7    1  0.5992960E-013  0.5052886E+02  0.7816164E-02  0.1300439E+00
        -11   -1    0    0    0    0  0.00000000000E+00  0.00000000000E+00  0.45593999997E+02  0.45594000000E+02  0.51100000000E-03 0.  1.
         11   -1    0    0    0    0 -0.00000000000E+00 -0.00000000000E+00 -0.45593999997E+02  0.45594000000E+02  0.51100000000E-03 0. -1.
    9900012    2    1    2    0    0 -0.70901952886E+01  0.39761521117E+02  0.46814738671E+01  0.50528860457E+02  0.30000001845E+02 0.  0.
        -12    1    1    2    0    0  0.70901952886E+01 -0.39761521117E+02 -0.46814738671E+01  0.40659139543E+02  0.00000000000E+00 0.  1.
         11    1    3    3    0    0 -0.83619142390E+00  0.27733411364E+01 -0.28344221736E+01  0.40527258081E+01  0.51100000000E-03 0. -1.
        -11    1    3    3    0    0  0.76725679964E+00 -0.30092284008E+01 -0.32183878237E+01  0.44723773331E+01  0.51100000000E-03 0.  1.
         12    1    3    3    0    0 -0.70212606644E+01  0.39997408382E+02  0.10734283864E+02  0.42003757316E+02  0.00000000000E+00 0. -1.
</event>
<event>
 7    1  0.5992960E-013  0.5052886E+02  0.7816164E-02  0.1300439E+00
        -11   -1    0    0    0    0  0.00000000000E+00  0.00000000000E+00  0.45593999997E+02  0.45594000000E+02  0.51100000000E-03 0.  1.
         11   -1    0    0    0    0 -0.00000000000E+00 -0.00000000000E+00 -0.45593999997E+02  0.45594000000E+02  0.51100000000E-03 0. -1.
    9900012    2    1    2    0    0  0.18958907651E+02 -0.20929151543E+02 -0.29252283068E+02  0.50528860458E+02  0.30000001848E+02 0.  0.
        -12    1    1    2    0    0 -0.18958907651E+02  0.20929151543E+02  0.29252283068E+02  0.40659139542E+02  0.00000000000E+00 0.  1.
         11    1    3    3    0    0 -0.13616298102E+01 -0.19109482128E+00 -0.16097213688E+01  0.21170158518E+01  0.51100000000E-03 0. -1.
        -11    1    3    3    0    0  0.95740745258E+01 -0.19285705143E+02 -0.33259179739E+01  0.21786763333E+02  0.51100000000E-03 0.  1.
        -12    1    3    3    0    0  0.10746462936E+02 -0.14523515781E+01 -0.24316643725E+02  0.26625081273E+02  0.00000000000E+00 0.  1.
</event>
<event>
 7    1  0.5992960E-013  0.5052886E+02  0.7816164E-02  0.1300439E+00
        -11   -1    0    0    0    0  0.00000000000E+00  0.00000000000E+00  0.45593999997E+02  0.45594000000E+02  0.51100000000E-03 0.  1.
         11   -1    0    0    0    0 -0.00000000000E+00 -0.00000000000E+00 -0.45593999997E+02  0.45594000000E+02  0.51100000000E-03 0. -1.
    9900012    2    1    2    0    0  0.35797235814E+01  0.33378901685E+02 -0.22939057332E+02  0.50528857733E+02  0.29999993566E+02 0.  0.
        -12    1    1    2    0    0 -0.35797235814E+01 -0.33378901685E+02  0.22939057332E+02  0.40659142267E+02  0.00000000000E+00 0.  1.
         11    1    3    3    0    0  0.33808133821E+01  0.14108642894E+02 -0.78786772061E+01  0.16509308230E+02  0.51100000000E-03 0. -1.
        -11    1    3    3    0    0  0.45094491003E+01  0.23622073209E+02 -0.13927102169E+02  0.27790315740E+02  0.51100000000E-03 0.  1.
        -12    1    3    3    0    0 -0.43105389010E+01 -0.43518144181E+01 -0.11332779566E+01  0.62292337630E+01  0.00000000000E+00 0.  1.
</event>
<event>
 7    1  0.5992960E-013  0.5052886E+02  0.7816164E-02  0.1300439E+00
        -11   -1    0    0    0    0  0.00000000000E+00  0.00000000000E+00  0.45593999997E+02  0.45594000000E+02  0.51100000000E-03 0. -1.
         11   -1    0    0    0    0 -0.00000000000E+00 -0.00000000000E+00 -0.45593999997E+02  0.45594000000E+02  0.51100000000E-03 0.  1.
    9900012    2    1    2    0    0 -0.33822945990E+02 -0.74088588181E+01  0.21313915872E+02  0.50528857434E+02  0.29999992657E+02 0.  0.
        -12    1    1    2    0    0  0.33822945990E+02  0.74088588181E+01 -0.21313915872E+02  0.40659142566E+02  0.00000000000E+00 0.  1.
         11    1    3    3    0    0 -0.13474149715E+01 -0.63016204392E+01  0.14062277140E+01  0.65957125400E+01  0.51100000000E-03 0. -1.
        -11    1    3    3    0    0 -0.43614589664E+01 -0.87206464616E+01  0.27598848756E+01  0.10133556326E+02  0.51100000000E-03 0.  1.
        -12    1    3    3    0    0 -0.28114072052E+02  0.76134080827E+01  0.17147803282E+02  0.33799588568E+02  0.00000000000E+00 0.  1.
</event>
<event>
 7    1  0.5992960E-013  0.5052886E+02  0.7816164E-02  0.1300439E+00
        -11   -1    0    0    0    0  0.00000000000E+00  0.00000000000E+00  0.45593999997E+02  0.45594000000E+02  0.51100000000E-03 0.  1.
         11   -1    0    0    0    0 -0.00000000000E+00 -0.00000000000E+00 -0.45593999997E+02  0.45594000000E+02  0.51100000000E-03 0. -1.
    9900012    2    1    2    0    0  0.22338577521E+02 -0.28239131519E+02 -0.18886636830E+02  0.50528860248E+02  0.30000001209E+02 0.  0.
        -12    1    1    2    0    0 -0.22338577521E+02  0.28239131519E+02  0.18886636830E+02  0.40659139752E+02  0.00000000000E+00 0.  1.
         11    1    3    3    0    0 -0.25950923438E+01 -0.11264807001E+01 -0.19488662784E+01  0.34353374030E+01  0.51100000000E-03 0. -1.
        -11    1    3    3    0    0 -0.28471791572E+01 -0.52758203939E+01  0.28023176562E+01  0.66176804463E+01  0.51100000000E-03 0.  1.
         12    1    3    3    0    0  0.27780849022E+02 -0.21836830425E+02 -0.19740088208E+02  0.40475842399E+02  0.00000000000E+00 0. -1.
</event>
<event>
 7    1  0.5992960E-013  0.5052886E+02  0.7816164E-02  0.1300439E+00
        -11   -1    0    0    0    0  0.00000000000E+00  0.00000000000E+00  0.45593999997E+02  0.45594000000E+02  0.51100000000E-03 0. -1.
         11   -1    0    0    0    0 -0.00000000000E+00 -0.00000000000E+00 -0.45593999997E+02  0.45594000000E+02  0.51100000000E-03 0.  1.
    9900012    2    1    2    0    0 -0.28505985583E+02 -0.98778610617E+01  0.27258066982E+02  0.50528861190E+02  0.30000004074E+02 0.  0.
        -12    1    1    2    0    0  0.28505985583E+02  0.98778610617E+01 -0.27258066982E+02  0.40659138810E+02  0.00000000000E+00 0.  1.
         11    1    3    3    0    0 -0.34617372575E+01  0.25014803974E+01 -0.26525441256E+01  0.50276256442E+01  0.51100000000E-03 0. -1.
        -11    1    3    3    0    0  0.11863071813E+01  0.16883258142E+01 -0.12473079675E+01  0.24111296544E+01  0.51100000000E-03 0.  1.
         12    1    3    3    0    0 -0.26230555506E+02 -0.14067667273E+02  0.31157919075E+02  0.43090105892E+02  0.00000000000E+00 0. -1.
</event>
<event>
 7    1  0.5992960E-013  0.5052887E+02  0.7816164E-02  0.1300439E+00
        -11   -1    0    0    0    0  0.00000000000E+00  0.00000000000E+00  0.45593999997E+02  0.45594000000E+02  0.51100000000E-03 0.  1.
         11   -1    0    0    0    0 -0.00000000000E+00 -0.00000000000E+00 -0.45593999997E+02  0.45594000000E+02  0.51100000000E-03 0. -1.
    9900012    2    1    2    0    0 -0.34487774768E+00  0.18972118901E+02 -0.35959765204E+02  0.50528868802E+02  0.30000027210E+02 0.  0.
        -12    1    1    2    0    0  0.34487774768E+00 -0.18972118901E+02  0.35959765204E+02  0.40659131198E+02  0.00000000000E+00 0.  1.
         11    1    3    3    0    0  0.44251977899E+01  0.39152317050E+00 -0.39517113591E+01  0.59457286180E+01  0.51100000000E-03 0. -1.
        -11    1    3    3    0    0 -0.72474946061E+01  0.76028575525E+01  0.15827087709E+00  0.10504983149E+02  0.51100000000E-03 0.  1.
         12    1    3    3    0    0  0.24774190685E+01  0.10977738178E+02 -0.32166324722E+02  0.34078157035E+02  0.00000000000E+00 0. -1.
</event>
<event>
 7    1  0.5992960E-013  0.5052886E+02  0.7816164E-02  0.1300439E+00
        -11   -1    0    0    0    0  0.00000000000E+00  0.00000000000E+00  0.45593999997E+02  0.45594000000E+02  0.51100000000E-03 0. -1.
         11   -1    0    0    0    0 -0.00000000000E+00 -0.00000000000E+00 -0.45593999997E+02  0.45594000000E+02  0.51100000000E-03 0.  1.
    9900012    2    1    2    0    0  0.17097501617E+02 -0.35851120286E+01  0.36714956902E+02  0.50528860190E+02  0.30000001033E+02 0.  0.
        -12    1    1    2    0    0 -0.17097501617E+02  0.35851120286E+01 -0.36714956902E+02  0.40659139810E+02  0.00000000000E+00 0.  1.
         11    1    3    3    0    0  0.14011332010E+02 -0.42880784947E+00  0.25453045063E+02  0.29057852709E+02  0.51100000000E-03 0. -1.
        -11    1    3    3    0    0  0.88273550077E+01 -0.44171040973E+01  0.12009733478E+02  0.15545632940E+02  0.51100000000E-03 0.  1.
        -12    1    3    3    0    0 -0.57411854007E+01  0.12607999182E+01 -0.74782163902E+00  0.59253745402E+01  0.00000000000E+00 0.  1.
</event>
<event>
 7    1  0.5992960E-013  0.5052887E+02  0.7816164E-02  0.1300439E+00
        -11   -1    0    0    0    0  0.00000000000E+00  0.00000000000E+00  0.45593999997E+02  0.45594000000E+02  0.51100000000E-03 0.  1.
         11   -1    0    0    0    0 -0.00000000000E+00 -0.00000000000E+00 -0.45593999997E+02  0.45594000000E+02  0.51100000000E-03 0. -1.
    9900012    2    1    2    0    0  0.88561224724E+01 -0.14566297170E+02 -0.36912826169E+02  0.50528872436E+02  0.30000038257E+02 0.  0.
        -12    1    1    2    0    0 -0.88561224724E+01  0.14566297170E+02  0.36912826169E+02  0.40659127564E+02  0.00000000000E+00 0.  1.
         11    1    3    3    0    0 -0.25986969298E+00 -0.12716284123E+02 -0.25256407877E+02  0.28278216939E+02  0.51100000000E-03 0. -1.
        -11    1    3    3    0    0 -0.38371379051E+01 -0.36383790100E+01 -0.60171394538E+01  0.80104554547E+01  0.51100000000E-03 0.  1.
         12    1    3    3    0    0  0.12953130070E+02  0.17883659625E+01 -0.56392788384E+01  0.14240200043E+02  0.00000000000E+00 0. -1.
</event>
<event>
 7    1  0.5992960E-013  0.5052886E+02  0.7816164E-02  0.1300439E+00
        -11   -1    0    0    0    0  0.00000000000E+00  0.00000000000E+00  0.45593999997E+02  0.45594000000E+02  0.51100000000E-03 0.  1.
         11   -1    0    0    0    0 -0.00000000000E+00 -0.00000000000E+00 -0.45593999997E+02  0.45594000000E+02  0.51100000000E-03 0. -1.
    9900012    2    1    2    0    0  0.33410682294E+02  0.22742444375E+02  0.44354422132E+01  0.50528860620E+02  0.30000002341E+02 0.  0.
        -12    1    1    2    0    0 -0.33410682294E+02 -0.22742444375E+02 -0.44354422132E+01  0.40659139380E+02  0.00000000000E+00 0.  1.
         11    1    3    3    0    0  0.11387328705E+02  0.83739710796E+01 -0.21173657464E+01  0.14292581455E+02  0.51100000000E-03 0. -1.
        -11    1    3    3    0    0  0.27181716318E+02  0.12699870444E+02  0.69618426694E+01  0.30799345203E+02  0.51100000000E-03 0.  1.
         12    1    3    3    0    0 -0.51583627293E+01  0.16686028508E+01 -0.40903470971E+00  0.54369339627E+01  0.00000000000E+00 0. -1.
</event>
<event>
 7    1  0.5992960E-013  0.5052886E+02  0.7816164E-02  0.1300439E+00
        -11   -1    0    0    0    0  0.00000000000E+00  0.00000000000E+00  0.45593999997E+02  0.45594000000E+02  0.51100000000E-03 0.  1.
         11   -1    0    0    0    0 -0.00000000000E+00 -0.00000000000E+00 -0.45593999997E+02  0.45594000000E+02  0.51100000000E-03 0. -1.
    9900012    2    1    2    0    0 -0.18038999186E+02 -0.36272363067E+02 -0.34750228333E+01  0.50528860833E+02  0.30000002988E+02 0.  0.
        -12    1    1    2    0    0  0.18038999186E+02  0.36272363067E+02  0.34750228333E+01  0.40659139167E+02  0.00000000000E+00 0.  1.
         11    1    3    3    0    0 -0.50387817510E+01 -0.18769533268E+02 -0.13685538257E+01  0.19482239103E+02  0.51100000000E-03 0. -1.
        -11    1    3    3    0    0 -0.19267029024E+02 -0.13324440806E+02 -0.20400806043E+01  0.23514273524E+02  0.51100000000E-03 0.  1.
        -12    1    3    3    0    0  0.62668115896E+01 -0.41783889932E+01 -0.66388403251E-01  0.75323482061E+01  0.00000000000E+00 0.  1.
</event>
<event>
 7    1  0.5992960E-013  0.5052885E+02  0.7816164E-02  0.1300439E+00
        -11   -1    0    0    0    0  0.00000000000E+00  0.00000000000E+00  0.45593999997E+02  0.45594000000E+02  0.51100000000E-03 0.  1.
         11   -1    0    0    0    0 -0.00000000000E+00 -0.00000000000E+00 -0.45593999997E+02  0.45594000000E+02  0.51100000000E-03 0. -1.
    9900012    2    1    2    0    0  0.30527730174E+02  0.87826567339E+01 -0.25378914295E+02  0.50528847775E+02  0.29999963297E+02 0.  0.
        -12    1    1    2    0    0 -0.30527730174E+02 -0.87826567339E+01  0.25378914295E+02  0.40659152225E+02  0.00000000000E+00 0.  1.
         11    1    3    3    0    0  0.49693356415E+01  0.84627108373E+01 -0.84231738940E+01  0.12932966796E+02  0.51100000000E-03 0. -1.
        -11    1    3    3    0    0 -0.32738299033E+01  0.32000018193E+01 -0.21909191048E+01  0.50752439019E+01  0.51100000000E-03 0.  1.
         12    1    3    3    0    0  0.28832224435E+02 -0.28800559226E+01 -0.14764821296E+02  0.32520637077E+02  0.00000000000E+00 0. -1.
</event>
<event>
 7    1  0.5992960E-013  0.5052886E+02  0.7816164E-02  0.1300439E+00
        -11   -1    0    0    0    0  0.00000000000E+00  0.00000000000E+00  0.45593999997E+02  0.45594000000E+02  0.51100000000E-03 0.  1.
         11   -1    0    0    0    0 -0.00000000000E+00 -0.00000000000E+00 -0.45593999997E+02  0.45594000000E+02  0.51100000000E-03 0. -1.
    9900012    2    1    2    0    0  0.68922561421E+01  0.36939344849E+02 -0.15528921740E+02  0.50528858310E+02  0.29999995318E+02 0.  0.
        -12    1    1    2    0    0 -0.68922561421E+01 -0.36939344849E+02  0.15528921740E+02  0.40659141690E+02  0.00000000000E+00 0.  1.
         11    1    3    3    0    0 -0.54199504152E+01  0.42437955623E+01 -0.72223137055E+01  0.99773482849E+01  0.51100000000E-03 0. -1.
        -11    1    3    3    0    0 -0.27026063683E+01  0.37615289279E+01 -0.63969574858E+01  0.78977367894E+01  0.51100000000E-03 0.  1.
         12    1    3    3    0    0  0.15014812926E+02  0.28934020358E+02 -0.19096505491E+01  0.32653773235E+02  0.00000000000E+00 0. -1.
</event>
<event>
 7    1  0.5992960E-013  0.5052887E+02  0.7816164E-02  0.1300439E+00
        -11   -1    0    0    0    0  0.00000000000E+00  0.00000000000E+00  0.45593999997E+02  0.45594000000E+02  0.51100000000E-03 0.  1.
         11   -1    0    0    0    0 -0.00000000000E+00 -0.00000000000E+00 -0.45593999997E+02  0.45594000000E+02  0.51100000000E-03 0. -1.
    9900012    2    1    2    0    0  0.10184065048E+02  0.22229601207E+02 -0.32485293481E+02  0.50528872571E+02  0.30000038667E+02 0.  0.
        -12    1    1    2    0    0 -0.10184065048E+02 -0.22229601207E+02  0.32485293481E+02  0.40659127429E+02  0.00000000000E+00 0.  1.
         11    1    3    3    0    0  0.33820835657E+01 -0.89589708864E+00 -0.11686180653E+02  0.12198685968E+02  0.51100000000E-03 0. -1.
        -11    1    3    3    0    0  0.33162833651E+00  0.18765107688E+02 -0.23498870909E+02  0.30073845416E+02  0.51100000000E-03 0.  1.
        -12    1    3    3    0    0  0.64703531461E+01  0.43603906081E+01  0.26997580807E+01  0.82563411863E+01  0.00000000000E+00 0.  1.
</event>
<event>
 7    1  0.5992960E-013  0.5052886E+02  0.7816164E-02  0.1300439E+00
        -11   -1    0    0    0    0  0.00000000000E+00  0.00000000000E+00  0.45593999997E+02  0.45594000000E+02  0.51100000000E-03 0. -1.
         11   -1    0    0    0    0 -0.00000000000E+00 -0.00000000000E+00 -0.45593999997E+02  0.45594000000E+02  0.51100000000E-03 0.  1.
    9900012    2    1    2    0    0  0.23076829395E+01  0.21953596128E+02  0.34144981556E+02  0.50528861434E+02  0.30000004814E+02 0.  0.
        -12    1    1    2    0    0 -0.23076829395E+01 -0.21953596128E+02 -0.34144981556E+02  0.40659138566E+02  0.00000000000E+00 0.  1.
         11    1    3    3    0    0 -0.98486977987E+00  0.73559252413E+01 -0.28131529882E+01  0.79368403433E+01  0.51100000000E-03 0. -1.
        -11    1    3    3    0    0 -0.30172136505E+01  0.13559851736E+02  0.19054141657E+02  0.23580361996E+02  0.51100000000E-03 0.  1.
         12    1    3    3    0    0  0.63097663698E+01  0.10378191507E+01  0.17903992886E+02  0.19011659094E+02  0.00000000000E+00 0. -1.
</event>
<event>
 7    1  0.5992960E-013  0.5052885E+02  0.7816164E-02  0.1300439E+00
        -11   -1    0    0    0    0  0.00000000000E+00  0.00000000000E+00  0.45593999997E+02  0.45594000000E+02  0.51100000000E-03 0. -1.
         11   -1    0    0    0    0 -0.00000000000E+00 -0.00000000000E+00 -0.45593999997E+02  0.45594000000E+02  0.51100000000E-03 0.  1.
    9900012    2    1    2    0    0 -0.26962983150E+02  0.13625107895E+02  0.27212501154E+02  0.50528852879E+02  0.29999978811E+02 0.  0.
        -12    1    1    2    0    0  0.26962983150E+02 -0.13625107895E+02 -0.27212501154E+02  0.40659147121E+02  0.00000000000E+00 0.  1.
         11    1    3    3    0    0 -0.37754626223E+01 -0.14495518086E+01  0.42726220919E+01  0.58830789779E+01  0.51100000000E-03 0. -1.
        -11    1    3    3    0    0 -0.65604772846E+00 -0.44240817660E+00  0.16527680143E+02  0.16546610976E+02  0.51100000000E-03 0.  1.
        -12    1    3    3    0    0 -0.22531472800E+02  0.15517067881E+02  0.64121989193E+01  0.28099162925E+02  0.00000000000E+00 0.  1.
</event>
<event>
 7    1  0.5992960E-013  0.5052886E+02  0.7816164E-02  0.1300439E+00
        -11   -1    0    0    0    0  0.00000000000E+00  0.00000000000E+00  0.45593999997E+02  0.45594000000E+02  0.51100000000E-03 0. -1.
         11   -1    0    0    0    0 -0.00000000000E+00 -0.00000000000E+00 -0.45593999997E+02  0.45594000000E+02  0.51100000000E-03 0.  1.
    9900012    2    1    2    0    0  0.70731411595E+01  0.16452570082E+02  0.36502733139E+02  0.50528856935E+02  0.29999991139E+02 0.  0.
        -12    1    1    2    0    0 -0.70731411595E+01 -0.16452570082E+02 -0.36502733139E+02  0.40659143065E+02  0.00000000000E+00 0.  1.
         11    1    3    3    0    0  0.10110136694E+01  0.16459869982E+01 -0.11376512119E+01  0.22418011462E+01  0.51100000000E-03 0.  1.
        -11    1    3    3    0    0  0.12002601806E+02  0.10781251776E+02  0.84205494386E+01  0.18198997035E+02  0.51100000000E-03 0. -1.
         12    1    3    3    0    0 -0.59404743161E+01  0.40253313081E+01  0.29219834913E+02  0.30088058754E+02  0.00000000000E+00 0. -1.
</event>
<event>
 7    1  0.6775119E-013  0.5052885E+02  0.7816164E-02  0.1300439E+00
        -11   -1    0    0    0    0  0.00000000000E+00  0.00000000000E+00  0.45593999997E+02  0.45594000000E+02  0.51100000000E-03 0. -1.
         11   -1    0    0    0    0 -0.00000000000E+00 -0.00000000000E+00 -0.45593999997E+02  0.45594000000E+02  0.51100000000E-03 0.  1.
    9900012    2    1    2    0    0 -0.13248374684E+02 -0.18057390457E+02  0.33934906063E+02  0.50528848123E+02  0.29999964354E+02 0.  0.
        -12    1    1    2    0    0  0.13248374684E+02  0.18057390457E+02 -0.33934906063E+02  0.40659151877E+02  0.00000000000E+00 0.  1.
         11    1    3    3    0    0 -0.10718911475E+02 -0.12742997591E+01  0.13659999897E+02  0.17410183817E+02  0.51100000000E-03 0. -1.
        -11    1    3    3    0    0  0.47301882695E+01  0.11007984517E+01 -0.35243638736E+00  0.48693582703E+01  0.51100000000E-03 0.  1.
         12    1    3    3    0    0 -0.72596514780E+01 -0.17883889150E+02  0.20627342553E+02  0.28249306036E+02  0.00000000000E+00 0. -1.
</event>
<event>
 7    1  0.5992960E-013  0.5052885E+02  0.7816164E-02  0.1300439E+00
        -11   -1    0    0    0    0  0.00000000000E+00  0.00000000000E+00  0.45593999997E+02  0.45594000000E+02  0.51100000000E-03 0.  1.
         11   -1    0    0    0    0 -0.00000000000E+00 -0.00000000000E+00 -0.45593999997E+02  0.45594000000E+02  0.51100000000E-03 0. -1.
    9900012    2    1    2    0    0  0.28206809719E+02  0.21745999619E+01 -0.29202968729E+02  0.50528851188E+02  0.29999973671E+02 0.  0.
        -12    1    1    2    0    0 -0.28206809719E+02 -0.21745999619E+01  0.29202968729E+02  0.40659148812E+02  0.00000000000E+00 0.  1.
         11    1    3    3    0    0  0.22629680562E+01  0.42836555584E+01  0.11082425868E+01  0.49698019335E+01  0.51100000000E-03 0. -1.
        -11    1    3    3    0    0  0.14614058898E+01  0.63642875091E+01 -0.12895386777E+01  0.66560328226E+01  0.51100000000E-03 0.  1.
         12    1    3    3    0    0  0.24482435773E+02 -0.84733431055E+01 -0.29021672638E+02  0.38903016432E+02  0.00000000000E+00 0. -1.
</event>
<event>
 7    1  0.5992960E-013  0.5052886E+02  0.7816164E-02  0.1300439E+00
        -11   -1    0    0    0    0  0.00000000000E+00  0.00000000000E+00  0.45593999997E+02  0.45594000000E+02  0.51100000000E-03 0. -1.
         11   -1    0    0    0    0 -0.00000000000E+00 -0.00000000000E+00 -0.45593999997E+02  0.45594000000E+02  0.51100000000E-03 0.  1.
    9900012    2    1    2    0    0  0.51401971140E+01 -0.30316205009E+02  0.26602100751E+02  0.50528859860E+02  0.30000000030E+02 0.  0.
        -12    1    1    2    0    0 -0.51401971140E+01  0.30316205009E+02 -0.26602100751E+02  0.40659140140E+02  0.00000000000E+00 0.  1.
         11    1    3    3    0    0 -0.21276922077E+01 -0.35710015257E+01 -0.19604910053E+01  0.45959385625E+01  0.51100000000E-03 0.  1.
        -11    1    3    3    0    0 -0.77345771790E+01 -0.10596327713E+02  0.15516874711E+02  0.20319430263E+02  0.51100000000E-03 0. -1.
         12    1    3    3    0    0  0.15002466501E+02 -0.16148875770E+02  0.13045717045E+02  0.25613491034E+02  0.00000000000E+00 0. -1.
</event>
<event>
 7    1  0.5992960E-013  0.5052884E+02  0.7816164E-02  0.1300439E+00
        -11   -1    0    0    0    0  0.00000000000E+00  0.00000000000E+00  0.45593999997E+02  0.45594000000E+02  0.51100000000E-03 0.  1.
         11   -1    0    0    0    0 -0.00000000000E+00 -0.00000000000E+00 -0.45593999997E+02  0.45594000000E+02  0.51100000000E-03 0. -1.
    9900012    2    1    2    0    0  0.64046075232E+01  0.12347588210E+02 -0.38205828604E+02  0.50528840251E+02  0.29999940427E+02 0.  0.
        -12    1    1    2    0    0 -0.64046075232E+01 -0.12347588210E+02  0.38205828604E+02  0.40659159749E+02  0.00000000000E+00 0.  1.
         11    1    3    3    0    0 -0.42005288405E+01  0.75871354201E+01 -0.11431759140E+02  0.14349013336E+02  0.51100000000E-03 0. -1.
        -11    1    3    3    0    0 -0.61961741128E+01 -0.14096548496E+01 -0.57609644245E+01  0.85772030285E+01  0.51100000000E-03 0.  1.
         12    1    3    3    0    0  0.16801310476E+02  0.61701076400E+01 -0.21013105040E+02  0.27602623887E+02  0.00000000000E+00 0. -1.
</event>
<event>
 7    1  0.5992960E-013  0.5052885E+02  0.7816164E-02  0.1300439E+00
        -11   -1    0    0    0    0  0.00000000000E+00  0.00000000000E+00  0.45593999997E+02  0.45594000000E+02  0.51100000000E-03 0.  1.
         11   -1    0    0    0    0 -0.00000000000E+00 -0.00000000000E+00 -0.45593999997E+02  0.45594000000E+02  0.51100000000E-03 0. -1.
    9900012    2    1    2    0    0 -0.29537921171E+02  0.26162424167E+02 -0.98084335186E+01  0.50528848589E+02  0.29999965772E+02 0.  0.
        -12    1    1    2    0    0  0.29537921171E+02 -0.26162424167E+02  0.98084335186E+01  0.40659151411E+02  0.00000000000E+00 0.  1.
         11    1    3    3    0    0 -0.24841964501E+01  0.17008795490E+02 -0.78051117471E+01  0.18878297743E+02  0.51100000000E-03 0. -1.
        -11    1    3    3    0    0 -0.22590450556E+02  0.11828844137E+02 -0.44751185741E+01  0.25889702517E+02  0.51100000000E-03 0.  1.
        -12    1    3    3    0    0 -0.44632741648E+01 -0.26752154606E+01  0.24717968026E+01  0.57608483285E+01  0.00000000000E+00 0.  1.
</event>
<event>
 7    1  0.5992960E-013  0.5052886E+02  0.7816164E-02  0.1300439E+00
        -11   -1    0    0    0    0  0.00000000000E+00  0.00000000000E+00  0.45593999997E+02  0.45594000000E+02  0.51100000000E-03 0.  1.
         11   -1    0    0    0    0 -0.00000000000E+00 -0.00000000000E+00 -0.45593999997E+02  0.45594000000E+02  0.51100000000E-03 0. -1.
    9900012    2    1    2    0    0  0.16461700367E+02  0.16070684583E+01 -0.37142906022E+02  0.50528859382E+02  0.29999998579E+02 0.  0.
        -12    1    1    2    0    0 -0.16461700367E+02 -0.16070684583E+01  0.37142906022E+02  0.40659140618E+02  0.00000000000E+00 0.  1.
         11    1    3    3    0    0  0.12799199775E+02  0.93312040352E+01 -0.18817356165E+02  0.24596417970E+02  0.51100000000E-03 0. -1.
        -11    1    3    3    0    0  0.12295230314E+01  0.36151517876E+01 -0.12267678070E+02  0.12848228470E+02  0.51100000000E-03 0.  1.
        -12    1    3    3    0    0  0.24329775606E+01 -0.11339287365E+02 -0.60578717872E+01  0.13084212943E+02  0.00000000000E+00 0.  1.
</event>
<event>
 7    1  0.5992960E-013  0.5052886E+02  0.7816164E-02  0.1300439E+00
        -11   -1    0    0    0    0  0.00000000000E+00  0.00000000000E+00  0.45593999997E+02  0.45594000000E+02  0.51100000000E-03 0.  1.
         11   -1    0    0    0    0 -0.00000000000E+00 -0.00000000000E+00 -0.45593999997E+02  0.45594000000E+02  0.51100000000E-03 0. -1.
    9900012    2    1    2    0    0  0.11540183048E+01 -0.26836326588E+02 -0.30522864802E+02  0.50528862543E+02  0.30000008187E+02 0.  0.
        -12    1    1    2    0    0 -0.11540183048E+01  0.26836326588E+02  0.30522864802E+02  0.40659137457E+02  0.00000000000E+00 0.  1.
         11    1    3    3    0    0  0.28604497924E+01 -0.32007641295E+01  0.47785369010E+00  0.43191907156E+01  0.51100000000E-03 0. -1.
        -11    1    3    3    0    0 -0.47754897891E+01  0.52733967907E+00  0.19911624453E+01  0.52007805191E+01  0.51100000000E-03 0.  1.
         12    1    3    3    0    0  0.30690583014E+01 -0.24162902138E+02 -0.32991880937E+02  0.41008891309E+02  0.00000000000E+00 0. -1.
</event>
<event>
 7    1  0.5992960E-013  0.5052887E+02  0.7816164E-02  0.1300439E+00
        -11   -1    0    0    0    0  0.00000000000E+00  0.00000000000E+00  0.45593999997E+02  0.45594000000E+02  0.51100000000E-03 0. -1.
         11   -1    0    0    0    0 -0.00000000000E+00 -0.00000000000E+00 -0.45593999997E+02  0.45594000000E+02  0.51100000000E-03 0.  1.
    9900012    2    1    2    0    0  0.24823443617E+02  0.11535144695E+02  0.30064961603E+02  0.50528870246E+02  0.30000031600E+02 0.  0.
        -12    1    1    2    0    0 -0.24823443617E+02 -0.11535144695E+02 -0.30064961603E+02  0.40659129754E+02  0.00000000000E+00 0.  1.
         11    1    3    3    0    0  0.18214308440E+01 -0.26129186842E+01  0.13426220233E+02  0.13798853009E+02  0.51100000000E-03 0. -1.
        -11    1    3    3    0    0  0.19338915698E+02  0.11066397643E+02  0.20729646307E+02  0.30433157139E+02  0.51100000000E-03 0.  1.
        -12    1    3    3    0    0  0.36630970752E+01  0.30816657368E+01 -0.40909049364E+01  0.62968600980E+01  0.00000000000E+00 0.  1.
</event>
<event>
 7    1  0.5992960E-013  0.5052887E+02  0.7816164E-02  0.1300439E+00
        -11   -1    0    0    0    0  0.00000000000E+00  0.00000000000E+00  0.45593999997E+02  0.45594000000E+02  0.51100000000E-03 0.  1.
         11   -1    0    0    0    0 -0.00000000000E+00 -0.00000000000E+00 -0.45593999997E+02  0.45594000000E+02  0.51100000000E-03 0. -1.
    9900012    2    1    2    0    0  0.32552056788E+02  0.23552852474E+02 -0.62282785049E+01  0.50528871703E+02  0.30000036027E+02 0.  0.
        -12    1    1    2    0    0 -0.32552056788E+02 -0.23552852474E+02  0.62282785049E+01  0.40659128297E+02  0.00000000000E+00 0.  1.
         11    1    3    3    0    0  0.61489248453E+01  0.42802275178E+01  0.22572970899E+01  0.78246415107E+01  0.51100000000E-03 0. -1.
        -11    1    3    3    0    0  0.44974727807E+01 -0.60118449616E+01 -0.51068313747E+01  0.90801579395E+01  0.51100000000E-03 0.  1.
         12    1    3    3    0    0  0.21905659162E+02  0.25284469918E+02 -0.33787442201E+01  0.33624072252E+02  0.00000000000E+00 0. -1.
</event>
<event>
 7    1  0.5992960E-013  0.5052886E+02  0.7816164E-02  0.1300439E+00
        -11   -1    0    0    0    0  0.00000000000E+00  0.00000000000E+00  0.45593999997E+02  0.45594000000E+02  0.51100000000E-03 0. -1.
         11   -1    0    0    0    0 -0.00000000000E+00 -0.00000000000E+00 -0.45593999997E+02  0.45594000000E+02  0.51100000000E-03 0.  1.
    9900012    2    1    2    0    0 -0.29197633284E+02  0.12137577162E+02  0.25560577364E+02  0.50528859774E+02  0.29999999768E+02 0.  0.
        -12    1    1    2    0    0  0.29197633284E+02 -0.12137577162E+02 -0.25560577364E+02  0.40659140226E+02  0.00000000000E+00 0.  1.
         11    1    3    3    0    0 -0.60302797082E+01  0.39625322961E+00  0.15683384011E+01  0.62434746402E+01  0.51100000000E-03 0. -1.
        -11    1    3    3    0    0 -0.17536690910E+02 -0.46375230305E+01  0.55137335823E+01  0.18958992753E+02  0.51100000000E-03 0.  1.
         12    1    3    3    0    0 -0.56306626654E+01  0.16378846963E+02  0.18478505381E+02  0.25326392380E+02  0.00000000000E+00 0. -1.
</event>
<event>
 7    1  0.5992960E-013  0.5052886E+02  0.7816164E-02  0.1300439E+00
        -11   -1    0    0    0    0  0.00000000000E+00  0.00000000000E+00  0.45593999997E+02  0.45594000000E+02  0.51100000000E-03 0.  1.
         11   -1    0    0    0    0 -0.00000000000E+00 -0.00000000000E+00 -0.45593999997E+02  0.45594000000E+02  0.51100000000E-03 0. -1.
    9900012    2    1    2    0    0  0.37147587275E+02 -0.14757739139E+02 -0.74452289824E+01  0.50528861550E+02  0.30000005168E+02 0.  0.
        -12    1    1    2    0    0 -0.37147587275E+02  0.14757739139E+02  0.74452289824E+01  0.40659138450E+02  0.00000000000E+00 0.  1.
         11    1    3    3    0    0  0.16361556482E+02 -0.53747986678E+00  0.38210013356E+01  0.16810397573E+02  0.51100000000E-03 0. -1.
        -11    1    3    3    0    0  0.12493337494E+02 -0.95218668149E+00  0.26178107964E+01  0.12800120111E+02  0.51100000000E-03 0.  1.
        -12    1    3    3    0    0  0.82926932994E+01 -0.13268072591E+02 -0.13884041114E+02  0.20918343866E+02  0.00000000000E+00 0.  1.
</event>
<event>
 7    1  0.5992960E-013  0.5052886E+02  0.7816164E-02  0.1300439E+00
        -11   -1    0    0    0    0  0.00000000000E+00  0.00000000000E+00  0.45593999997E+02  0.45594000000E+02  0.51100000000E-03 0.  1.
         11   -1    0    0    0    0 -0.00000000000E+00 -0.00000000000E+00 -0.45593999997E+02  0.45594000000E+02  0.51100000000E-03 0. -1.
    9900012    2    1    2    0    0  0.36428969339E+01 -0.22901595312E+02 -0.33397787840E+02  0.50528855905E+02  0.29999988010E+02 0.  0.
        -12    1    1    2    0    0 -0.36428969339E+01  0.22901595312E+02  0.33397787840E+02  0.40659144095E+02  0.00000000000E+00 0.  1.
         11    1    3    3    0    0  0.41997676678E+01 -0.60543750568E+01  0.22778885662E+01  0.77124757616E+01  0.51100000000E-03 0. -1.
        -11    1    3    3    0    0 -0.50495016300E+00 -0.22248021009E+01  0.15924900515E+01  0.27822192366E+01  0.51100000000E-03 0.  1.
        -12    1    3    3    0    0 -0.51920570957E-01 -0.14622418155E+02 -0.37268166457E+02  0.40034160907E+02  0.00000000000E+00 0.  1.
</event>
<event>
 7    1  0.5992960E-013  0.5052886E+02  0.7816164E-02  0.1300439E+00
        -11   -1    0    0    0    0  0.00000000000E+00  0.00000000000E+00  0.45593999997E+02  0.45594000000E+02  0.51100000000E-03 0.  1.
         11   -1    0    0    0    0 -0.00000000000E+00 -0.00000000000E+00 -0.45593999997E+02  0.45594000000E+02  0.51100000000E-03 0. -1.
    9900012    2    1    2    0    0 -0.13162090911E+02 -0.14595296021E+02 -0.35593572740E+02  0.50528859288E+02  0.29999998291E+02 0.  0.
        -12    1    1    2    0    0  0.13162090911E+02  0.14595296021E+02  0.35593572740E+02  0.40659140712E+02  0.00000000000E+00 0.  1.
         11    1    3    3    0    0 -0.16505394538E+02 -0.21280585259E+02 -0.25829425679E+02  0.37315554250E+02  0.51100000000E-03 0. -1.
        -11    1    3    3    0    0  0.79085452994E+00 -0.39949199694E+00 -0.44147391282E-02  0.88603865276E+00  0.51100000000E-03 0.  1.
         12    1    3    3    0    0  0.25524490969E+01  0.70847812349E+01 -0.97597323219E+01  0.12327266385E+02  0.00000000000E+00 0. -1.
</event>
<event>
 7    1  0.5992960E-013  0.5052886E+02  0.7816164E-02  0.1300439E+00
        -11   -1    0    0    0    0  0.00000000000E+00  0.00000000000E+00  0.45593999997E+02  0.45594000000E+02  0.51100000000E-03 0.  1.
         11   -1    0    0    0    0 -0.00000000000E+00 -0.00000000000E+00 -0.45593999997E+02  0.45594000000E+02  0.51100000000E-03 0. -1.
    9900012    2    1    2    0    0 -0.16010696383E+02  0.37313365085E+02 -0.21297581135E+01  0.50528862253E+02  0.30000007306E+02 0.  0.
        -12    1    1    2    0    0  0.16010696383E+02 -0.37313365085E+02  0.21297581135E+01  0.40659137747E+02  0.00000000000E+00 0.  1.
         11    1    3    3    0    0 -0.19497106358E+02  0.29064467294E+02 -0.40105899173E+01  0.35227336646E+02  0.51100000000E-03 0. -1.
        -11    1    3    3    0    0 -0.30910110799E-01  0.96678824663E+01 -0.20027041724E+01  0.98731824191E+01  0.51100000000E-03 0.  1.
        -12    1    3    3    0    0  0.35173200857E+01 -0.14189846750E+01  0.38835359762E+01  0.54283431885E+01  0.00000000000E+00 0.  1.
</event>
<event>
 7    1  0.5992960E-013  0.5052883E+02  0.7816164E-02  0.1300439E+00
        -11   -1    0    0    0    0  0.00000000000E+00  0.00000000000E+00  0.45593999997E+02  0.45594000000E+02  0.51100000000E-03 0. -1.
         11   -1    0    0    0    0 -0.00000000000E+00 -0.00000000000E+00 -0.45593999997E+02  0.45594000000E+02  0.51100000000E-03 0.  1.
    9900012    2    1    2    0    0 -0.12170442673E+02  0.29881850866E+02 -0.24741135489E+02  0.50528825496E+02  0.29999895579E+02 0.  0.
        -12    1    1    2    0    0  0.12170442673E+02 -0.29881850866E+02  0.24741135489E+02  0.40659174504E+02  0.00000000000E+00 0.  1.
         11    1    3    3    0    0 -0.11075353220E+02  0.86223420438E+01 -0.12384245052E+02  0.18718380193E+02  0.51100000000E-03 0. -1.
        -11    1    3    3    0    0  0.44575500773E+01  0.55031697309E+01  0.42460043245E+01  0.82573108675E+01  0.51100000000E-03 0.  1.
         12    1    3    3    0    0 -0.55526395300E+01  0.15756339091E+02 -0.16602894761E+02  0.23553134436E+02  0.00000000000E+00 0. -1.
</event>
<event>
 7    1  0.5992960E-013  0.5052887E+02  0.7816164E-02  0.1300439E+00
        -11   -1    0    0    0    0  0.00000000000E+00  0.00000000000E+00  0.45593999997E+02  0.45594000000E+02  0.51100000000E-03 0.  1.
         11   -1    0    0    0    0 -0.00000000000E+00 -0.00000000000E+00 -0.45593999997E+02  0.45594000000E+02  0.51100000000E-03 0. -1.
    9900012    2    1    2    0    0  0.22334618187E+02 -0.32550139019E+02 -0.97374575659E+01  0.50528870649E+02  0.30000032825E+02 0.  0.
        -12    1    1    2    0    0 -0.22334618187E+02  0.32550139019E+02  0.97374575659E+01  0.40659129351E+02  0.00000000000E+00 0.  1.
         11    1    3    3    0    0  0.82901627536E+01 -0.37697993016E+01 -0.12743873552E+02  0.15663476582E+02  0.51100000000E-03 0. -1.
        -11    1    3    3    0    0  0.38672335436E+01 -0.94916073922E+01 -0.52873243769E+01  0.11532645208E+02  0.51100000000E-03 0.  1.
         12    1    3    3    0    0  0.10177221890E+02 -0.19288732326E+02  0.82937403629E+01  0.23332748859E+02  0.00000000000E+00 0. -1.
</event>
<event>
 7    1  0.5992960E-013  0.5052886E+02  0.7816164E-02  0.1300439E+00
        -11   -1    0    0    0    0  0.00000000000E+00  0.00000000000E+00  0.45593999997E+02  0.45594000000E+02  0.51100000000E-03 0. -1.
         11   -1    0    0    0    0 -0.00000000000E+00 -0.00000000000E+00 -0.45593999997E+02  0.45594000000E+02  0.51100000000E-03 0.  1.
    9900012    2    1    2    0    0 -0.16245182338E+02 -0.37272465749E+02 -0.15080128491E+00  0.50528863349E+02  0.30000010634E+02 0.  0.
        -12    1    1    2    0    0  0.16245182338E+02  0.37272465749E+02  0.15080128491E+00  0.40659136651E+02  0.00000000000E+00 0.  1.
         11    1    3    3    0    0 -0.91290239378E+01 -0.92644228908E+01  0.85860886456E+01  0.15584913476E+02  0.51100000000E-03 0. -1.
        -11    1    3    3    0    0 -0.12262628976E+02 -0.13304220925E+02 -0.63953815128E+01  0.19190499441E+02  0.51100000000E-03 0.  1.
        -12    1    3    3    0    0  0.51464705766E+01 -0.14703821933E+02 -0.23415084177E+01  0.15753450432E+02  0.00000000000E+00 0.  1.
</event>
<event>
 7    1  0.5992960E-013  0.5052886E+02  0.7816164E-02  0.1300439E+00
        -11   -1    0    0    0    0  0.00000000000E+00  0.00000000000E+00  0.45593999997E+02  0.45594000000E+02  0.51100000000E-03 0.  1.
         11   -1    0    0    0    0 -0.00000000000E+00 -0.00000000000E+00 -0.45593999997E+02  0.45594000000E+02  0.51100000000E-03 0. -1.
    9900012    2    1    2    0    0  0.31490929868E+02 -0.24736411917E+02 -0.70424895829E+01  0.50528863290E+02  0.30000010455E+02 0.  0.
        -12    1    1    2    0    0 -0.31490929868E+02  0.24736411917E+02  0.70424895829E+01  0.40659136710E+02  0.00000000000E+00 0.  1.
         11    1    3    3    0    0  0.30773563743E+00  0.12781794025E+01  0.52907992354E+01  0.54516970401E+01  0.51100000000E-03 0. -1.
        -11    1    3    3    0    0  0.34827359235E+01 -0.15591021721E+01  0.32134821498E+01  0.49886588262E+01  0.51100000000E-03 0.  1.
         12    1    3    3    0    0  0.27700458308E+02 -0.24455489148E+02 -0.15546770968E+02  0.40088507423E+02  0.00000000000E+00 0. -1.
</event>
<event>
 7    1  0.6228609E-013  0.5052886E+02  0.7816164E-02  0.1300439E+00
        -11   -1    0    0    0    0  0.00000000000E+00  0.00000000000E+00  0.45593999997E+02  0.45594000000E+02  0.51100000000E-03 0. -1.
         11   -1    0    0    0    0 -0.00000000000E+00 -0.00000000000E+00 -0.45593999997E+02  0.45594000000E+02  0.51100000000E-03 0.  1.
    9900012    2    1    2    0    0 -0.27958955544E+02  0.21714819841E+02  0.19998231232E+02  0.50528857753E+02  0.29999993627E+02 0.  0.
        -12    1    1    2    0    0  0.27958955544E+02 -0.21714819841E+02 -0.19998231232E+02  0.40659142247E+02  0.00000000000E+00 0.  1.
         11    1    3    3    0    0 -0.31640877203E+01  0.10326726023E+02  0.96101802756E+01  0.14457118892E+02  0.51100000000E-03 0. -1.
        -11    1    3    3    0    0 -0.63347528684E+01  0.68402935506E+01 -0.59029619811E+01  0.11034657683E+02  0.51100000000E-03 0.  1.
         12    1    3    3    0    0 -0.18460114955E+02  0.45478002676E+01  0.16291012938E+02  0.25037081179E+02  0.00000000000E+00 0. -1.
</event>
<event>
 7    1  0.5992960E-013  0.5052886E+02  0.7816164E-02  0.1300439E+00
        -11   -1    0    0    0    0  0.00000000000E+00  0.00000000000E+00  0.45593999997E+02  0.45594000000E+02  0.51100000000E-03 0.  1.
         11   -1    0    0    0    0 -0.00000000000E+00 -0.00000000000E+00 -0.45593999997E+02  0.45594000000E+02  0.51100000000E-03 0. -1.
    9900012    2    1    2    0    0 -0.95665408243E+01 -0.28478205458E+02 -0.27397791020E+02  0.50528857827E+02  0.29999993852E+02 0.  0.
        -12    1    1    2    0    0  0.95665408243E+01  0.28478205458E+02  0.27397791020E+02  0.40659142173E+02  0.00000000000E+00 0.  1.
         11    1    3    3    0    0 -0.25760796746E+01 -0.22466170203E+02 -0.15124597503E+02  0.27205117901E+02  0.51100000000E-03 0. -1.
        -11    1    3    3    0    0  0.95079954653E+00 -0.10090274824E+02 -0.32813001453E+01  0.10652914940E+02  0.51100000000E-03 0.  1.
         12    1    3    3    0    0 -0.79412606963E+01  0.40782395700E+01 -0.89918933722E+01  0.12670824987E+02  0.00000000000E+00 0. -1.
</event>
<event>
 7    1  0.5992960E-013  0.5052885E+02  0.7816164E-02  0.1300439E+00
        -11   -1    0    0    0    0  0.00000000000E+00  0.00000000000E+00  0.45593999997E+02  0.45594000000E+02  0.51100000000E-03 0.  1.
         11   -1    0    0    0    0 -0.00000000000E+00 -0.00000000000E+00 -0.45593999997E+02  0.45594000000E+02  0.51100000000E-03 0. -1.
    9900012    2    1    2    0    0 -0.14445957799E+02  0.66801350905E+01 -0.37414652700E+02  0.50528854188E+02  0.29999982788E+02 0.  0.
        -12    1    1    2    0    0  0.14445957799E+02 -0.66801350905E+01  0.37414652700E+02  0.40659145812E+02  0.00000000000E+00 0.  1.
         11    1    3    3    0    0 -0.19066600959E+01 -0.10021517612E+00  0.10716194465E+01  0.21894666707E+01  0.51100000000E-03 0. -1.
        -11    1    3    3    0    0  0.33695251788E+01 -0.15216238152E+01  0.18920395925E+01  0.41531738522E+01  0.51100000000E-03 0.  1.
         12    1    3    3    0    0 -0.15908822882E+02  0.83019740818E+01 -0.40378311739E+02  0.44186213665E+02  0.00000000000E+00 0. -1.
</event>
<event>
 7    1  0.5992960E-013  0.5052885E+02  0.7816164E-02  0.1300439E+00
        -11   -1    0    0    0    0  0.00000000000E+00  0.00000000000E+00  0.45593999997E+02  0.45594000000E+02  0.51100000000E-03 0.  1.
         11   -1    0    0    0    0 -0.00000000000E+00 -0.00000000000E+00 -0.45593999997E+02  0.45594000000E+02  0.51100000000E-03 0. -1.
    9900012    2    1    2    0    0 -0.11586604046E+02 -0.38888891329E+02  0.25633986405E+01  0.50528852509E+02  0.29999977686E+02 0.  0.
        -12    1    1    2    0    0  0.11586604046E+02  0.38888891329E+02 -0.25633986405E+01  0.40659147491E+02  0.00000000000E+00 0.  1.
         11    1    3    3    0    0 -0.63463421967E+01 -0.88199952161E+01  0.15020474898E+01  0.10969253476E+02  0.51100000000E-03 0. -1.
        -11    1    3    3    0    0 -0.47132248955E+01 -0.16695880297E+02  0.12957572140E+02  0.21653304224E+02  0.51100000000E-03 0.  1.
         12    1    3    3    0    0 -0.52703695374E+00 -0.13373015816E+02 -0.11896220989E+02  0.17906294809E+02  0.00000000000E+00 0. -1.
</event>
<event>
 7    1  0.5992960E-013  0.5052886E+02  0.7816164E-02  0.1300439E+00
        -11   -1    0    0    0    0  0.00000000000E+00  0.00000000000E+00  0.45593999997E+02  0.45594000000E+02  0.51100000000E-03 0. -1.
         11   -1    0    0    0    0 -0.00000000000E+00 -0.00000000000E+00 -0.45593999997E+02  0.45594000000E+02  0.51100000000E-03 0.  1.
    9900012    2    1    2    0    0 -0.30637107712E+02  0.19896703016E+02  0.17850894022E+02  0.50528861086E+02  0.30000003756E+02 0.  0.
        -12    1    1    2    0    0  0.30637107712E+02 -0.19896703016E+02 -0.17850894022E+02  0.40659138914E+02  0.00000000000E+00 0.  1.
         11    1    3    3    0    0  0.41649313668E+00  0.73552242606E+01  0.41282000637E+01  0.84448106245E+01  0.51100000000E-03 0. -1.
        -11    1    3    3    0    0 -0.10359601246E+02  0.14926915620E+02  0.22659362634E+01  0.18310341759E+02  0.51100000000E-03 0.  1.
        -12    1    3    3    0    0 -0.20693999603E+02 -0.23854368645E+01  0.11456757695E+02  0.23773708702E+02  0.00000000000E+00 0.  1.
</event>
<event>
 7    1  0.5992960E-013  0.5052886E+02  0.7816164E-02  0.1300439E+00
        -11   -1    0    0    0    0  0.00000000000E+00  0.00000000000E+00  0.45593999997E+02  0.45594000000E+02  0.51100000000E-03 0.  1.
         11   -1    0    0    0    0 -0.00000000000E+00 -0.00000000000E+00 -0.45593999997E+02  0.45594000000E+02  0.51100000000E-03 0. -1.
    9900012    2    1    2    0    0  0.25797461763E+02  0.30259186890E+02  0.84875567684E+01  0.50528855339E+02  0.29999986289E+02 0.  0.
        -12    1    1    2    0    0 -0.25797461763E+02 -0.30259186890E+02 -0.84875567684E+01  0.40659144661E+02  0.00000000000E+00 0.  1.
         11    1    3    3    0    0  0.16558137037E+01  0.84697518173E+01 -0.14007500480E+01  0.87430266971E+01  0.51100000000E-03 0. -1.
        -11    1    3    3    0    0  0.27355229614E+02  0.11248987010E+02  0.73740213940E+01  0.30483183688E+02  0.51100000000E-03 0.  1.
         12    1    3    3    0    0 -0.32135815542E+01  0.10540448063E+02  0.25142854224E+01  0.11302644954E+02  0.00000000000E+00 0. -1.
</event>
<event>
 7    1  0.5992960E-013  0.5052886E+02  0.7816164E-02  0.1300439E+00
        -11   -1    0    0    0    0  0.00000000000E+00  0.00000000000E+00  0.45593999997E+02  0.45594000000E+02  0.51100000000E-03 0.  1.
         11   -1    0    0    0    0 -0.00000000000E+00 -0.00000000000E+00 -0.45593999997E+02  0.45594000000E+02  0.51100000000E-03 0. -1.
    9900012    2    1    2    0    0 -0.30958940332E+02 -0.19357224640E+02 -0.17888754614E+02  0.50528859897E+02  0.30000000144E+02 0.  0.
        -12    1    1    2    0    0  0.30958940332E+02  0.19357224640E+02  0.17888754614E+02  0.40659140103E+02  0.00000000000E+00 0.  1.
         11    1    3    3    0    0 -0.15553361091E+02 -0.25340672329E+02 -0.12487771668E+02  0.32249048928E+02  0.51100000000E-03 0. -1.
        -11    1    3    3    0    0 -0.12198297565E+02  0.21335614836E+01 -0.30980697944E+01  0.12765131601E+02  0.51100000000E-03 0.  1.
        -12    1    3    3    0    0 -0.32072816766E+01  0.38498862054E+01 -0.23029131515E+01  0.55146793679E+01  0.00000000000E+00 0.  1.
</event>
<event>
 7    1  0.5992960E-013  0.5052886E+02  0.7816164E-02  0.1300439E+00
        -11   -1    0    0    0    0  0.00000000000E+00  0.00000000000E+00  0.45593999997E+02  0.45594000000E+02  0.51100000000E-03 0. -1.
         11   -1    0    0    0    0 -0.00000000000E+00 -0.00000000000E+00 -0.45593999997E+02  0.45594000000E+02  0.51100000000E-03 0.  1.
    9900012    2    1    2    0    0  0.12155129183E+02  0.32195878707E+02  0.21652810753E+02  0.50528856076E+02  0.29999988527E+02 0.  0.
        -12    1    1    2    0    0 -0.12155129183E+02 -0.32195878707E+02 -0.21652810753E+02  0.40659143924E+02  0.00000000000E+00 0.  1.
         11    1    3    3    0    0  0.55902340489E+01  0.67812794132E+01  0.71136205736E+00  0.88171709430E+01  0.51100000000E-03 0. -1.
        -11    1    3    3    0    0  0.26067323415E+01  0.65635520618E+01 -0.55328779817E+01  0.89715109201E+01  0.51100000000E-03 0.  1.
         12    1    3    3    0    0  0.39581627921E+01  0.18851047232E+02  0.26474326678E+02  0.32740174213E+02  0.00000000000E+00 0. -1.
</event>
<event>
 7    1  0.5992960E-013  0.5052882E+02  0.7816164E-02  0.1300439E+00
        -11   -1    0    0    0    0  0.00000000000E+00  0.00000000000E+00  0.45593999997E+02  0.45594000000E+02  0.51100000000E-03 0. -1.
         11   -1    0    0    0    0 -0.00000000000E+00 -0.00000000000E+00 -0.45593999997E+02  0.45594000000E+02  0.51100000000E-03 0.  1.
    9900012    2    1    2    0    0 -0.62240712662E+01 -0.19675736987E+02  0.35032769507E+02  0.50528823564E+02  0.29999889704E+02 0.  0.
        -12    1    1    2    0    0  0.62240712662E+01  0.19675736987E+02 -0.35032769507E+02  0.40659176436E+02  0.00000000000E+00 0.  1.
         11    1    3    3    0    0 -0.26111595922E+01 -0.40580395861E+01  0.19027665900E+02  0.19630025714E+02  0.51100000000E-03 0. -1.
        -11    1    3    3    0    0 -0.31370441789E+01  0.46118426797E+01  0.90508401136E+00  0.56506031900E+01  0.51100000000E-03 0.  1.
        -12    1    3    3    0    0 -0.47586749510E+00 -0.20229540081E+02  0.15100019597E+02  0.25248194660E+02  0.00000000000E+00 0.  1.
</event>
<event>
 7    1  0.5992960E-013  0.5052879E+02  0.7816164E-02  0.1300439E+00
        -11   -1    0    0    0    0  0.00000000000E+00  0.00000000000E+00  0.45593999997E+02  0.45594000000E+02  0.51100000000E-03 0. -1.
         11   -1    0    0    0    0 -0.00000000000E+00 -0.00000000000E+00 -0.45593999997E+02  0.45594000000E+02  0.51100000000E-03 0.  1.
    9900012    2    1    2    0    0  0.39389025586E+02  0.37907147096E+01  0.93437960522E+01  0.50528789736E+02  0.29999786882E+02 0.  0.
        -12    1    1    2    0    0 -0.39389025586E+02 -0.37907147096E+01 -0.93437960522E+01  0.40659210264E+02  0.00000000000E+00 0.  1.
         11    1    3    3    0    0  0.14130707168E+02  0.23316710281E+01  0.24853339460E+01  0.14535833651E+02  0.51100000000E-03 0. -1.
        -11    1    3    3    0    0  0.26885913702E+02 -0.18852874657E+01  0.12118278860E+02  0.29550961866E+02  0.51100000000E-03 0.  1.
        -12    1    3    3    0    0 -0.16275952841E+01  0.33443311472E+01 -0.52598167542E+01  0.64419942191E+01  0.00000000000E+00 0.  1.
</event>
<event>
 7    1  0.5992960E-013  0.5052886E+02  0.7816164E-02  0.1300439E+00
        -11   -1    0    0    0    0  0.00000000000E+00  0.00000000000E+00  0.45593999997E+02  0.45594000000E+02  0.51100000000E-03 0.  1.
         11   -1    0    0    0    0 -0.00000000000E+00 -0.00000000000E+00 -0.45593999997E+02  0.45594000000E+02  0.51100000000E-03 0. -1.
    9900012    2    1    2    0    0  0.13051892174E+02  0.33790565911E+02 -0.18466496358E+02  0.50528859310E+02  0.29999998358E+02 0.  0.
        -12    1    1    2    0    0 -0.13051892174E+02 -0.33790565911E+02  0.18466496358E+02  0.40659140690E+02  0.00000000000E+00 0.  1.
         11    1    3    3    0    0  0.84601126541E+00  0.92578967678E+01 -0.26688542047E+00  0.93003019151E+01  0.51100000000E-03 0. -1.
        -11    1    3    3    0    0  0.91776699327E+01  0.29482956841E+02 -0.13249130286E+02  0.33600800929E+02  0.51100000000E-03 0.  1.
        -12    1    3    3    0    0  0.30282109758E+01 -0.49502876981E+01 -0.49504806520E+01  0.76277564653E+01  0.00000000000E+00 0.  1.
</event>
<event>
 7    1  0.5992960E-013  0.5052892E+02  0.7816164E-02  0.1300439E+00
        -11   -1    0    0    0    0  0.00000000000E+00  0.00000000000E+00  0.45593999997E+02  0.45594000000E+02  0.51100000000E-03 0.  1.
         11   -1    0    0    0    0 -0.00000000000E+00 -0.00000000000E+00 -0.45593999997E+02  0.45594000000E+02  0.51100000000E-03 0. -1.
    9900012    2    1    2    0    0  0.13983557762E+02 -0.94992727414E+01 -0.36978164246E+02  0.50528921047E+02  0.30000186014E+02 0.  0.
        -12    1    1    2    0    0 -0.13983557762E+02  0.94992727414E+01  0.36978164246E+02  0.40659078953E+02  0.00000000000E+00 0.  1.
         11    1    3    3    0    0 -0.29035114728E+01 -0.29562067618E+01 -0.11080740223E+02  0.11830145453E+02  0.51100000000E-03 0.  1.
        -11    1    3    3    0    0  0.59151255467E+01 -0.38946138554E+01 -0.26466207538E+02  0.27397387996E+02  0.51100000000E-03 0. -1.
         12    1    3    3    0    0  0.10971943688E+02 -0.26484521243E+01  0.56878351474E+00  0.11301387598E+02  0.00000000000E+00 0. -1.
</event>
<event>
 7    1  0.5992960E-013  0.5052886E+02  0.7816164E-02  0.1300439E+00
        -11   -1    0    0    0    0  0.00000000000E+00  0.00000000000E+00  0.45593999997E+02  0.45594000000E+02  0.51100000000E-03 0.  1.
         11   -1    0    0    0    0 -0.00000000000E+00 -0.00000000000E+00 -0.45593999997E+02  0.45594000000E+02  0.51100000000E-03 0. -1.
    9900012    2    1    2    0    0 -0.23969681938E+01  0.16832975385E+01 -0.40553505571E+02  0.50528858824E+02  0.29999996880E+02 0.  0.
        -12    1    1    2    0    0  0.23969681938E+01 -0.16832975385E+01  0.40553505571E+02  0.40659141176E+02  0.00000000000E+00 0.  1.
         11    1    3    3    0    0  0.21834098522E+00 -0.18784582368E+01 -0.10571664186E+02  0.10739476806E+02  0.51100000000E-03 0. -1.
        -11    1    3    3    0    0 -0.45964534978E+01 -0.10694911969E+02 -0.11494063968E+02  0.16359157482E+02  0.51100000000E-03 0.  1.
         12    1    3    3    0    0  0.19811443188E+01  0.14256667744E+02 -0.18487777417E+02  0.23430224535E+02  0.00000000000E+00 0. -1.
</event>
<event>
 7    1  0.5992960E-013  0.5052885E+02  0.7816164E-02  0.1300439E+00
        -11   -1    0    0    0    0  0.00000000000E+00  0.00000000000E+00  0.45593999997E+02  0.45594000000E+02  0.51100000000E-03 0.  1.
         11   -1    0    0    0    0 -0.00000000000E+00 -0.00000000000E+00 -0.45593999997E+02  0.45594000000E+02  0.51100000000E-03 0. -1.
    9900012    2    1    2    0    0  0.39059514643E+02  0.84745583757E+01 -0.74634333780E+01  0.50528847751E+02  0.29999963224E+02 0.  0.
        -12    1    1    2    0    0 -0.39059514643E+02 -0.84745583757E+01  0.74634333780E+01  0.40659152249E+02  0.00000000000E+00 0.  1.
         11    1    3    3    0    0 -0.46162349880E+00 -0.37229088097E+01  0.14807237922E-01  0.37514484903E+01  0.51100000000E-03 0. -1.
        -11    1    3    3    0    0  0.10456173562E+02  0.13457808557E+02 -0.18122796279E+01  0.17138510275E+02  0.51100000000E-03 0.  1.
         12    1    3    3    0    0  0.29064964580E+02 -0.12603413719E+01 -0.56659609880E+01  0.29638888986E+02  0.00000000000E+00 0. -1.
</event>
<event>
 7    1  0.5992960E-013  0.5052885E+02  0.7816164E-02  0.1300439E+00
        -11   -1    0    0    0    0  0.00000000000E+00  0.00000000000E+00  0.45593999997E+02  0.45594000000E+02  0.51100000000E-03 0.  1.
         11   -1    0    0    0    0 -0.00000000000E+00 -0.00000000000E+00 -0.45593999997E+02  0.45594000000E+02  0.51100000000E-03 0. -1.
    9900012    2    1    2    0    0 -0.26880503769E+02  0.23310253399E+02 -0.19678332553E+02  0.50528853816E+02  0.29999981658E+02 0.  0.
        -12    1    1    2    0    0  0.26880503769E+02 -0.23310253399E+02  0.19678332553E+02  0.40659146184E+02  0.00000000000E+00 0.  1.
         11    1    3    3    0    0 -0.50173230535E+01 -0.13175792617E+01 -0.11817145292E+01  0.53203378863E+01  0.51100000000E-03 0.  1.
        -11    1    3    3    0    0 -0.17609723138E+02  0.33378964748E+01 -0.14673786683E+02  0.23163849372E+02  0.51100000000E-03 0. -1.
        -12    1    3    3    0    0 -0.42534575781E+01  0.21289936186E+02 -0.38228313407E+01  0.22044666557E+02  0.00000000000E+00 0.  1.
</event>
<event>
 7    1  0.5992960E-013  0.5052885E+02  0.7816164E-02  0.1300439E+00
        -11   -1    0    0    0    0  0.00000000000E+00  0.00000000000E+00  0.45593999997E+02  0.45594000000E+02  0.51100000000E-03 0.  1.
         11   -1    0    0    0    0 -0.00000000000E+00 -0.00000000000E+00 -0.45593999997E+02  0.45594000000E+02  0.51100000000E-03 0. -1.
    9900012    2    1    2    0    0 -0.32569061167E+02 -0.23112108255E+02 -0.76323634195E+01  0.50528852632E+02  0.29999978061E+02 0.  0.
        -12    1    1    2    0    0  0.32569061167E+02  0.23112108255E+02  0.76323634195E+01  0.40659147368E+02  0.00000000000E+00 0.  1.
         11    1    3    3    0    0 -0.24949189639E+02 -0.64662348560E+01 -0.38265615848E+01  0.26056032520E+02  0.51100000000E-03 0. -1.
        -11    1    3    3    0    0 -0.13139943380E+01 -0.36755866422E+00  0.48140165247E+01  0.50036422587E+01  0.51100000000E-03 0.  1.
        -12    1    3    3    0    0 -0.63058771901E+01 -0.16278314735E+02 -0.86198183593E+01  0.19469177853E+02  0.00000000000E+00 0.  1.
</event>
<event>
 7    1  0.5992960E-013  0.5052887E+02  0.7816164E-02  0.1300439E+00
        -11   -1    0    0    0    0  0.00000000000E+00  0.00000000000E+00  0.45593999997E+02  0.45594000000E+02  0.51100000000E-03 0. -1.
         11   -1    0    0    0    0 -0.00000000000E+00 -0.00000000000E+00 -0.45593999997E+02  0.45594000000E+02  0.51100000000E-03 0.  1.
    9900012    2    1    2    0    0  0.37156320252E+02  0.13639422055E+02  0.93026363826E+01  0.50528868033E+02  0.30000024872E+02 0.  0.
        -12    1    1    2    0    0 -0.37156320252E+02 -0.13639422055E+02 -0.93026363826E+01  0.40659131967E+02  0.00000000000E+00 0.  1.
         11    1    3    3    0    0 -0.42556621432E+00 -0.14152078880E+01 -0.86430583317E+00  0.17120002346E+01  0.51100000000E-03 0. -1.
        -11    1    3    3    0    0 -0.35926565520E+01  0.20872796929E+01  0.28360125248E+01  0.50305948872E+01  0.51100000000E-03 0.  1.
         12    1    3    3    0    0  0.41174543018E+02  0.12967350250E+02  0.73309296909E+01  0.43786272911E+02  0.00000000000E+00 0. -1.
</event>
<event>
 7    1  0.5992960E-013  0.5052887E+02  0.7816164E-02  0.1300439E+00
        -11   -1    0    0    0    0  0.00000000000E+00  0.00000000000E+00  0.45593999997E+02  0.45594000000E+02  0.51100000000E-03 0.  1.
         11   -1    0    0    0    0 -0.00000000000E+00 -0.00000000000E+00 -0.45593999997E+02  0.45594000000E+02  0.51100000000E-03 0. -1.
    9900012    2    1    2    0    0 -0.33854057942E+02 -0.19634551277E+01 -0.22432400742E+02  0.50528868206E+02  0.30000025399E+02 0.  0.
        -12    1    1    2    0    0  0.33854057942E+02  0.19634551277E+01  0.22432400742E+02  0.40659131794E+02  0.00000000000E+00 0.  1.
         11    1    3    3    0    0 -0.23228559957E+02  0.26694687958E+01 -0.19190872605E+02  0.30248663656E+02  0.51100000000E-03 0. -1.
        -11    1    3    3    0    0 -0.13945495832E+02 -0.23579994764E+01  0.13106259718E+01  0.14204040138E+02  0.51100000000E-03 0.  1.
        -12    1    3    3    0    0  0.33199978472E+01 -0.22749244471E+01 -0.45521541080E+01  0.60761644126E+01  0.00000000000E+00 0.  1.
</event>
<event>
 7    1  0.5992960E-013  0.5052886E+02  0.7816164E-02  0.1300439E+00
        -11   -1    0    0    0    0  0.00000000000E+00  0.00000000000E+00  0.45593999997E+02  0.45594000000E+02  0.51100000000E-03 0.  1.
         11   -1    0    0    0    0 -0.00000000000E+00 -0.00000000000E+00 -0.45593999997E+02  0.45594000000E+02  0.51100000000E-03 0. -1.
    9900012    2    1    2    0    0 -0.23322744024E+02 -0.84243223384E+01 -0.32221828914E+02  0.50528857680E+02  0.29999993403E+02 0.  0.
        -12    1    1    2    0    0  0.23322744024E+02  0.84243223384E+01  0.32221828914E+02  0.40659142320E+02  0.00000000000E+00 0.  1.
         11    1    3    3    0    0 -0.18073496954E+01  0.24187926702E+01 -0.29758796633E+00  0.30340780744E+01  0.51100000000E-03 0. -1.
        -11    1    3    3    0    0  0.26279916488E+00  0.69776978560E+01 -0.54384010400E+01  0.88506235319E+01  0.51100000000E-03 0.  1.
         12    1    3    3    0    0 -0.21778193494E+02 -0.17820812865E+02 -0.26485839907E+02  0.38644156073E+02  0.00000000000E+00 0. -1.
</event>
<event>
 7    1  0.5992960E-013  0.5052886E+02  0.7816164E-02  0.1300439E+00
        -11   -1    0    0    0    0  0.00000000000E+00  0.00000000000E+00  0.45593999997E+02  0.45594000000E+02  0.51100000000E-03 0.  1.
         11   -1    0    0    0    0 -0.00000000000E+00 -0.00000000000E+00 -0.45593999997E+02  0.45594000000E+02  0.51100000000E-03 0. -1.
    9900012    2    1    2    0    0  0.30990864522E+02  0.26154737724E+02  0.29431111160E+01  0.50528857212E+02  0.29999991980E+02 0.  0.
        -12    1    1    2    0    0 -0.30990864522E+02 -0.26154737724E+02 -0.29431111160E+01  0.40659142788E+02  0.00000000000E+00 0.  1.
         11    1    3    3    0    0 -0.47184437097E+00  0.20065188173E+01  0.62214611495E-02  0.20612602559E+01  0.51100000000E-03 0. -1.
        -11    1    3    3    0    0  0.12147246000E+02  0.91023818551E+01  0.14853550609E+02  0.21237629500E+02  0.51100000000E-03 0.  1.
         12    1    3    3    0    0  0.19315462893E+02  0.15045837052E+02 -0.11916660954E+02  0.27229967456E+02  0.00000000000E+00 0. -1.
</event>
<event>
 7    1  0.5992960E-013  0.5052887E+02  0.7816164E-02  0.1300439E+00
        -11   -1    0    0    0    0  0.00000000000E+00  0.00000000000E+00  0.45593999997E+02  0.45594000000E+02  0.51100000000E-03 0. -1.
         11   -1    0    0    0    0 -0.00000000000E+00 -0.00000000000E+00 -0.45593999997E+02  0.45594000000E+02  0.51100000000E-03 0.  1.
    9900012    2    1    2    0    0 -0.85077164793E+01  0.34830888561E+02  0.19172715374E+02  0.50528867539E+02  0.30000023373E+02 0.  0.
        -12    1    1    2    0    0  0.85077164793E+01 -0.34830888561E+02 -0.19172715374E+02  0.40659132461E+02  0.00000000000E+00 0.  1.
         11    1    3    3    0    0 -0.11170964477E+02  0.12759383811E+02  0.14101200822E+02  0.22055298399E+02  0.51100000000E-03 0. -1.
        -11    1    3    3    0    0 -0.37312825073E+01 -0.69496425556E+00  0.28015234123E+01  0.47174122309E+01  0.51100000000E-03 0.  1.
        -12    1    3    3    0    0  0.63945305045E+01  0.22766469005E+02  0.22699911397E+01  0.23756156910E+02  0.00000000000E+00 0.  1.
</event>
<event>
 7    1  0.5992960E-013  0.5052886E+02  0.7816164E-02  0.1300439E+00
        -11   -1    0    0    0    0  0.00000000000E+00  0.00000000000E+00  0.45593999997E+02  0.45594000000E+02  0.51100000000E-03 0. -1.
         11   -1    0    0    0    0 -0.00000000000E+00 -0.00000000000E+00 -0.45593999997E+02  0.45594000000E+02  0.51100000000E-03 0.  1.
    9900012    2    1    2    0    0  0.11014366780E+02 -0.26672520502E+02  0.28643078324E+02  0.50528861280E+02  0.30000004348E+02 0.  0.
        -12    1    1    2    0    0 -0.11014366780E+02  0.26672520502E+02 -0.28643078324E+02  0.40659138720E+02  0.00000000000E+00 0.  1.
         11    1    3    3    0    0 -0.37888736538E+01 -0.26394033051E+01 -0.11411729645E+01  0.47564996970E+01  0.51100000000E-03 0. -1.
        -11    1    3    3    0    0 -0.37568677426E+01 -0.11720164237E+01  0.87209768725E+01  0.95678166582E+01  0.51100000000E-03 0.  1.
         12    1    3    3    0    0  0.18560108177E+02 -0.22861100773E+02  0.21063274416E+02  0.36204544925E+02  0.00000000000E+00 0. -1.
</event>
<event>
 7    1  0.5992960E-013  0.5052886E+02  0.7816164E-02  0.1300439E+00
        -11   -1    0    0    0    0  0.00000000000E+00  0.00000000000E+00  0.45593999997E+02  0.45594000000E+02  0.51100000000E-03 0.  1.
         11   -1    0    0    0    0 -0.00000000000E+00 -0.00000000000E+00 -0.45593999997E+02  0.45594000000E+02  0.51100000000E-03 0. -1.
    9900012    2    1    2    0    0  0.16748586201E+02  0.90777258167E+01 -0.35919982816E+02  0.50528863127E+02  0.30000009962E+02 0.  0.
        -12    1    1    2    0    0 -0.16748586201E+02 -0.90777258167E+01  0.35919982816E+02  0.40659136873E+02  0.00000000000E+00 0.  1.
         11    1    3    3    0    0 -0.23910892545E+01  0.23088548249E+01 -0.18620500152E+00  0.33290826048E+01  0.51100000000E-03 0. -1.
        -11    1    3    3    0    0  0.57613455088E+00  0.10913066337E+02 -0.78871226448E+01  0.13477152955E+02  0.51100000000E-03 0.  1.
         12    1    3    3    0    0  0.18563540904E+02 -0.41441953449E+01 -0.27846655170E+02  0.33722627568E+02  0.00000000000E+00 0. -1.
</event>
<event>
 7    1  0.5992960E-013  0.5052886E+02  0.7816164E-02  0.1300439E+00
        -11   -1    0    0    0    0  0.00000000000E+00  0.00000000000E+00  0.45593999997E+02  0.45594000000E+02  0.51100000000E-03 0.  1.
         11   -1    0    0    0    0 -0.00000000000E+00 -0.00000000000E+00 -0.45593999997E+02  0.45594000000E+02  0.51100000000E-03 0. -1.
    9900012    2    1    2    0    0 -0.10116139019E+01  0.35087663614E+02 -0.20518243126E+02  0.50528858328E+02  0.29999995374E+02 0.  0.
        -12    1    1    2    0    0  0.10116139019E+01 -0.35087663614E+02  0.20518243126E+02  0.40659141672E+02  0.00000000000E+00 0.  1.
         11    1    3    3    0    0  0.12514679476E+00  0.86306294624E+01 -0.52222482613E+01  0.10088374686E+02  0.51100000000E-03 0. -1.
        -11    1    3    3    0    0 -0.10417254487E+02  0.12104705609E+02 -0.16926794173E+02  0.23271429913E+02  0.51100000000E-03 0.  1.
        -12    1    3    3    0    0  0.92804937904E+01  0.14352328542E+02  0.16307993091E+01  0.17169053730E+02  0.00000000000E+00 0.  1.
</event>
<event>
 7    1  0.5992960E-013  0.5052885E+02  0.7816164E-02  0.1300439E+00
        -11   -1    0    0    0    0  0.00000000000E+00  0.00000000000E+00  0.45593999997E+02  0.45594000000E+02  0.51100000000E-03 0.  1.
         11   -1    0    0    0    0 -0.00000000000E+00 -0.00000000000E+00 -0.45593999997E+02  0.45594000000E+02  0.51100000000E-03 0. -1.
    9900012    2    1    2    0    0 -0.29273279306E+01  0.36084838811E+02 -0.18506251051E+02  0.50528853811E+02  0.29999981644E+02 0.  0.
        -12    1    1    2    0    0  0.29273279306E+01 -0.36084838811E+02  0.18506251051E+02  0.40659146189E+02  0.00000000000E+00 0.  1.
         11    1    3    3    0    0 -0.51493445151E+01  0.20482590868E+01 -0.15091899651E+00  0.55438155657E+01  0.51100000000E-03 0.  1.
        -11    1    3    3    0    0  0.59519190530E+01  0.16926694580E+01 -0.93361428408E+01  0.11200626488E+02  0.51100000000E-03 0. -1.
         12    1    3    3    0    0 -0.37299024684E+01  0.32343910266E+02 -0.90191892138E+01  0.33784411758E+02  0.00000000000E+00 0. -1.
</event>
<event>
 7    1  0.5992960E-013  0.5052886E+02  0.7816164E-02  0.1300439E+00
        -11   -1    0    0    0    0  0.00000000000E+00  0.00000000000E+00  0.45593999997E+02  0.45594000000E+02  0.51100000000E-03 0.  1.
         11   -1    0    0    0    0 -0.00000000000E+00 -0.00000000000E+00 -0.45593999997E+02  0.45594000000E+02  0.51100000000E-03 0. -1.
    9900012    2    1    2    0    0 -0.23006830451E+02 -0.61806377358E+01 -0.32949218746E+02  0.50528861467E+02  0.30000004916E+02 0.  0.
        -12    1    1    2    0    0  0.23006830451E+02  0.61806377358E+01  0.32949218746E+02  0.40659138533E+02  0.00000000000E+00 0.  1.
         11    1    3    3    0    0 -0.86115554965E+01 -0.34010194345E+01 -0.12952129818E+02  0.15921164792E+02  0.51100000000E-03 0. -1.
        -11    1    3    3    0    0 -0.17300850935E+01 -0.11809453907E+02 -0.12694103327E+02  0.17424025240E+02  0.51100000000E-03 0.  1.
         12    1    3    3    0    0 -0.12665189861E+02  0.90298356059E+01 -0.73029856012E+01  0.17183671435E+02  0.00000000000E+00 0. -1.
</event>
<event>
 7    1  0.5992960E-013  0.5052886E+02  0.7816164E-02  0.1300439E+00
        -11   -1    0    0    0    0  0.00000000000E+00  0.00000000000E+00  0.45593999997E+02  0.45594000000E+02  0.51100000000E-03 0. -1.
         11   -1    0    0    0    0 -0.00000000000E+00 -0.00000000000E+00 -0.45593999997E+02  0.45594000000E+02  0.51100000000E-03 0.  1.
    9900012    2    1    2    0    0 -0.23687211771E+02 -0.31313413262E+02  0.10561791488E+02  0.50528864606E+02  0.30000014456E+02 0.  0.
        -12    1    1    2    0    0  0.23687211771E+02  0.31313413262E+02 -0.10561791488E+02  0.40659135394E+02  0.00000000000E+00 0.  1.
         11    1    3    3    0    0 -0.15087565800E+02  0.30680901290E+00  0.28815630504E+01  0.15363338811E+02  0.51100000000E-03 0. -1.
        -11    1    3    3    0    0  0.29034734133E+00  0.70147279689E+00 -0.59910086165E-01  0.76154785991E+00  0.51100000000E-03 0.  1.
        -12    1    3    3    0    0 -0.88899933116E+01 -0.32321695071E+02  0.77401385239E+01  0.34403977935E+02  0.00000000000E+00 0.  1.
</event>
<event>
 7    1  0.5992960E-013  0.5052886E+02  0.7816164E-02  0.1300439E+00
        -11   -1    0    0    0    0  0.00000000000E+00  0.00000000000E+00  0.45593999997E+02  0.45594000000E+02  0.51100000000E-03 0.  1.
         11   -1    0    0    0    0 -0.00000000000E+00 -0.00000000000E+00 -0.45593999997E+02  0.45594000000E+02  0.51100000000E-03 0. -1.
    9900012    2    1    2    0    0  0.99761665375E+01  0.11729774186E+02 -0.37630499341E+02  0.50528856110E+02  0.29999988632E+02 0.  0.
        -12    1    1    2    0    0 -0.99761665375E+01 -0.11729774186E+02  0.37630499341E+02  0.40659143890E+02  0.00000000000E+00 0.  1.
         11    1    3    3    0    0  0.41700448206E+01  0.39137796438E+01 -0.65745466352E+01  0.87138744899E+01  0.51100000000E-03 0. -1.
        -11    1    3    3    0    0  0.34207278324E+01  0.17581116292E+02 -0.20915818261E+02  0.27536675231E+02  0.51100000000E-03 0.  1.
         12    1    3    3    0    0  0.23853938846E+01 -0.97651217504E+01 -0.10140134445E+02  0.14278306389E+02  0.00000000000E+00 0. -1.
</event>
<event>
 7    1  0.5992960E-013  0.5052887E+02  0.7816164E-02  0.1300439E+00
        -11   -1    0    0    0    0  0.00000000000E+00  0.00000000000E+00  0.45593999997E+02  0.45594000000E+02  0.51100000000E-03 0. -1.
         11   -1    0    0    0    0 -0.00000000000E+00 -0.00000000000E+00 -0.45593999997E+02  0.45594000000E+02  0.51100000000E-03 0.  1.
    9900012    2    1    2    0    0  0.21941709280E+01  0.34016982076E+02 -0.22162930522E+02  0.50528868862E+02  0.30000027392E+02 0.  0.
        -12    1    1    2    0    0 -0.21941709280E+01 -0.34016982076E+02  0.22162930522E+02  0.40659131138E+02  0.00000000000E+00 0.  1.
         11    1    3    3    0    0  0.47038356469E+01  0.18714574530E+02 -0.16697622937E+02  0.25518071668E+02  0.51100000000E-03 0. -1.
        -11    1    3    3    0    0  0.11850583277E+01  0.28719164495E+01 -0.10613075047E+02  0.11058464158E+02  0.51100000000E-03 0.  1.
        -12    1    3    3    0    0 -0.36947230466E+01  0.12430491096E+02  0.51477674619E+01  0.13952333035E+02  0.00000000000E+00 0.  1.
</event>
<event>
 7    1  0.5992960E-013  0.5052885E+02  0.7816164E-02  0.1300439E+00
        -11   -1    0    0    0    0  0.00000000000E+00  0.00000000000E+00  0.45593999997E+02  0.45594000000E+02  0.51100000000E-03 0.  1.
         11   -1    0    0    0    0 -0.00000000000E+00 -0.00000000000E+00 -0.45593999997E+02  0.45594000000E+02  0.51100000000E-03 0. -1.
    9900012    2    1    2    0    0  0.18256159787E+02  0.29297325194E+02 -0.21483612067E+02  0.50528853167E+02  0.29999979688E+02 0.  0.
        -12    1    1    2    0    0 -0.18256159787E+02 -0.29297325194E+02  0.21483612067E+02  0.40659146833E+02  0.00000000000E+00 0.  1.
         11    1    3    3    0    0  0.24987460647E+01  0.61912573673E+01 -0.10715305694E+02  0.12625101032E+02  0.51100000000E-03 0. -1.
        -11    1    3    3    0    0  0.85326531986E+01  0.65318504633E+01 -0.15825869026E+02  0.19129280483E+02  0.51100000000E-03 0.  1.
        -12    1    3    3    0    0  0.72247605239E+01  0.16574217364E+02  0.50575626537E+01  0.18774471653E+02  0.00000000000E+00 0.  1.
</event>
<event>
 7    1  0.5992960E-013  0.5052880E+02  0.7816164E-02  0.1300439E+00
        -11   -1    0    0    0    0  0.00000000000E+00  0.00000000000E+00  0.45593999997E+02  0.45594000000E+02  0.51100000000E-03 0.  1.
         11   -1    0    0    0    0 -0.00000000000E+00 -0.00000000000E+00 -0.45593999997E+02  0.45594000000E+02  0.51100000000E-03 0. -1.
    9900012    2    1    2    0    0 -0.92321798396E+00 -0.18043100358E+02 -0.36424779213E+02  0.50528802484E+02  0.29999825629E+02 0.  0.
        -12    1    1    2    0    0  0.92321798396E+00  0.18043100358E+02  0.36424779213E+02  0.40659197516E+02  0.00000000000E+00 0.  1.
         11    1    3    3    0    0 -0.39966434470E+01 -0.21935176954E+02 -0.29029679025E+02  0.36603926175E+02  0.51100000000E-03 0. -1.
        -11    1    3    3    0    0 -0.78873002182E+00 -0.30275327446E+01 -0.63754945615E-01  0.31292354531E+01  0.51100000000E-03 0.  1.
         12    1    3    3    0    0  0.38621554849E+01  0.69196093412E+01 -0.73313452419E+01  0.10795640855E+02  0.00000000000E+00 0. -1.
</event>
<event>
 7    1  0.5992960E-013  0.5052886E+02  0.7816164E-02  0.1300439E+00
        -11   -1    0    0    0    0  0.00000000000E+00  0.00000000000E+00  0.45593999997E+02  0.45594000000E+02  0.51100000000E-03 0. -1.
         11   -1    0    0    0    0 -0.00000000000E+00 -0.00000000000E+00 -0.45593999997E+02  0.45594000000E+02  0.51100000000E-03 0.  1.
    9900012    2    1    2    0    0  0.36997939581E+02 -0.16770627871E+02 -0.17504051727E+01  0.50528863134E+02  0.30000009983E+02 0.  0.
        -12    1    1    2    0    0 -0.36997939581E+02  0.16770627871E+02  0.17504051727E+01  0.40659136866E+02  0.00000000000E+00 0.  1.
         11    1    3    3    0    0  0.25435904600E+02 -0.17290238163E+02 -0.27982845144E+01  0.30883134152E+02  0.51100000000E-03 0. -1.
        -11    1    3    3    0    0  0.11559926373E+02 -0.55977816194E+01 -0.16694130727E+01  0.12951988152E+02  0.51100000000E-03 0.  1.
        -12    1    3    3    0    0  0.21086071340E-02  0.61173919111E+01  0.27172924144E+01  0.66937408305E+01  0.00000000000E+00 0.  1.
</event>
<event>
 7    1  0.5992960E-013  0.5052887E+02  0.7816164E-02  0.1300439E+00
        -11   -1    0    0    0    0  0.00000000000E+00  0.00000000000E+00  0.45593999997E+02  0.45594000000E+02  0.51100000000E-03 0.  1.
         11   -1    0    0    0    0 -0.00000000000E+00 -0.00000000000E+00 -0.45593999997E+02  0.45594000000E+02  0.51100000000E-03 0. -1.
    9900012    2    1    2    0    0 -0.10784792696E+02 -0.22660887948E+02 -0.31989648705E+02  0.50528865475E+02  0.30000017097E+02 0.  0.
        -12    1    1    2    0    0  0.10784792696E+02  0.22660887948E+02  0.31989648705E+02  0.40659134525E+02  0.00000000000E+00 0.  1.
         11    1    3    3    0    0 -0.56522726936E+01 -0.82655317166E+01 -0.15785406005E+01  0.10137010992E+02  0.51100000000E-03 0. -1.
        -11    1    3    3    0    0 -0.17696167752E+01 -0.31530989479E+01  0.31768431502E+01  0.48130976686E+01  0.51100000000E-03 0.  1.
         12    1    3    3    0    0 -0.33629032275E+01 -0.11242257283E+02 -0.33587951255E+02  0.35578756814E+02  0.00000000000E+00 0. -1.
</event>
<event>
 7    1  0.5992960E-013  0.5052886E+02  0.7816164E-02  0.1300439E+00
        -11   -1    0    0    0    0  0.00000000000E+00  0.00000000000E+00  0.45593999997E+02  0.45594000000E+02  0.51100000000E-03 0.  1.
         11   -1    0    0    0    0 -0.00000000000E+00 -0.00000000000E+00 -0.45593999997E+02  0.45594000000E+02  0.51100000000E-03 0. -1.
    9900012    2    1    2    0    0  0.21424186561E+02 -0.34388999110E+02 -0.34009744586E+01  0.50528860107E+02  0.30000000781E+02 0.  0.
        -12    1    1    2    0    0 -0.21424186561E+02  0.34388999110E+02  0.34009744586E+01  0.40659139893E+02  0.00000000000E+00 0.  1.
         11    1    3    3    0    0  0.73008861937E+01 -0.58003899389E+01 -0.10851512560E+02  0.14307438197E+02  0.51100000000E-03 0. -1.
        -11    1    3    3    0    0 -0.94077178871E+00 -0.15301113742E+02  0.24880403569E+01  0.15530598133E+02  0.51100000000E-03 0.  1.
         12    1    3    3    0    0  0.15064072156E+02 -0.13287495429E+02  0.49624977442E+01  0.20690823777E+02  0.00000000000E+00 0. -1.
</event>
<event>
 7    1  0.5992960E-013  0.5052886E+02  0.7816164E-02  0.1300439E+00
        -11   -1    0    0    0    0  0.00000000000E+00  0.00000000000E+00  0.45593999997E+02  0.45594000000E+02  0.51100000000E-03 0.  1.
         11   -1    0    0    0    0 -0.00000000000E+00 -0.00000000000E+00 -0.45593999997E+02  0.45594000000E+02  0.51100000000E-03 0. -1.
    9900012    2    1    2    0    0 -0.34747438706E+01 -0.31195484379E+02 -0.25844410451E+02  0.50528860287E+02  0.30000001329E+02 0.  0.
        -12    1    1    2    0    0  0.34747438706E+01  0.31195484379E+02  0.25844410451E+02  0.40659139713E+02  0.00000000000E+00 0.  1.
         11    1    3    3    0    0 -0.26678478111E+01 -0.25746930139E+02 -0.24982617820E+02  0.35974338312E+02  0.51100000000E-03 0. -1.
        -11    1    3    3    0    0 -0.23895715564E+01  0.19526237548E+01 -0.50397173265E+01  0.59094452145E+01  0.51100000000E-03 0.  1.
        -12    1    3    3    0    0  0.15826754969E+01 -0.74011779949E+01  0.41779246959E+01  0.86450767611E+01  0.00000000000E+00 0.  1.
</event>
<event>
 7    1  0.5992960E-013  0.5052887E+02  0.7816164E-02  0.1300439E+00
        -11   -1    0    0    0    0  0.00000000000E+00  0.00000000000E+00  0.45593999997E+02  0.45594000000E+02  0.51100000000E-03 0.  1.
         11   -1    0    0    0    0 -0.00000000000E+00 -0.00000000000E+00 -0.45593999997E+02  0.45594000000E+02  0.51100000000E-03 0. -1.
    9900012    2    1    2    0    0  0.15784337361E+02 -0.17206384467E+01 -0.37430727104E+02  0.50528865305E+02  0.30000016582E+02 0.  0.
        -12    1    1    2    0    0 -0.15784337361E+02  0.17206384467E+01  0.37430727104E+02  0.40659134695E+02  0.00000000000E+00 0.  1.
         11    1    3    3    0    0  0.37629130921E+01  0.72177483830E+01 -0.14561276588E+02  0.16681911845E+02  0.51100000000E-03 0. -1.
        -11    1    3    3    0    0  0.32488094313E+01 -0.64813625040E+01 -0.23618317747E+02  0.24706026715E+02  0.51100000000E-03 0.  1.
        -12    1    3    3    0    0  0.87726148378E+01 -0.24570243256E+01  0.74886723101E+00  0.91409267451E+01  0.00000000000E+00 0.  1.
</event>
<event>
 7    1  0.5992960E-013  0.5052886E+02  0.7816164E-02  0.1300439E+00
        -11   -1    0    0    0    0  0.00000000000E+00  0.00000000000E+00  0.45593999997E+02  0.45594000000E+02  0.51100000000E-03 0.  1.
         11   -1    0    0    0    0 -0.00000000000E+00 -0.00000000000E+00 -0.45593999997E+02  0.45594000000E+02  0.51100000000E-03 0. -1.
    9900012    2    1    2    0    0 -0.18749293801E+02 -0.35834797562E+02 -0.41829721873E+01  0.50528856002E+02  0.29999988305E+02 0.  0.
        -12    1    1    2    0    0  0.18749293801E+02  0.35834797562E+02  0.41829721873E+01  0.40659143998E+02  0.00000000000E+00 0.  1.
         11    1    3    3    0    0 -0.65766506798E+00 -0.90458799754E+01 -0.49333450981E+01  0.10324648274E+02  0.51100000000E-03 0. -1.
        -11    1    3    3    0    0  0.41952454531E+01 -0.74369299217E+01 -0.53336002608E+01  0.10067537091E+02  0.51100000000E-03 0.  1.
        -12    1    3    3    0    0 -0.22286874186E+02 -0.19351987665E+02  0.60839731716E+01  0.30136670637E+02  0.00000000000E+00 0.  1.
</event>
<event>
 7    1  0.5992960E-013  0.5052886E+02  0.7816164E-02  0.1300439E+00
        -11   -1    0    0    0    0  0.00000000000E+00  0.00000000000E+00  0.45593999997E+02  0.45594000000E+02  0.51100000000E-03 0.  1.
         11   -1    0    0    0    0 -0.00000000000E+00 -0.00000000000E+00 -0.45593999997E+02  0.45594000000E+02  0.51100000000E-03 0. -1.
    9900012    2    1    2    0    0 -0.20956320526E+02  0.96395181680E+01 -0.33482505516E+02  0.50528857656E+02  0.29999993331E+02 0.  0.
        -12    1    1    2    0    0  0.20956320526E+02 -0.96395181680E+01  0.33482505516E+02  0.40659142344E+02  0.00000000000E+00 0.  1.
         11    1    3    3    0    0 -0.16918069719E+01 -0.10990411558E+01 -0.21759182889E+02  0.21852508839E+02  0.51100000000E-03 0.  1.
        -11    1    3    3    0    0 -0.10301476795E+02  0.80775093064E+01 -0.13881872371E+02  0.19080696044E+02  0.51100000000E-03 0. -1.
        -12    1    3    3    0    0 -0.89630367592E+01  0.26610500173E+01  0.21585497434E+01  0.95956527728E+01  0.00000000000E+00 0.  1.
</event>
<event>
 7    1  0.5992960E-013  0.5052884E+02  0.7816164E-02  0.1300439E+00
        -11   -1    0    0    0    0  0.00000000000E+00  0.00000000000E+00  0.45593999997E+02  0.45594000000E+02  0.51100000000E-03 0. -1.
         11   -1    0    0    0    0 -0.00000000000E+00 -0.00000000000E+00 -0.45593999997E+02  0.45594000000E+02  0.51100000000E-03 0.  1.
    9900012    2    1    2    0    0  0.20444590435E+02 -0.31249564793E+02  0.16082615574E+02  0.50528842342E+02  0.29999946781E+02 0.  0.
        -12    1    1    2    0    0 -0.20444590435E+02  0.31249564793E+02 -0.16082615574E+02  0.40659157658E+02  0.00000000000E+00 0.  1.
         11    1    3    3    0    0  0.12911372263E+02 -0.25840258045E+02  0.30974343969E+01  0.29051963267E+02  0.51100000000E-03 0. -1.
        -11    1    3    3    0    0  0.43175349517E+01 -0.36093257263E+01 -0.20556559186E+01  0.59911653103E+01  0.51100000000E-03 0.  1.
         12    1    3    3    0    0  0.32156832197E+01 -0.17999810215E+01  0.15040837096E+02  0.15485713765E+02  0.00000000000E+00 0. -1.
</event>
<event>
 7    1  0.5992960E-013  0.5052886E+02  0.7816164E-02  0.1300439E+00
        -11   -1    0    0    0    0  0.00000000000E+00  0.00000000000E+00  0.45593999997E+02  0.45594000000E+02  0.51100000000E-03 0.  1.
         11   -1    0    0    0    0 -0.00000000000E+00 -0.00000000000E+00 -0.45593999997E+02  0.45594000000E+02  0.51100000000E-03 0. -1.
    9900012    2    1    2    0    0 -0.10753822379E+02  0.21529792084E+02 -0.32771773525E+02  0.50528858556E+02  0.29999996068E+02 0.  0.
        -12    1    1    2    0    0  0.10753822379E+02 -0.21529792084E+02  0.32771773525E+02  0.40659141444E+02  0.00000000000E+00 0.  1.
         11    1    3    3    0    0  0.26091395829E+01 -0.34450124317E+01 -0.86243141663E+00  0.44067571100E+01  0.51100000000E-03 0. -1.
        -11    1    3    3    0    0 -0.63365847484E+01  0.24890350519E+01 -0.45402112511E+00  0.68230299139E+01  0.51100000000E-03 0.  1.
         12    1    3    3    0    0 -0.70263772132E+01  0.22485769464E+02 -0.31455320983E+02  0.39299071532E+02  0.00000000000E+00 0. -1.
</event>
<event>
 7    1  0.5992960E-013  0.5052888E+02  0.7816164E-02  0.1300439E+00
        -11   -1    0    0    0    0  0.00000000000E+00  0.00000000000E+00  0.45593999997E+02  0.45594000000E+02  0.51100000000E-03 0.  1.
         11   -1    0    0    0    0 -0.00000000000E+00 -0.00000000000E+00 -0.45593999997E+02  0.45594000000E+02  0.51100000000E-03 0. -1.
    9900012    2    1    2    0    0  0.40654792251E+02 -0.47003464695E-01 -0.59164356659E+00  0.50528875754E+02  0.30000048342E+02 0.  0.
        -12    1    1    2    0    0 -0.40654792251E+02  0.47003464695E-01  0.59164356659E+00  0.40659124246E+02  0.00000000000E+00 0.  1.
         11    1    3    3    0    0  0.55572177396E+01 -0.31802603710E+01 -0.29502475747E+01  0.70498713496E+01  0.51100000000E-03 0. -1.
        -11    1    3    3    0    0  0.15588587056E+02 -0.10552755664E+02  0.50675038152E+01  0.19494724766E+02  0.51100000000E-03 0.  1.
         12    1    3    3    0    0  0.19508987456E+02  0.13686012570E+02 -0.27088998071E+01  0.23984279639E+02  0.00000000000E+00 0. -1.
</event>
<event>
 7    1  0.5992960E-013  0.5052882E+02  0.7816164E-02  0.1300439E+00
        -11   -1    0    0    0    0  0.00000000000E+00  0.00000000000E+00  0.45593999997E+02  0.45594000000E+02  0.51100000000E-03 0. -1.
         11   -1    0    0    0    0 -0.00000000000E+00 -0.00000000000E+00 -0.45593999997E+02  0.45594000000E+02  0.51100000000E-03 0.  1.
    9900012    2    1    2    0    0 -0.12114504491E+02 -0.28350435828E+02 -0.26507742852E+02  0.50528820694E+02  0.29999880982E+02 0.  0.
        -12    1    1    2    0    0  0.12114504491E+02  0.28350435828E+02  0.26507742852E+02  0.40659179306E+02  0.00000000000E+00 0.  1.
         11    1    3    3    0    0 -0.78583726244E+00 -0.12645816674E+02  0.67649848662E+00  0.12688257170E+02  0.51100000000E-03 0. -1.
        -11    1    3    3    0    0  0.37947631611E+01 -0.57948541584E+01 -0.27702175284E+01  0.74602055992E+01  0.51100000000E-03 0.  1.
        -12    1    3    3    0    0 -0.15123430390E+02 -0.99097649951E+01 -0.24414023810E+02  0.30380357925E+02  0.00000000000E+00 0.  1.
</event>
<event>
 7    1  0.5992960E-013  0.5052888E+02  0.7816164E-02  0.1300439E+00
        -11   -1    0    0    0    0  0.00000000000E+00  0.00000000000E+00  0.45593999997E+02  0.45594000000E+02  0.51100000000E-03 0.  1.
         11   -1    0    0    0    0 -0.00000000000E+00 -0.00000000000E+00 -0.45593999997E+02  0.45594000000E+02  0.51100000000E-03 0. -1.
    9900012    2    1    2    0    0  0.23986494694E+01 -0.40443764330E+02 -0.34223801166E+01  0.50528877062E+02  0.30000052317E+02 0.  0.
        -12    1    1    2    0    0 -0.23986494694E+01  0.40443764330E+02  0.34223801166E+01  0.40659122938E+02  0.00000000000E+00 0.  1.
         11    1    3    3    0    0  0.82844531971E+01 -0.40620274683E+01 -0.75767607581E+01  0.11938992243E+02  0.51100000000E-03 0. -1.
        -11    1    3    3    0    0  0.11316418040E+01 -0.65224407218E+01 -0.27187562566E+01  0.71564294159E+01  0.51100000000E-03 0.  1.
        -12    1    3    3    0    0 -0.70174455316E+01 -0.29859296140E+02  0.68731368981E+01  0.31433455403E+02  0.00000000000E+00 0.  1.
</event>
<event>
 7    1  0.5992960E-013  0.5052886E+02  0.7816164E-02  0.1300439E+00
        -11   -1    0    0    0    0  0.00000000000E+00  0.00000000000E+00  0.45593999997E+02  0.45594000000E+02  0.51100000000E-03 0. -1.
         11   -1    0    0    0    0 -0.00000000000E+00 -0.00000000000E+00 -0.45593999997E+02  0.45594000000E+02  0.51100000000E-03 0.  1.
    9900012    2    1    2    0    0 -0.11815733843E+02 -0.29168968168E+02  0.25743456899E+02  0.50528857813E+02  0.29999993810E+02 0.  0.
        -12    1    1    2    0    0  0.11815733843E+02  0.29168968168E+02 -0.25743456899E+02  0.40659142187E+02  0.00000000000E+00 0.  1.
         11    1    3    3    0    0  0.14943628173E+01 -0.12755995565E+02  0.17809891642E+02  0.21957704426E+02  0.51100000000E-03 0. -1.
        -11    1    3    3    0    0 -0.12034025583E+02 -0.35781893842E+01  0.92668688071E+01  0.15604360568E+02  0.51100000000E-03 0.  1.
        -12    1    3    3    0    0 -0.12760710773E+01 -0.12834783218E+02 -0.13333035502E+01  0.12966792819E+02  0.00000000000E+00 0.  1.
</event>
<event>
 7    1  0.5992960E-013  0.5052886E+02  0.7816164E-02  0.1300439E+00
        -11   -1    0    0    0    0  0.00000000000E+00  0.00000000000E+00  0.45593999997E+02  0.45594000000E+02  0.51100000000E-03 0. -1.
         11   -1    0    0    0    0 -0.00000000000E+00 -0.00000000000E+00 -0.45593999997E+02  0.45594000000E+02  0.51100000000E-03 0.  1.
    9900012    2    1    2    0    0 -0.32478906483E+02 -0.19397918528E+02  0.14899892930E+02  0.50528863033E+02  0.30000009675E+02 0.  0.
        -12    1    1    2    0    0  0.32478906483E+02  0.19397918528E+02 -0.14899892930E+02  0.40659136967E+02  0.00000000000E+00 0.  1.
         11    1    3    3    0    0 -0.11331628008E+02 -0.84418544962E+01  0.12093791571E+02  0.18599206851E+02  0.51100000000E-03 0. -1.
        -11    1    3    3    0    0 -0.21207093597E+02 -0.48998928010E+01 -0.47175616647E+01  0.22271173220E+02  0.51100000000E-03 0.  1.
         12    1    3    3    0    0  0.59815121669E-01 -0.60561712308E+01  0.75236630240E+01  0.96584829618E+01  0.00000000000E+00 0. -1.
</event>
<event>
 7    1  0.5992960E-013  0.5052885E+02  0.7816164E-02  0.1300439E+00
        -11   -1    0    0    0    0  0.00000000000E+00  0.00000000000E+00  0.45593999997E+02  0.45594000000E+02  0.51100000000E-03 0.  1.
         11   -1    0    0    0    0 -0.00000000000E+00 -0.00000000000E+00 -0.45593999997E+02  0.45594000000E+02  0.51100000000E-03 0. -1.
    9900012    2    1    2    0    0  0.36609736218E+02 -0.15501242559E+02  0.85208456962E+01  0.50528854433E+02  0.29999983535E+02 0.  0.
        -12    1    1    2    0    0 -0.36609736218E+02  0.15501242559E+02 -0.85208456962E+01  0.40659145567E+02  0.00000000000E+00 0.  1.
         11    1    3    3    0    0  0.11328279550E+02 -0.11122238421E+02 -0.76983027832E+01  0.17643638260E+02  0.51100000000E-03 0. -1.
        -11    1    3    3    0    0  0.39780625631E+00  0.26399999721E+01  0.82369199112E+00  0.27939789597E+01  0.51100000000E-03 0.  1.
         12    1    3    3    0    0  0.24883650412E+02 -0.70190041106E+01  0.15395456488E+02  0.30091237213E+02  0.00000000000E+00 0. -1.
</event>
<event>
 7    1  0.5992960E-013  0.5052885E+02  0.7816164E-02  0.1300439E+00
        -11   -1    0    0    0    0  0.00000000000E+00  0.00000000000E+00  0.45593999997E+02  0.45594000000E+02  0.51100000000E-03 0.  1.
         11   -1    0    0    0    0 -0.00000000000E+00 -0.00000000000E+00 -0.45593999997E+02  0.45594000000E+02  0.51100000000E-03 0. -1.
    9900012    2    1    2    0    0 -0.49819163880E+01  0.26896376614E+02 -0.30082081142E+02  0.50528853776E+02  0.29999981537E+02 0.  0.
        -12    1    1    2    0    0  0.49819163880E+01 -0.26896376614E+02  0.30082081142E+02  0.40659146224E+02  0.00000000000E+00 0.  1.
         11    1    3    3    0    0  0.99116511351E+01  0.71109704794E+01 -0.73452283641E+01  0.14239350735E+02  0.51100000000E-03 0.  1.
        -11    1    3    3    0    0 -0.41442742333E+01  0.13844853566E+02 -0.18100087104E+02  0.23161781724E+02  0.51100000000E-03 0. -1.
        -12    1    3    3    0    0 -0.10749293290E+02  0.59405525683E+01 -0.46367656736E+01  0.13127721316E+02  0.00000000000E+00 0.  1.
</event>
<event>
 7    1  0.5992960E-013  0.5052886E+02  0.7816164E-02  0.1300439E+00
        -11   -1    0    0    0    0  0.00000000000E+00  0.00000000000E+00  0.45593999997E+02  0.45594000000E+02  0.51100000000E-03 0.  1.
         11   -1    0    0    0    0 -0.00000000000E+00 -0.00000000000E+00 -0.45593999997E+02  0.45594000000E+02  0.51100000000E-03 0. -1.
    9900012    2    1    2    0    0  0.37043443899E+02 -0.11371023448E+02  0.12314579294E+02  0.50528858675E+02  0.29999996427E+02 0.  0.
        -12    1    1    2    0    0 -0.37043443899E+02  0.11371023448E+02 -0.12314579294E+02  0.40659141325E+02  0.00000000000E+00 0.  1.
         11    1    3    3    0    0  0.28626124325E+01 -0.23032877318E+01 -0.27414836980E+01  0.45842575671E+01  0.51100000000E-03 0. -1.
        -11    1    3    3    0    0  0.29387234040E+02 -0.13947208116E+02  0.37689109016E+01  0.32746584988E+02  0.51100000000E-03 0.  1.
        -12    1    3    3    0    0  0.47935974264E+01  0.48794723996E+01  0.11287152090E+02  0.13198016120E+02  0.00000000000E+00 0.  1.
</event>
<event>
 7    1  0.5992960E-013  0.5052886E+02  0.7816164E-02  0.1300439E+00
        -11   -1    0    0    0    0  0.00000000000E+00  0.00000000000E+00  0.45593999997E+02  0.45594000000E+02  0.51100000000E-03 0.  1.
         11   -1    0    0    0    0 -0.00000000000E+00 -0.00000000000E+00 -0.45593999997E+02  0.45594000000E+02  0.51100000000E-03 0. -1.
    9900012    2    1    2    0    0  0.17183704015E+01  0.18055464822E+02 -0.36389733724E+02  0.50528864159E+02  0.30000013099E+02 0.  0.
        -12    1    1    2    0    0 -0.17183704015E+01 -0.18055464822E+02  0.36389733724E+02  0.40659135841E+02  0.00000000000E+00 0.  1.
         11    1    3    3    0    0  0.28201729811E+00  0.65253105588E+01 -0.84794733204E+01  0.10703302280E+02  0.51100000000E-03 0. -1.
        -11    1    3    3    0    0  0.10630017034E+02  0.15159220932E+02 -0.17676594681E+02  0.25598071044E+02  0.51100000000E-03 0.  1.
        -12    1    3    3    0    0 -0.91936639302E+01 -0.36290666686E+01 -0.10233665722E+02  0.14227490835E+02  0.00000000000E+00 0.  1.
</event>
<event>
 7    1  0.5992960E-013  0.5052887E+02  0.7816164E-02  0.1300439E+00
        -11   -1    0    0    0    0  0.00000000000E+00  0.00000000000E+00  0.45593999997E+02  0.45594000000E+02  0.51100000000E-03 0.  1.
         11   -1    0    0    0    0 -0.00000000000E+00 -0.00000000000E+00 -0.45593999997E+02  0.45594000000E+02  0.51100000000E-03 0. -1.
    9900012    2    1    2    0    0 -0.32876176336E+01  0.25285871738E+02 -0.31669872522E+02  0.50528873536E+02  0.30000041600E+02 0.  0.
        -12    1    1    2    0    0  0.32876176336E+01 -0.25285871738E+02  0.31669872522E+02  0.40659126464E+02  0.00000000000E+00 0.  1.
         11    1    3    3    0    0 -0.24385691246E+01 -0.34834429194E+01 -0.23392519464E+01  0.48531529831E+01  0.51100000000E-03 0. -1.
        -11    1    3    3    0    0 -0.48030524230E+01  0.57368579482E+00 -0.53780804099E-01  0.48374911479E+01  0.51100000000E-03 0.  1.
         12    1    3    3    0    0  0.39540039141E+01  0.28195628863E+02 -0.29276839772E+02  0.40838229405E+02  0.00000000000E+00 0. -1.
</event>
<event>
 7    1  0.5992960E-013  0.5052885E+02  0.7816164E-02  0.1300439E+00
        -11   -1    0    0    0    0  0.00000000000E+00  0.00000000000E+00  0.45593999997E+02  0.45594000000E+02  0.51100000000E-03 0.  1.
         11   -1    0    0    0    0 -0.00000000000E+00 -0.00000000000E+00 -0.45593999997E+02  0.45594000000E+02  0.51100000000E-03 0. -1.
    9900012    2    1    2    0    0 -0.33884957665E+02 -0.21821495776E+02 -0.53663966675E+01  0.50528852849E+02  0.29999978721E+02 0.  0.
        -12    1    1    2    0    0  0.33884957665E+02  0.21821495776E+02  0.53663966675E+01  0.40659147151E+02  0.00000000000E+00 0.  1.
         11    1    3    3    0    0 -0.23152087425E+02 -0.16291378917E+02 -0.11110833837E+02  0.30411820202E+02  0.51100000000E-03 0. -1.
        -11    1    3    3    0    0 -0.81242132506E+01 -0.67080069316E+01 -0.29686041502E+01  0.10945903745E+02  0.51100000000E-03 0.  1.
        -12    1    3    3    0    0 -0.26086569886E+01  0.11778900725E+01  0.87130413197E+01  0.91711289024E+01  0.00000000000E+00 0.  1.
</event>
<event>
 7    1  0.5992960E-013  0.5052886E+02  0.7816164E-02  0.1300439E+00
        -11   -1    0    0    0    0  0.00000000000E+00  0.00000000000E+00  0.45593999997E+02  0.45594000000E+02  0.51100000000E-03 0. -1.
         11   -1    0    0    0    0 -0.00000000000E+00 -0.00000000000E+00 -0.45593999997E+02  0.45594000000E+02  0.51100000000E-03 0.  1.
    9900012    2    1    2    0    0 -0.39031183880E+01 -0.15768632770E+02  0.37273063901E+02  0.50528863202E+02  0.30000010189E+02 0.  0.
        -12    1    1    2    0    0  0.39031183880E+01  0.15768632770E+02 -0.37273063901E+02  0.40659136798E+02  0.00000000000E+00 0.  1.
         11    1    3    3    0    0 -0.56113319280E+01 -0.59146336453E+01  0.31963391843E+02  0.32986790622E+02  0.51100000000E-03 0. -1.
        -11    1    3    3    0    0  0.43014669718E+00  0.25260979433E+01  0.43634950651E+01  0.50602654520E+01  0.51100000000E-03 0.  1.
        -12    1    3    3    0    0  0.12780668429E+01 -0.12380097069E+02  0.94617699242E+00  0.12481807128E+02  0.00000000000E+00 0.  1.
</event>
<event>
 7    1  0.5992960E-013  0.5052889E+02  0.7816164E-02  0.1300439E+00
        -11   -1    0    0    0    0  0.00000000000E+00  0.00000000000E+00  0.45593999997E+02  0.45594000000E+02  0.51100000000E-03 0.  1.
         11   -1    0    0    0    0 -0.00000000000E+00 -0.00000000000E+00 -0.45593999997E+02  0.45594000000E+02  0.51100000000E-03 0. -1.
    9900012    2    1    2    0    0 -0.31561523631E+02  0.31855000105E+01 -0.25433946633E+02  0.50528894925E+02  0.30000106613E+02 0.  0.
        -12    1    1    2    0    0  0.31561523631E+02 -0.31855000105E+01  0.25433946633E+02  0.40659105075E+02  0.00000000000E+00 0.  1.
         11    1    3    3    0    0 -0.90330744093E+01 -0.95882615715E+01 -0.11359459936E+02  0.17394496933E+02  0.51100000000E-03 0. -1.
        -11    1    3    3    0    0 -0.84682616239E+00 -0.23037384785E+01 -0.43450712728E+01  0.49903877759E+01  0.51100000000E-03 0.  1.
        -12    1    3    3    0    0 -0.21681623059E+02  0.15077500060E+02 -0.97294154239E+01  0.28144010216E+02  0.00000000000E+00 0.  1.
</event>
<event>
 7    1  0.5992960E-013  0.5052886E+02  0.7816164E-02  0.1300439E+00
        -11   -1    0    0    0    0  0.00000000000E+00  0.00000000000E+00  0.45593999997E+02  0.45594000000E+02  0.51100000000E-03 0.  1.
         11   -1    0    0    0    0 -0.00000000000E+00 -0.00000000000E+00 -0.45593999997E+02  0.45594000000E+02  0.51100000000E-03 0. -1.
    9900012    2    1    2    0    0  0.30020264914E+02  0.19698132371E+02 -0.19077035448E+02  0.50528855815E+02  0.29999987734E+02 0.  0.
        -12    1    1    2    0    0 -0.30020264914E+02 -0.19698132371E+02  0.19077035448E+02  0.40659144185E+02  0.00000000000E+00 0.  1.
         11    1    3    3    0    0  0.18340981222E+02  0.99683724948E+01 -0.45903580097E+01  0.21373615260E+02  0.51100000000E-03 0. -1.
        -11    1    3    3    0    0  0.16383824903E+02  0.97939581876E+01 -0.15194629668E+02  0.24397297113E+02  0.51100000000E-03 0.  1.
        -12    1    3    3    0    0 -0.47045412107E+01 -0.64198311581E-01  0.70795222982E+00  0.47579434409E+01  0.00000000000E+00 0.  1.
</event>
<event>
 7    1  0.5992960E-013  0.5052887E+02  0.7816164E-02  0.1300439E+00
        -11   -1    0    0    0    0  0.00000000000E+00  0.00000000000E+00  0.45593999997E+02  0.45594000000E+02  0.51100000000E-03 0.  1.
         11   -1    0    0    0    0 -0.00000000000E+00 -0.00000000000E+00 -0.45593999997E+02  0.45594000000E+02  0.51100000000E-03 0. -1.
    9900012    2    1    2    0    0  0.12167670751E+02 -0.31986394846E+02 -0.21954116118E+02  0.50528869644E+02  0.30000029770E+02 0.  0.
        -12    1    1    2    0    0 -0.12167670751E+02  0.31986394846E+02  0.21954116118E+02  0.40659130356E+02  0.00000000000E+00 0.  1.
         11    1    3    3    0    0 -0.77232956411E+00 -0.59641104481E+01 -0.12588033000E+02  0.13950830852E+02  0.51100000000E-03 0. -1.
        -11    1    3    3    0    0  0.73010131222E+01 -0.18042247717E+02 -0.15637601774E+02  0.24967220205E+02  0.51100000000E-03 0.  1.
        -12    1    3    3    0    0  0.56389871930E+01 -0.79800366817E+01  0.62715186556E+01  0.11610818587E+02  0.00000000000E+00 0.  1.
</event>
<event>
 7    1  0.5992960E-013  0.5052886E+02  0.7816164E-02  0.1300439E+00
        -11   -1    0    0    0    0  0.00000000000E+00  0.00000000000E+00  0.45593999997E+02  0.45594000000E+02  0.51100000000E-03 0.  1.
         11   -1    0    0    0    0 -0.00000000000E+00 -0.00000000000E+00 -0.45593999997E+02  0.45594000000E+02  0.51100000000E-03 0. -1.
    9900012    2    1    2    0    0 -0.14360073863E+02 -0.70796141384E+01 -0.37374228224E+02  0.50528860892E+02  0.30000003168E+02 0.  0.
        -12    1    1    2    0    0  0.14360073863E+02  0.70796141384E+01  0.37374228224E+02  0.40659139108E+02  0.00000000000E+00 0.  1.
         11    1    3    3    0    0 -0.15519451882E+02 -0.24874471646E+01 -0.18980570429E+02  0.24643515053E+02  0.51100000000E-03 0. -1.
        -11    1    3    3    0    0  0.28204362396E+01 -0.28767180521E+01  0.25749001460E+01  0.47812632594E+01  0.51100000000E-03 0.  1.
         12    1    3    3    0    0 -0.16610582205E+01 -0.17154489217E+01 -0.20968557941E+02  0.21104082580E+02  0.00000000000E+00 0. -1.
</event>
<event>
 7    1  0.5992960E-013  0.5052886E+02  0.7816164E-02  0.1300439E+00
        -11   -1    0    0    0    0  0.00000000000E+00  0.00000000000E+00  0.45593999997E+02  0.45594000000E+02  0.51100000000E-03 0. -1.
         11   -1    0    0    0    0 -0.00000000000E+00 -0.00000000000E+00 -0.45593999997E+02  0.45594000000E+02  0.51100000000E-03 0.  1.
    9900012    2    1    2    0    0 -0.36421994575E+02  0.16802076394E+02  0.66553778195E+01  0.50528861865E+02  0.30000006126E+02 0.  0.
        -12    1    1    2    0    0  0.36421994575E+02 -0.16802076394E+02 -0.66553778195E+01  0.40659138135E+02  0.00000000000E+00 0.  1.
         11    1    3    3    0    0  0.17661073570E+01  0.15253160244E+01 -0.81347273629E+00  0.24713280488E+01  0.51100000000E-03 0. -1.
        -11    1    3    3    0    0 -0.46534216195E+01 -0.59168666585E+01  0.31233777544E+01  0.81497934134E+01  0.51100000000E-03 0.  1.
         12    1    3    3    0    0 -0.33534680312E+02  0.21193627028E+02  0.43454728014E+01  0.39907740403E+02  0.00000000000E+00 0. -1.
</event>
<event>
 7    1  0.5992960E-013  0.5052886E+02  0.7816164E-02  0.1300439E+00
        -11   -1    0    0    0    0  0.00000000000E+00  0.00000000000E+00  0.45593999997E+02  0.45594000000E+02  0.51100000000E-03 0. -1.
         11   -1    0    0    0    0 -0.00000000000E+00 -0.00000000000E+00 -0.45593999997E+02  0.45594000000E+02  0.51100000000E-03 0.  1.
    9900012    2    1    2    0    0 -0.62645127335E+01  0.24875435063E+02  0.31545746833E+02  0.50528861635E+02  0.30000005426E+02 0.  0.
        -12    1    1    2    0    0  0.62645127335E+01 -0.24875435063E+02 -0.31545746833E+02  0.40659138365E+02  0.00000000000E+00 0.  1.
         11    1    3    3    0    0  0.47466355479E+01  0.11677851295E+02  0.17320061327E+02  0.21421654570E+02  0.51100000000E-03 0. -1.
        -11    1    3    3    0    0 -0.53399556246E+00  0.11540701328E+02  0.14446000589E+02  0.18497563940E+02  0.51100000000E-03 0.  1.
        -12    1    3    3    0    0 -0.10477152719E+02  0.16568824394E+01 -0.22031508364E+00  0.10609643125E+02  0.00000000000E+00 0.  1.
</event>
<event>
 7    1  0.5992960E-013  0.5052887E+02  0.7816164E-02  0.1300439E+00
        -11   -1    0    0    0    0  0.00000000000E+00  0.00000000000E+00  0.45593999997E+02  0.45594000000E+02  0.51100000000E-03 0.  1.
         11   -1    0    0    0    0 -0.00000000000E+00 -0.00000000000E+00 -0.45593999997E+02  0.45594000000E+02  0.51100000000E-03 0. -1.
    9900012    2    1    2    0    0 -0.84892047730E+01  0.20910102716E+02 -0.33821083528E+02  0.50528872067E+02  0.30000037135E+02 0.  0.
        -12    1    1    2    0    0  0.84892047730E+01 -0.20910102716E+02  0.33821083528E+02  0.40659127933E+02  0.00000000000E+00 0.  1.
         11    1    3    3    0    0 -0.98825820126E+00 -0.12649784752E+01  0.13872777407E+01  0.21216419599E+01  0.51100000000E-03 0. -1.
        -11    1    3    3    0    0 -0.12512235602E+02  0.28621065079E+01 -0.10077289995E+02  0.16318684608E+02  0.51100000000E-03 0.  1.
         12    1    3    3    0    0  0.50112890308E+01  0.19312974684E+02 -0.25131071273E+02  0.32088545499E+02  0.00000000000E+00 0. -1.
</event>
<event>
 7    1  0.5992960E-013  0.5052886E+02  0.7816164E-02  0.1300439E+00
        -11   -1    0    0    0    0  0.00000000000E+00  0.00000000000E+00  0.45593999997E+02  0.45594000000E+02  0.51100000000E-03 0.  1.
         11   -1    0    0    0    0 -0.00000000000E+00 -0.00000000000E+00 -0.45593999997E+02  0.45594000000E+02  0.51100000000E-03 0. -1.
    9900012    2    1    2    0    0 -0.12988261862E+02 -0.28547806163E+01 -0.38422918147E+02  0.50528863788E+02  0.30000011970E+02 0.  0.
        -12    1    1    2    0    0  0.12988261862E+02  0.28547806163E+01  0.38422918147E+02  0.40659136212E+02  0.00000000000E+00 0.  1.
         11    1    3    3    0    0  0.20006265688E+01 -0.90394109627E+00 -0.19899601663E+02  0.20020333733E+02  0.51100000000E-03 0. -1.
        -11    1    3    3    0    0  0.11117097624E+01  0.54619970747E+01 -0.84446265141E+01  0.10118351045E+02  0.51100000000E-03 0.  1.
        -12    1    3    3    0    0 -0.16100598193E+02 -0.74128365948E+01 -0.10078689970E+02  0.20390179010E+02  0.00000000000E+00 0.  1.
</event>
<event>
 7    1  0.5992960E-013  0.5052886E+02  0.7816164E-02  0.1300439E+00
        -11   -1    0    0    0    0  0.00000000000E+00  0.00000000000E+00  0.45593999997E+02  0.45594000000E+02  0.51100000000E-03 0. -1.
         11   -1    0    0    0    0 -0.00000000000E+00 -0.00000000000E+00 -0.45593999997E+02  0.45594000000E+02  0.51100000000E-03 0.  1.
    9900012    2    1    2    0    0  0.36924253442E+01 -0.21402762069E+02  0.34372275688E+02  0.50528861236E+02  0.30000004212E+02 0.  0.
        -12    1    1    2    0    0 -0.36924253442E+01  0.21402762069E+02 -0.34372275688E+02  0.40659138764E+02  0.00000000000E+00 0.  1.
         11    1    3    3    0    0  0.28839445670E+01 -0.14085152763E+02  0.98962941089E+01  0.17454091267E+02  0.51100000000E-03 0. -1.
        -11    1    3    3    0    0 -0.54589014867E+00 -0.78640199584E+01 -0.64692991241E+00  0.79094452735E+01  0.51100000000E-03 0.  1.
         12    1    3    3    0    0  0.13543709260E+01  0.54641065198E+00  0.25122911491E+02  0.25165324695E+02  0.00000000000E+00 0. -1.
</event>
<event>
 7    1  0.5992960E-013  0.5052887E+02  0.7816164E-02  0.1300439E+00
        -11   -1    0    0    0    0  0.00000000000E+00  0.00000000000E+00  0.45593999997E+02  0.45594000000E+02  0.51100000000E-03 0.  1.
         11   -1    0    0    0    0 -0.00000000000E+00 -0.00000000000E+00 -0.45593999997E+02  0.45594000000E+02  0.51100000000E-03 0. -1.
    9900012    2    1    2    0    0 -0.12184950426E+02  0.19809927332E+02 -0.33350544412E+02  0.50528867565E+02  0.30000023452E+02 0.  0.
        -12    1    1    2    0    0  0.12184950426E+02 -0.19809927332E+02  0.33350544412E+02  0.40659132435E+02  0.00000000000E+00 0.  1.
         11    1    3    3    0    0  0.20249069437E+01  0.20960763968E+02 -0.27565245127E+02  0.34688566033E+02  0.51100000000E-03 0. -1.
        -11    1    3    3    0    0 -0.74897724193E+00  0.45077636939E+00  0.37397868547E+00  0.95080311444E+00  0.51100000000E-03 0.  1.
         12    1    3    3    0    0 -0.13460880128E+02 -0.16016130054E+01 -0.61592779698E+01  0.14889498418E+02  0.00000000000E+00 0. -1.
</event>
<event>
 7    1  0.5992960E-013  0.5052884E+02  0.7816164E-02  0.1300439E+00
        -11   -1    0    0    0    0  0.00000000000E+00  0.00000000000E+00  0.45593999997E+02  0.45594000000E+02  0.51100000000E-03 0.  1.
         11   -1    0    0    0    0 -0.00000000000E+00 -0.00000000000E+00 -0.45593999997E+02  0.45594000000E+02  0.51100000000E-03 0. -1.
    9900012    2    1    2    0    0 -0.20338109430E+02 -0.32487464591E+02 -0.13568102429E+02  0.50528838004E+02  0.29999933596E+02 0.  0.
        -12    1    1    2    0    0  0.20338109430E+02  0.32487464591E+02  0.13568102429E+02  0.40659161996E+02  0.00000000000E+00 0.  1.
         11    1    3    3    0    0 -0.11407720624E+02 -0.22780869490E+02 -0.11025931082E+02  0.27761038544E+02  0.51100000000E-03 0. -1.
        -11    1    3    3    0    0 -0.81134114813E+01 -0.88331463113E+01 -0.97528223715E+01  0.15458637200E+02  0.51100000000E-03 0.  1.
         12    1    3    3    0    0 -0.81697732417E+00 -0.87344878996E+00  0.72106510245E+01  0.73091622594E+01  0.00000000000E+00 0. -1.
</event>
<event>
 7    1  0.5992960E-013  0.5052885E+02  0.7816164E-02  0.1300439E+00
        -11   -1    0    0    0    0  0.00000000000E+00  0.00000000000E+00  0.45593999997E+02  0.45594000000E+02  0.51100000000E-03 0.  1.
         11   -1    0    0    0    0 -0.00000000000E+00 -0.00000000000E+00 -0.45593999997E+02  0.45594000000E+02  0.51100000000E-03 0. -1.
    9900012    2    1    2    0    0  0.15246192441E+02 -0.33719343621E+02  0.16844160702E+02  0.50528852592E+02  0.29999977940E+02 0.  0.
        -12    1    1    2    0    0 -0.15246192441E+02  0.33719343621E+02 -0.16844160702E+02  0.40659147408E+02  0.00000000000E+00 0.  1.
         11    1    3    3    0    0  0.12204776897E+02 -0.53190473753E+01  0.10657647241E+02  0.17053864344E+02  0.51100000000E-03 0. -1.
        -11    1    3    3    0    0  0.74258368002E+00  0.17407675300E+00  0.47088647596E+01  0.47702348813E+01  0.51100000000E-03 0.  1.
         12    1    3    3    0    0  0.22988318639E+01 -0.28574372998E+02  0.14776487012E+01  0.28704753367E+02  0.00000000000E+00 0. -1.
</event>
<event>
 7    1  0.5992960E-013  0.5052886E+02  0.7816164E-02  0.1300439E+00
        -11   -1    0    0    0    0  0.00000000000E+00  0.00000000000E+00  0.45593999997E+02  0.45594000000E+02  0.51100000000E-03 0. -1.
         11   -1    0    0    0    0 -0.00000000000E+00 -0.00000000000E+00 -0.45593999997E+02  0.45594000000E+02  0.51100000000E-03 0.  1.
    9900012    2    1    2    0    0 -0.28748248307E+02 -0.25683091601E+02 -0.12926057828E+02  0.50528856553E+02  0.29999989977E+02 0.  0.
        -12    1    1    2    0    0  0.28748248307E+02  0.25683091601E+02  0.12926057828E+02  0.40659143447E+02  0.00000000000E+00 0.  1.
         11    1    3    3    0    0 -0.21452059831E+02 -0.16850291252E+02 -0.87266880149E+01  0.28640500524E+02  0.51100000000E-03 0. -1.
        -11    1    3    3    0    0 -0.82304845545E+01  0.67585870700E+00 -0.81007686593E+01  0.11568064407E+02  0.51100000000E-03 0.  1.
         12    1    3    3    0    0  0.93429607877E+00 -0.95086590558E+01  0.39013988458E+01  0.10320291622E+02  0.00000000000E+00 0. -1.
</event>
<event>
 7    1  0.5992960E-013  0.5052886E+02  0.7816164E-02  0.1300439E+00
        -11   -1    0    0    0    0  0.00000000000E+00  0.00000000000E+00  0.45593999997E+02  0.45594000000E+02  0.51100000000E-03 0. -1.
         11   -1    0    0    0    0 -0.00000000000E+00 -0.00000000000E+00 -0.45593999997E+02  0.45594000000E+02  0.51100000000E-03 0.  1.
    9900012    2    1    2    0    0 -0.22102675173E+02 -0.33503248680E+02  0.64938372796E+01  0.50528857798E+02  0.29999993764E+02 0.  0.
        -12    1    1    2    0    0  0.22102675173E+02  0.33503248680E+02 -0.64938372796E+01  0.40659142202E+02  0.00000000000E+00 0.  1.
         11    1    3    3    0    0 -0.17834458739E+02 -0.31384685517E+02  0.11971403162E+02  0.38031314696E+02  0.51100000000E-03 0. -1.
        -11    1    3    3    0    0 -0.44781797618E+01 -0.54525123640E+01 -0.13435981241E+01  0.71825650877E+01  0.51100000000E-03 0.  1.
         12    1    3    3    0    0  0.20996332755E+00  0.33339492010E+01 -0.41339677586E+01  0.53149780152E+01  0.00000000000E+00 0. -1.
</event>
<event>
 7    1  0.5992960E-013  0.5052886E+02  0.7816164E-02  0.1300439E+00
        -11   -1    0    0    0    0  0.00000000000E+00  0.00000000000E+00  0.45593999997E+02  0.45594000000E+02  0.51100000000E-03 0. -1.
         11   -1    0    0    0    0 -0.00000000000E+00 -0.00000000000E+00 -0.45593999997E+02  0.45594000000E+02  0.51100000000E-03 0.  1.
    9900012    2    1    2    0    0  0.35155784415E+01  0.32691908797E+02  0.23917466631E+02  0.50528863233E+02  0.30000010283E+02 0.  0.
        -12    1    1    2    0    0 -0.35155784415E+01 -0.32691908797E+02 -0.23917466631E+02  0.40659136767E+02  0.00000000000E+00 0.  1.
         11    1    3    3    0    0 -0.61984383853E+01  0.94020121492E+01  0.44452982253E+01  0.12106987546E+02  0.51100000000E-03 0.  1.
        -11    1    3    3    0    0  0.87761642471E+01  0.21524724133E+02  0.49544939816E+01  0.23767242557E+02  0.51100000000E-03 0. -1.
         12    1    3    3    0    0  0.93785257975E+00  0.17651725145E+01  0.14517674424E+02  0.14654633130E+02  0.00000000000E+00 0. -1.
</event>
<event>
 7    1  0.5992960E-013  0.5052884E+02  0.7816164E-02  0.1300439E+00
        -11   -1    0    0    0    0  0.00000000000E+00  0.00000000000E+00  0.45593999997E+02  0.45594000000E+02  0.51100000000E-03 0.  1.
         11   -1    0    0    0    0 -0.00000000000E+00 -0.00000000000E+00 -0.45593999997E+02  0.45594000000E+02  0.51100000000E-03 0. -1.
    9900012    2    1    2    0    0  0.66576430134E+01  0.31471521181E+02 -0.24867373372E+02  0.50528842183E+02  0.29999946299E+02 0.  0.
        -12    1    1    2    0    0 -0.66576430134E+01 -0.31471521181E+02  0.24867373372E+02  0.40659157817E+02  0.00000000000E+00 0.  1.
         11    1    3    3    0    0 -0.15302689808E+01  0.14696084425E+02 -0.79379369817E+01  0.16772819213E+02  0.51100000000E-03 0. -1.
        -11    1    3    3    0    0 -0.16053142716E+01  0.12876723931E+02  0.93888060243E+00  0.13010324752E+02  0.51100000000E-03 0.  1.
        -12    1    3    3    0    0  0.97932262658E+01  0.38987128256E+01 -0.17868316993E+02  0.20745698218E+02  0.00000000000E+00 0.  1.
</event>
<event>
 7    1  0.5992960E-013  0.5052887E+02  0.7816164E-02  0.1300439E+00
        -11   -1    0    0    0    0  0.00000000000E+00  0.00000000000E+00  0.45593999997E+02  0.45594000000E+02  0.51100000000E-03 0.  1.
         11   -1    0    0    0    0 -0.00000000000E+00 -0.00000000000E+00 -0.45593999997E+02  0.45594000000E+02  0.51100000000E-03 0. -1.
    9900012    2    1    2    0    0  0.30445267225E+02  0.26765565927E+02 -0.31393247956E+01  0.50528866021E+02  0.30000018757E+02 0.  0.
        -12    1    1    2    0    0 -0.30445267225E+02 -0.26765565927E+02  0.31393247956E+01  0.40659133979E+02  0.00000000000E+00 0.  1.
         11    1    3    3    0    0  0.10757427401E+01 -0.99641008154E+00  0.47580554080E+01  0.49788700546E+01  0.51100000000E-03 0. -1.
        -11    1    3    3    0    0  0.16307420398E+02  0.23563684959E+02  0.18560839902E+01  0.28716271640E+02  0.51100000000E-03 0.  1.
         12    1    3    3    0    0  0.13062104087E+02  0.41982910498E+01 -0.97534641937E+01  0.16833724326E+02  0.00000000000E+00 0. -1.
</event>
<event>
 7    1  0.5992960E-013  0.5052885E+02  0.7816164E-02  0.1300439E+00
        -11   -1    0    0    0    0  0.00000000000E+00  0.00000000000E+00  0.45593999997E+02  0.45594000000E+02  0.51100000000E-03 0.  1.
         11   -1    0    0    0    0 -0.00000000000E+00 -0.00000000000E+00 -0.45593999997E+02  0.45594000000E+02  0.51100000000E-03 0. -1.
    9900012    2    1    2    0    0  0.31522259978E+02  0.24068454891E+02  0.89567325630E+01  0.50528850315E+02  0.29999971017E+02 0.  0.
        -12    1    1    2    0    0 -0.31522259978E+02 -0.24068454891E+02 -0.89567325630E+01  0.40659149685E+02  0.00000000000E+00 0.  1.
         11    1    3    3    0    0  0.48093512699E+01  0.12203613217E+01 -0.65659433377E+00  0.50050232540E+01  0.51100000000E-03 0. -1.
        -11    1    3    3    0    0  0.54856970364E+01  0.21912106871E+02  0.88564225345E+01  0.24262512646E+02  0.51100000000E-03 0.  1.
        -12    1    3    3    0    0  0.21227211671E+02  0.93598669742E+00  0.75690436227E+00  0.21261314415E+02  0.00000000000E+00 0.  1.
</event>
<event>
 7    1  0.5992960E-013  0.5052886E+02  0.7816164E-02  0.1300439E+00
        -11   -1    0    0    0    0  0.00000000000E+00  0.00000000000E+00  0.45593999997E+02  0.45594000000E+02  0.51100000000E-03 0.  1.
         11   -1    0    0    0    0 -0.00000000000E+00 -0.00000000000E+00 -0.45593999997E+02  0.45594000000E+02  0.51100000000E-03 0. -1.
    9900012    2    1    2    0    0  0.15272998816E+02  0.12145775279E+02 -0.35670455917E+02  0.50528858650E+02  0.29999996353E+02 0.  0.
        -12    1    1    2    0    0 -0.15272998816E+02 -0.12145775279E+02  0.35670455917E+02  0.40659141350E+02  0.00000000000E+00 0.  1.
         11    1    3    3    0    0  0.71206673673E+00  0.37769114311E+01 -0.18989680019E+02  0.19374727004E+02  0.51100000000E-03 0. -1.
        -11    1    3    3    0    0  0.76192466780E+00  0.10257933982E+02 -0.13315135651E+02  0.16825533467E+02  0.51100000000E-03 0.  1.
        -12    1    3    3    0    0  0.13799007411E+02 -0.18890701336E+01 -0.33656402469E+01  0.14328598179E+02  0.00000000000E+00 0.  1.
</event>
<event>
 7    1  0.5992960E-013  0.5052886E+02  0.7816164E-02  0.1300439E+00
        -11   -1    0    0    0    0  0.00000000000E+00  0.00000000000E+00  0.45593999997E+02  0.45594000000E+02  0.51100000000E-03 0.  1.
         11   -1    0    0    0    0 -0.00000000000E+00 -0.00000000000E+00 -0.45593999997E+02  0.45594000000E+02  0.51100000000E-03 0. -1.
    9900012    2    1    2    0    0 -0.21482073887E+02  0.34091149244E+02 -0.54295199778E+01  0.50528860284E+02  0.30000001319E+02 0.  0.
        -12    1    1    2    0    0  0.21482073887E+02 -0.34091149244E+02  0.54295199778E+01  0.40659139716E+02  0.00000000000E+00 0.  1.
         11    1    3    3    0    0  0.49733000425E+01  0.16672587781E+02  0.11786851533E+01  0.17438411498E+02  0.51100000000E-03 0.  1.
        -11    1    3    3    0    0 -0.18570621056E+01  0.15336057388E+01 -0.25861774301E+01  0.35339694661E+01  0.51100000000E-03 0. -1.
        -12    1    3    3    0    0 -0.24598311824E+02  0.15884955724E+02 -0.40220277009E+01  0.29556479320E+02  0.00000000000E+00 0.  1.
</event>
<event>
 7    1  0.5992960E-013  0.5052885E+02  0.7816164E-02  0.1300439E+00
        -11   -1    0    0    0    0  0.00000000000E+00  0.00000000000E+00  0.45593999997E+02  0.45594000000E+02  0.51100000000E-03 0. -1.
         11   -1    0    0    0    0 -0.00000000000E+00 -0.00000000000E+00 -0.45593999997E+02  0.45594000000E+02  0.51100000000E-03 0.  1.
    9900012    2    1    2    0    0 -0.19798048254E+02 -0.29939117676E+02  0.19101128093E+02  0.50528848800E+02  0.29999966413E+02 0.  0.
        -12    1    1    2    0    0  0.19798048254E+02  0.29939117676E+02 -0.19101128093E+02  0.40659151200E+02  0.00000000000E+00 0.  1.
         11    1    3    3    0    0 -0.86010185056E+01 -0.39701297565E+01 -0.17649789106E+01  0.96361091958E+01  0.51100000000E-03 0. -1.
        -11    1    3    3    0    0 -0.88472561194E+01 -0.11522254547E+02 -0.10206679251E+01  0.14562899916E+02  0.51100000000E-03 0.  1.
         12    1    3    3    0    0 -0.23497736290E+01 -0.14446733373E+02  0.21886774929E+02  0.26329839689E+02  0.00000000000E+00 0. -1.
</event>
<event>
 7    1  0.5992960E-013  0.5052885E+02  0.7816164E-02  0.1300439E+00
        -11   -1    0    0    0    0  0.00000000000E+00  0.00000000000E+00  0.45593999997E+02  0.45594000000E+02  0.51100000000E-03 0.  1.
         11   -1    0    0    0    0 -0.00000000000E+00 -0.00000000000E+00 -0.45593999997E+02  0.45594000000E+02  0.51100000000E-03 0. -1.
    9900012    2    1    2    0    0  0.55855838164E+01  0.37550961256E+02 -0.14556535822E+02  0.50528853760E+02  0.29999981488E+02 0.  0.
        -12    1    1    2    0    0 -0.55855838164E+01 -0.37550961256E+02  0.14556535822E+02  0.40659146240E+02  0.00000000000E+00 0.  1.
         11    1    3    3    0    0 -0.15482219882E+01  0.55993554065E+01  0.12820141458E+01  0.59492295992E+01  0.51100000000E-03 0. -1.
        -11    1    3    3    0    0 -0.62381551763E+01  0.93198944472E+01  0.37187749256E+01  0.11815426345E+02  0.51100000000E-03 0.  1.
         12    1    3    3    0    0  0.13371960981E+02  0.22631711403E+02 -0.19557324894E+02  0.32764197815E+02  0.00000000000E+00 0. -1.
</event>
<event>
 7    1  0.5992960E-013  0.5052886E+02  0.7816164E-02  0.1300439E+00
        -11   -1    0    0    0    0  0.00000000000E+00  0.00000000000E+00  0.45593999997E+02  0.45594000000E+02  0.51100000000E-03 0.  1.
         11   -1    0    0    0    0 -0.00000000000E+00 -0.00000000000E+00 -0.45593999997E+02  0.45594000000E+02  0.51100000000E-03 0. -1.
    9900012    2    1    2    0    0 -0.16519350012E+02  0.37150749429E+02 -0.31416351148E+00  0.50528858264E+02  0.29999995181E+02 0.  0.
        -12    1    1    2    0    0  0.16519350012E+02 -0.37150749429E+02  0.31416351148E+00  0.40659141736E+02  0.00000000000E+00 0.  1.
         11    1    3    3    0    0 -0.14176283953E+02  0.13999516096E+02 -0.81707892360E+01  0.21534049193E+02  0.51100000000E-03 0. -1.
        -11    1    3    3    0    0 -0.85202646101E+01  0.86261218370E+01  0.32664384984E+01  0.12556851026E+02  0.51100000000E-03 0.  1.
        -12    1    3    3    0    0  0.61771985516E+01  0.14525111496E+02  0.45901872261E+01  0.16437958045E+02  0.00000000000E+00 0.  1.
</event>
<event>
 7    1  0.5992960E-013  0.5052886E+02  0.7816164E-02  0.1300439E+00
        -11   -1    0    0    0    0  0.00000000000E+00  0.00000000000E+00  0.45593999997E+02  0.45594000000E+02  0.51100000000E-03 0. -1.
         11   -1    0    0    0    0 -0.00000000000E+00 -0.00000000000E+00 -0.45593999997E+02  0.45594000000E+02  0.51100000000E-03 0.  1.
    9900012    2    1    2    0    0  0.29745441347E+02  0.43446104526E+01  0.27376977319E+02  0.50528858248E+02  0.29999995129E+02 0.  0.
        -12    1    1    2    0    0 -0.29745441347E+02 -0.43446104526E+01 -0.27376977319E+02  0.40659141752E+02  0.00000000000E+00 0.  1.
         11    1    3    3    0    0  0.54397086112E+01 -0.81899122487E+01  0.79314981467E+01  0.12632250612E+02  0.51100000000E-03 0.  1.
        -11    1    3    3    0    0  0.13680385039E+02 -0.28656786992E+00  0.20852911067E+01  0.13841368980E+02  0.51100000000E-03 0. -1.
        -12    1    3    3    0    0  0.10625347696E+02  0.12821090571E+02  0.17360188066E+02  0.24055238656E+02  0.00000000000E+00 0.  1.
</event>
<event>
 7    1  0.5992960E-013  0.5052885E+02  0.7816164E-02  0.1300439E+00
        -11   -1    0    0    0    0  0.00000000000E+00  0.00000000000E+00  0.45593999997E+02  0.45594000000E+02  0.51100000000E-03 0.  1.
         11   -1    0    0    0    0 -0.00000000000E+00 -0.00000000000E+00 -0.45593999997E+02  0.45594000000E+02  0.51100000000E-03 0. -1.
    9900012    2    1    2    0    0 -0.66304552487E+01 -0.22605804545E+02 -0.33138820717E+02  0.50528846363E+02  0.29999959006E+02 0.  0.
        -12    1    1    2    0    0  0.66304552487E+01  0.22605804545E+02  0.33138820717E+02  0.40659153637E+02  0.00000000000E+00 0.  1.
         11    1    3    3    0    0 -0.56526932648E+01 -0.10129541871E+02 -0.18977481834E+02  0.22241973310E+02  0.51100000000E-03 0. -1.
        -11    1    3    3    0    0  0.32468213719E+01  0.33925583916E+01 -0.10442150855E+02  0.11449446109E+02  0.51100000000E-03 0.  1.
        -12    1    3    3    0    0 -0.42245833558E+01 -0.15868821065E+02 -0.37191880276E+01  0.16837426945E+02  0.00000000000E+00 0.  1.
</event>
<event>
 7    1  0.5992960E-013  0.5052886E+02  0.7816164E-02  0.1300439E+00
        -11   -1    0    0    0    0  0.00000000000E+00  0.00000000000E+00  0.45593999997E+02  0.45594000000E+02  0.51100000000E-03 0. -1.
         11   -1    0    0    0    0 -0.00000000000E+00 -0.00000000000E+00 -0.45593999997E+02  0.45594000000E+02  0.51100000000E-03 0.  1.
    9900012    2    1    2    0    0 -0.39539703901E+02 -0.41739311242E+01  0.85062330892E+01  0.50528857277E+02  0.29999992180E+02 0.  0.
        -12    1    1    2    0    0  0.39539703901E+02  0.41739311242E+01 -0.85062330892E+01  0.40659142723E+02  0.00000000000E+00 0.  1.
         11    1    3    3    0    0  0.45785278282E+00 -0.21403068027E+01  0.16705819010E+01  0.27534317732E+01  0.51100000000E-03 0. -1.
        -11    1    3    3    0    0  0.35137688613E+01  0.91703392821E+00  0.10625224785E+01  0.37837120814E+01  0.51100000000E-03 0.  1.
         12    1    3    3    0    0 -0.43511325545E+02 -0.29506582497E+01  0.57731287097E+01  0.43991713423E+02  0.00000000000E+00 0. -1.
</event>
<event>
 7    1  0.5992960E-013  0.5052884E+02  0.7816164E-02  0.1300439E+00
        -11   -1    0    0    0    0  0.00000000000E+00  0.00000000000E+00  0.45593999997E+02  0.45594000000E+02  0.51100000000E-03 0.  1.
         11   -1    0    0    0    0 -0.00000000000E+00 -0.00000000000E+00 -0.45593999997E+02  0.45594000000E+02  0.51100000000E-03 0. -1.
    9900012    2    1    2    0    0 -0.31181435531E+02 -0.26088948237E+02  0.50226603611E+00  0.50528838510E+02  0.29999935135E+02 0.  0.
        -12    1    1    2    0    0  0.31181435531E+02  0.26088948237E+02 -0.50226603611E+00  0.40659161490E+02  0.00000000000E+00 0.  1.
         11    1    3    3    0    0 -0.68433660663E+01 -0.92445233052E+01 -0.24620623560E+01  0.11762424136E+02  0.51100000000E-03 0. -1.
        -11    1    3    3    0    0 -0.13670110711E+02 -0.85718463435E+01 -0.10855636080E+02  0.19447192896E+02  0.51100000000E-03 0.  1.
        -12    1    3    3    0    0 -0.10667958754E+02 -0.82725785883E+01  0.13819964472E+02  0.19319221478E+02  0.00000000000E+00 0.  1.
</event>
<event>
 7    1  0.5992960E-013  0.5052888E+02  0.7816164E-02  0.1300439E+00
        -11   -1    0    0    0    0  0.00000000000E+00  0.00000000000E+00  0.45593999997E+02  0.45594000000E+02  0.51100000000E-03 0. -1.
         11   -1    0    0    0    0 -0.00000000000E+00 -0.00000000000E+00 -0.45593999997E+02  0.45594000000E+02  0.51100000000E-03 0.  1.
    9900012    2    1    2    0    0 -0.88861285600E+01 -0.26896636437E+02 -0.29167993333E+02  0.50528878422E+02  0.30000056453E+02 0.  0.
        -12    1    1    2    0    0  0.88861285600E+01  0.26896636437E+02  0.29167993333E+02  0.40659121578E+02  0.00000000000E+00 0.  1.
         11    1    3    3    0    0  0.31033328138E+01  0.15895368838E+00 -0.43955010882E+01  0.53829704538E+01  0.51100000000E-03 0. -1.
        -11    1    3    3    0    0 -0.17596277020E+02 -0.11381424024E+02 -0.15719275682E+02  0.26196591496E+02  0.51100000000E-03 0.  1.
         12    1    3    3    0    0  0.56068156462E+01 -0.15674166101E+02 -0.90532165624E+01  0.18949316473E+02  0.00000000000E+00 0. -1.
</event>
<event>
 7    1  0.5992960E-013  0.5052887E+02  0.7816164E-02  0.1300439E+00
        -11   -1    0    0    0    0  0.00000000000E+00  0.00000000000E+00  0.45593999997E+02  0.45594000000E+02  0.51100000000E-03 0.  1.
         11   -1    0    0    0    0 -0.00000000000E+00 -0.00000000000E+00 -0.45593999997E+02  0.45594000000E+02  0.51100000000E-03 0. -1.
    9900012    2    1    2    0    0 -0.27128650581E+02 -0.15276600812E+02 -0.26150085429E+02  0.50528865938E+02  0.30000018506E+02 0.  0.
        -12    1    1    2    0    0  0.27128650581E+02  0.15276600812E+02  0.26150085429E+02  0.40659134062E+02  0.00000000000E+00 0.  1.
         11    1    3    3    0    0 -0.35050197011E+01 -0.48460258474E+01 -0.85877101205E+00  0.60420706327E+01  0.51100000000E-03 0. -1.
        -11    1    3    3    0    0 -0.16876759732E+02 -0.12602991365E+02 -0.32233341428E+01  0.21308455920E+02  0.51100000000E-03 0.  1.
         12    1    3    3    0    0 -0.67468711478E+01  0.21724164013E+01 -0.22067980274E+02  0.23178339386E+02  0.00000000000E+00 0. -1.
</event>
<event>
 7    1  0.5992960E-013  0.5052885E+02  0.7816164E-02  0.1300439E+00
        -11   -1    0    0    0    0  0.00000000000E+00  0.00000000000E+00  0.45593999997E+02  0.45594000000E+02  0.51100000000E-03 0.  1.
         11   -1    0    0    0    0 -0.00000000000E+00 -0.00000000000E+00 -0.45593999997E+02  0.45594000000E+02  0.51100000000E-03 0. -1.
    9900012    2    1    2    0    0 -0.64578712565E+01  0.40140163435E+02  0.47919703514E+00  0.50528850334E+02  0.29999971075E+02 0.  0.
        -12    1    1    2    0    0  0.64578712565E+01 -0.40140163435E+02 -0.47919703514E+00  0.40659149666E+02  0.00000000000E+00 0.  1.
         11    1    3    3    0    0  0.54910773804E+01  0.11251375101E+02  0.43278282326E+01  0.13246715439E+02  0.51100000000E-03 0. -1.
        -11    1    3    3    0    0 -0.14460842479E+02  0.25008982063E+02  0.29738008607E+01  0.29041498598E+02  0.51100000000E-03 0.  1.
         12    1    3    3    0    0  0.25118938421E+01  0.38798062716E+01 -0.68224320582E+01  0.82406362963E+01  0.00000000000E+00 0. -1.
</event>
<event>
 7    1  0.5992960E-013  0.5052888E+02  0.7816164E-02  0.1300439E+00
        -11   -1    0    0    0    0  0.00000000000E+00  0.00000000000E+00  0.45593999997E+02  0.45594000000E+02  0.51100000000E-03 0.  1.
         11   -1    0    0    0    0 -0.00000000000E+00 -0.00000000000E+00 -0.45593999997E+02  0.45594000000E+02  0.51100000000E-03 0. -1.
    9900012    2    1    2    0    0 -0.16563246838E+02 -0.31545136445E+02  0.19588961793E+02  0.50528877982E+02  0.30000055114E+02 0.  0.
        -12    1    1    2    0    0  0.16563246838E+02  0.31545136445E+02 -0.19588961793E+02  0.40659122018E+02  0.00000000000E+00 0.  1.
         11    1    3    3    0    0 -0.98571620982E+01 -0.13613973324E+02  0.53313248251E+01  0.17633120511E+02  0.51100000000E-03 0. -1.
        -11    1    3    3    0    0  0.39898251884E+01 -0.17078182731E+02  0.38668507566E+01  0.17959275194E+02  0.51100000000E-03 0.  1.
        -12    1    3    3    0    0 -0.10695909928E+02 -0.85298038932E+00  0.10390786212E+02  0.14936482277E+02  0.00000000000E+00 0.  1.
</event>
<event>
 7    1  0.5992960E-013  0.5052885E+02  0.7816164E-02  0.1300439E+00
        -11   -1    0    0    0    0  0.00000000000E+00  0.00000000000E+00  0.45593999997E+02  0.45594000000E+02  0.51100000000E-03 0.  1.
         11   -1    0    0    0    0 -0.00000000000E+00 -0.00000000000E+00 -0.45593999997E+02  0.45594000000E+02  0.51100000000E-03 0. -1.
    9900012    2    1    2    0    0  0.27594828528E+02  0.12375435732E+02 -0.27176097287E+02  0.50528853000E+02  0.29999979178E+02 0.  0.
        -12    1    1    2    0    0 -0.27594828528E+02 -0.12375435732E+02  0.27176097287E+02  0.40659147000E+02  0.00000000000E+00 0.  1.
         11    1    3    3    0    0  0.84395921202E+01  0.14163800542E+02 -0.51456462635E+01  0.17271874151E+02  0.51100000000E-03 0. -1.
        -11    1    3    3    0    0  0.20086125414E+02  0.24425039701E+01 -0.15817809427E+02  0.25683094734E+02  0.51100000000E-03 0.  1.
        -12    1    3    3    0    0 -0.93088900655E+00 -0.42308687804E+01 -0.62126415962E+01  0.75738841147E+01  0.00000000000E+00 0.  1.
</event>
<event>
 7    1  0.5992960E-013  0.5052886E+02  0.7816164E-02  0.1300439E+00
        -11   -1    0    0    0    0  0.00000000000E+00  0.00000000000E+00  0.45593999997E+02  0.45594000000E+02  0.51100000000E-03 0.  1.
         11   -1    0    0    0    0 -0.00000000000E+00 -0.00000000000E+00 -0.45593999997E+02  0.45594000000E+02  0.51100000000E-03 0. -1.
    9900012    2    1    2    0    0  0.11575767303E+02  0.15797419820E+02 -0.35631566751E+02  0.50528863133E+02  0.30000009979E+02 0.  0.
        -12    1    1    2    0    0 -0.11575767303E+02 -0.15797419820E+02  0.35631566751E+02  0.40659136867E+02  0.00000000000E+00 0.  1.
         11    1    3    3    0    0  0.89376593893E+01  0.51506664180E+01 -0.29626708977E+02  0.31371212999E+02  0.51100000000E-03 0. -1.
        -11    1    3    3    0    0 -0.14246606535E+01 -0.34459190349E+00 -0.72286340356E+01  0.73757407655E+01  0.51100000000E-03 0.  1.
         12    1    3    3    0    0  0.40627685669E+01  0.10991345305E+02  0.12237762616E+01  0.11781909369E+02  0.00000000000E+00 0. -1.
</event>
<event>
 7    1  0.5992960E-013  0.5052886E+02  0.7816164E-02  0.1300439E+00
        -11   -1    0    0    0    0  0.00000000000E+00  0.00000000000E+00  0.45593999997E+02  0.45594000000E+02  0.51100000000E-03 0.  1.
         11   -1    0    0    0    0 -0.00000000000E+00 -0.00000000000E+00 -0.45593999997E+02  0.45594000000E+02  0.51100000000E-03 0. -1.
    9900012    2    1    2    0    0 -0.18230855704E+02 -0.24516847522E+02 -0.26827704746E+02  0.50528860141E+02  0.30000000886E+02 0.  0.
        -12    1    1    2    0    0  0.18230855704E+02  0.24516847522E+02  0.26827704746E+02  0.40659139859E+02  0.00000000000E+00 0.  1.
         11    1    3    3    0    0 -0.76413542533E+01 -0.14389975050E+02 -0.74376250574E+00  0.16309961977E+02  0.51100000000E-03 0. -1.
        -11    1    3    3    0    0 -0.12218433760E+01 -0.74118542208E+01 -0.13510357412E+01  0.76324165283E+01  0.51100000000E-03 0.  1.
        -12    1    3    3    0    0 -0.93676580744E+01 -0.27150182515E+01 -0.24732906499E+02  0.26586481636E+02  0.00000000000E+00 0.  1.
</event>
<event>
 7    1  0.5992960E-013  0.5052888E+02  0.7816164E-02  0.1300439E+00
        -11   -1    0    0    0    0  0.00000000000E+00  0.00000000000E+00  0.45593999997E+02  0.45594000000E+02  0.51100000000E-03 0.  1.
         11   -1    0    0    0    0 -0.00000000000E+00 -0.00000000000E+00 -0.45593999997E+02  0.45594000000E+02  0.51100000000E-03 0. -1.
    9900012    2    1    2    0    0 -0.33743031569E+02 -0.18126886160E+02 -0.13637744567E+02  0.50528877307E+02  0.30000053062E+02 0.  0.
        -12    1    1    2    0    0  0.33743031569E+02  0.18126886160E+02  0.13637744567E+02  0.40659122693E+02  0.00000000000E+00 0.  1.
         11    1    3    3    0    0 -0.17823124371E+02 -0.84846714825E+01 -0.12084479692E+02  0.23144935995E+02  0.51100000000E-03 0. -1.
        -11    1    3    3    0    0 -0.56720123068E+01 -0.24200149209E+01 -0.10364416283E+02  0.12060237185E+02  0.51100000000E-03 0.  1.
        -12    1    3    3    0    0 -0.10247894891E+02 -0.72221997562E+01  0.88111514082E+01  0.15323704126E+02  0.00000000000E+00 0.  1.
</event>
<event>
 7    1  0.5992960E-013  0.5052886E+02  0.7816164E-02  0.1300439E+00
        -11   -1    0    0    0    0  0.00000000000E+00  0.00000000000E+00  0.45593999997E+02  0.45594000000E+02  0.51100000000E-03 0.  1.
         11   -1    0    0    0    0 -0.00000000000E+00 -0.00000000000E+00 -0.45593999997E+02  0.45594000000E+02  0.51100000000E-03 0. -1.
    9900012    2    1    2    0    0  0.12032024192E+02 -0.37409322506E+02  0.10437380069E+02  0.50528856880E+02  0.29999990974E+02 0.  0.
        -12    1    1    2    0    0 -0.12032024192E+02  0.37409322506E+02 -0.10437380069E+02  0.40659143120E+02  0.00000000000E+00 0.  1.
         11    1    3    3    0    0 -0.25988531497E+01 -0.48950328058E+00  0.97645965207E+00  0.28190645379E+01  0.51100000000E-03 0. -1.
        -11    1    3    3    0    0 -0.66704917173E+01 -0.47893542401E+01  0.15881524334E+01  0.83639465684E+01  0.51100000000E-03 0.  1.
         12    1    3    3    0    0  0.21301369059E+02 -0.32130464985E+02  0.78727679833E+01  0.39345845774E+02  0.00000000000E+00 0. -1.
</event>
<event>
 7    1  0.5992960E-013  0.5052886E+02  0.7816164E-02  0.1300439E+00
        -11   -1    0    0    0    0  0.00000000000E+00  0.00000000000E+00  0.45593999997E+02  0.45594000000E+02  0.51100000000E-03 0.  1.
         11   -1    0    0    0    0 -0.00000000000E+00 -0.00000000000E+00 -0.45593999997E+02  0.45594000000E+02  0.51100000000E-03 0. -1.
    9900012    2    1    2    0    0 -0.96317323758E+01  0.37097658408E+02 -0.13570526984E+02  0.50528859201E+02  0.29999998027E+02 0.  0.
        -12    1    1    2    0    0  0.96317323758E+01 -0.37097658408E+02  0.13570526984E+02  0.40659140799E+02  0.00000000000E+00 0.  1.
         11    1    3    3    0    0 -0.80333505838E+00  0.64671266406E+01 -0.94417387189E+01  0.11472380071E+02  0.51100000000E-03 0. -1.
        -11    1    3    3    0    0  0.58608305111E+01  0.25803212713E+01 -0.36879445595E+01  0.73897447505E+01  0.51100000000E-03 0.  1.
        -12    1    3    3    0    0 -0.14689227829E+02  0.28050210496E+02 -0.44084370604E+00  0.31666734379E+02  0.00000000000E+00 0.  1.
</event>
<event>
 7    1  0.5992960E-013  0.5052886E+02  0.7816164E-02  0.1300439E+00
        -11   -1    0    0    0    0  0.00000000000E+00  0.00000000000E+00  0.45593999997E+02  0.45594000000E+02  0.51100000000E-03 0. -1.
         11   -1    0    0    0    0 -0.00000000000E+00 -0.00000000000E+00 -0.45593999997E+02  0.45594000000E+02  0.51100000000E-03 0.  1.
    9900012    2    1    2    0    0  0.26832075196E+02 -0.83701596400E+01  0.29379344917E+02  0.50528859091E+02  0.29999997694E+02 0.  0.
        -12    1    1    2    0    0 -0.26832075196E+02  0.83701596400E+01 -0.29379344917E+02  0.40659140909E+02  0.00000000000E+00 0.  1.
         11    1    3    3    0    0  0.14350963663E+02 -0.64723677601E+01  0.11621796307E+02  0.19568031382E+02  0.51100000000E-03 0. -1.
        -11    1    3    3    0    0 -0.16804921375E+01  0.69867622788E+01  0.10528174007E+02  0.12746817216E+02  0.51100000000E-03 0.  1.
         12    1    3    3    0    0  0.14161603670E+02 -0.88845541587E+01  0.72293746024E+01  0.18214010493E+02  0.00000000000E+00 0. -1.
</event>
<event>
 7    1  0.5992960E-013  0.5052886E+02  0.7816164E-02  0.1300439E+00
        -11   -1    0    0    0    0  0.00000000000E+00  0.00000000000E+00  0.45593999997E+02  0.45594000000E+02  0.51100000000E-03 0.  1.
         11   -1    0    0    0    0 -0.00000000000E+00 -0.00000000000E+00 -0.45593999997E+02  0.45594000000E+02  0.51100000000E-03 0. -1.
    9900012    2    1    2    0    0  0.13596132451E+02 -0.74564618003E+01 -0.37586057392E+02  0.50528863874E+02  0.30000012233E+02 0.  0.
        -12    1    1    2    0    0 -0.13596132451E+02  0.74564618003E+01  0.37586057392E+02  0.40659136126E+02  0.00000000000E+00 0.  1.
         11    1    3    3    0    0  0.84152817507E+01 -0.92875217237E+00 -0.17710297931E+02  0.19629931243E+02  0.51100000000E-03 0. -1.
        -11    1    3    3    0    0  0.11362844239E+02  0.33524739775E+01 -0.11789495334E+02  0.16713632503E+02  0.51100000000E-03 0.  1.
        -12    1    3    3    0    0 -0.61819935385E+01 -0.98801836054E+01 -0.80862641268E+01  0.14185300128E+02  0.00000000000E+00 0.  1.
</event>
<event>
 7    1  0.5992960E-013  0.5052885E+02  0.7816164E-02  0.1300439E+00
        -11   -1    0    0    0    0  0.00000000000E+00  0.00000000000E+00  0.45593999997E+02  0.45594000000E+02  0.51100000000E-03 0.  1.
         11   -1    0    0    0    0 -0.00000000000E+00 -0.00000000000E+00 -0.45593999997E+02  0.45594000000E+02  0.51100000000E-03 0. -1.
    9900012    2    1    2    0    0  0.30167859350E+02 -0.25968952514E+02  0.82873788270E+01  0.50528845062E+02  0.29999955051E+02 0.  0.
        -12    1    1    2    0    0 -0.30167859350E+02  0.25968952514E+02 -0.82873788270E+01  0.40659154938E+02  0.00000000000E+00 0.  1.
         11    1    3    3    0    0  0.45639200430E+01 -0.15262449560E+02 -0.47425615560E+01  0.16621179955E+02  0.51100000000E-03 0. -1.
        -11    1    3    3    0    0 -0.17659356069E+01 -0.97854750421E+00  0.19852814999E+01  0.28315060799E+01  0.51100000000E-03 0.  1.
        -12    1    3    3    0    0  0.27369874914E+02 -0.97279554499E+01  0.11044658883E+02  0.31076159027E+02  0.00000000000E+00 0.  1.
</event>
<event>
 7    1  0.5992960E-013  0.5052887E+02  0.7816164E-02  0.1300439E+00
        -11   -1    0    0    0    0  0.00000000000E+00  0.00000000000E+00  0.45593999997E+02  0.45594000000E+02  0.51100000000E-03 0. -1.
         11   -1    0    0    0    0 -0.00000000000E+00 -0.00000000000E+00 -0.45593999997E+02  0.45594000000E+02  0.51100000000E-03 0.  1.
    9900012    2    1    2    0    0  0.23163213978E+02  0.26221984683E+02 -0.20713239516E+02  0.50528865064E+02  0.30000015850E+02 0.  0.
        -12    1    1    2    0    0 -0.23163213978E+02 -0.26221984683E+02  0.20713239516E+02  0.40659134936E+02  0.00000000000E+00 0.  1.
         11    1    3    3    0    0  0.11445023037E+02 -0.24534611099E+01 -0.41358995449E+01  0.12414253463E+02  0.51100000000E-03 0. -1.
        -11    1    3    3    0    0  0.91906528416E+00 -0.10528051199E+01 -0.37171317503E+01  0.39711646059E+01  0.51100000000E-03 0.  1.
         12    1    3    3    0    0  0.10799125657E+02  0.29728250912E+02 -0.12860208220E+02  0.34143446995E+02  0.00000000000E+00 0. -1.
</event>
<event>
 7    1  0.5992960E-013  0.5052889E+02  0.7816164E-02  0.1300439E+00
        -11   -1    0    0    0    0  0.00000000000E+00  0.00000000000E+00  0.45593999997E+02  0.45594000000E+02  0.51100000000E-03 0.  1.
         11   -1    0    0    0    0 -0.00000000000E+00 -0.00000000000E+00 -0.45593999997E+02  0.45594000000E+02  0.51100000000E-03 0. -1.
    9900012    2    1    2    0    0 -0.34718147681E+02 -0.12469326956E+02 -0.17097637597E+02  0.50528891493E+02  0.30000096182E+02 0.  0.
        -12    1    1    2    0    0  0.34718147681E+02  0.12469326956E+02  0.17097637597E+02  0.40659108507E+02  0.00000000000E+00 0.  1.
         11    1    3    3    0    0 -0.16513067311E+02 -0.10076584278E+02 -0.61333292760E+01  0.20293759410E+02  0.51100000000E-03 0. -1.
        -11    1    3    3    0    0 -0.60745993465E+01  0.59165421718E+01  0.38943469224E+01  0.93312467926E+01  0.51100000000E-03 0.  1.
         12    1    3    3    0    0 -0.12130481024E+02 -0.83092848502E+01 -0.14858655244E+02  0.20903885291E+02  0.00000000000E+00 0. -1.
</event>
<event>
 7    1  0.5992960E-013  0.5052885E+02  0.7816164E-02  0.1300439E+00
        -11   -1    0    0    0    0  0.00000000000E+00  0.00000000000E+00  0.45593999997E+02  0.45594000000E+02  0.51100000000E-03 0. -1.
         11   -1    0    0    0    0 -0.00000000000E+00 -0.00000000000E+00 -0.45593999997E+02  0.45594000000E+02  0.51100000000E-03 0.  1.
    9900012    2    1    2    0    0 -0.28092914066E+02 -0.26615450008E+02  0.12472875061E+02  0.50528848360E+02  0.29999965075E+02 0.  0.
        -12    1    1    2    0    0  0.28092914066E+02  0.26615450008E+02 -0.12472875061E+02  0.40659151640E+02  0.00000000000E+00 0.  1.
         11    1    3    3    0    0 -0.84335802356E+01 -0.63715064305E+01  0.94283706190E+01  0.14163881621E+02  0.51100000000E-03 0. -1.
        -11    1    3    3    0    0 -0.24041197721E+02 -0.20838298912E+02  0.26721347317E+01  0.31927326755E+02  0.51100000000E-03 0.  1.
        -12    1    3    3    0    0  0.43818638914E+01  0.59435533516E+00  0.37236971000E+00  0.44376399841E+01  0.00000000000E+00 0.  1.
</event>
<event>
 7    1  0.5992960E-013  0.5052887E+02  0.7816164E-02  0.1300439E+00
        -11   -1    0    0    0    0  0.00000000000E+00  0.00000000000E+00  0.45593999997E+02  0.45594000000E+02  0.51100000000E-03 0.  1.
         11   -1    0    0    0    0 -0.00000000000E+00 -0.00000000000E+00 -0.45593999997E+02  0.45594000000E+02  0.51100000000E-03 0. -1.
    9900012    2    1    2    0    0 -0.33894033948E+01  0.35926728894E+02 -0.18733582677E+02  0.50528867886E+02  0.30000024425E+02 0.  0.
        -12    1    1    2    0    0  0.33894033948E+01 -0.35926728894E+02  0.18733582677E+02  0.40659132114E+02  0.00000000000E+00 0.  1.
         11    1    3    3    0    0 -0.45967234972E+01  0.92274567053E+01 -0.26980131068E+01  0.10656223493E+02  0.51100000000E-03 0. -1.
        -11    1    3    3    0    0  0.64608314374E+00 -0.25362062523E+01 -0.95754355795E+01  0.99266677381E+01  0.51100000000E-03 0.  1.
         12    1    3    3    0    0  0.56123695860E+00  0.29235478441E+02 -0.64601339902E+01  0.29945976654E+02  0.00000000000E+00 0. -1.
</event>
<event>
 7    1  0.5992960E-013  0.5052885E+02  0.7816164E-02  0.1300439E+00
        -11   -1    0    0    0    0  0.00000000000E+00  0.00000000000E+00  0.45593999997E+02  0.45594000000E+02  0.51100000000E-03 0. -1.
         11   -1    0    0    0    0 -0.00000000000E+00 -0.00000000000E+00 -0.45593999997E+02  0.45594000000E+02  0.51100000000E-03 0.  1.
    9900012    2    1    2    0    0 -0.37011314350E+02 -0.86848422232E+01  0.14418821692E+02  0.50528852279E+02  0.29999976988E+02 0.  0.
        -12    1    1    2    0    0  0.37011314350E+02  0.86848422232E+01 -0.14418821692E+02  0.40659147721E+02  0.00000000000E+00 0.  1.
         11    1    3    3    0    0 -0.12789447117E+02  0.99527045893E+00  0.57832087638E-01  0.12828244839E+02  0.51100000000E-03 0. -1.
        -11    1    3    3    0    0 -0.27091999271E+02 -0.13269272728E+02  0.11485428892E+02  0.32279484202E+02  0.51100000000E-03 0.  1.
        -12    1    3    3    0    0  0.28701320378E+01  0.35891600463E+01  0.28755607125E+01  0.54211232382E+01  0.00000000000E+00 0.  1.
</event>
<event>
 7    1  0.5992960E-013  0.5052884E+02  0.7816164E-02  0.1300439E+00
        -11   -1    0    0    0    0  0.00000000000E+00  0.00000000000E+00  0.45593999997E+02  0.45594000000E+02  0.51100000000E-03 0.  1.
         11   -1    0    0    0    0 -0.00000000000E+00 -0.00000000000E+00 -0.45593999997E+02  0.45594000000E+02  0.51100000000E-03 0. -1.
    9900012    2    1    2    0    0  0.26222463729E+00  0.36154828806E+02 -0.18599108218E+02  0.50528840709E+02  0.29999941818E+02 0.  0.
        -12    1    1    2    0    0 -0.26222463729E+00 -0.36154828806E+02  0.18599108218E+02  0.40659159291E+02  0.00000000000E+00 0.  1.
         11    1    3    3    0    0  0.23836033583E+01  0.11370068861E+02 -0.16227710983E+02  0.19957420547E+02  0.51100000000E-03 0. -1.
        -11    1    3    3    0    0 -0.14904709767E+01  0.10269699784E+01 -0.62357529813E+01  0.64931338023E+01  0.51100000000E-03 0.  1.
        -12    1    3    3    0    0 -0.63090774426E+00  0.23757789967E+02  0.38643557458E+01  0.24078286360E+02  0.00000000000E+00 0.  1.
</event>
<event>
 7    1  0.5992960E-013  0.5052884E+02  0.7816164E-02  0.1300439E+00
        -11   -1    0    0    0    0  0.00000000000E+00  0.00000000000E+00  0.45593999997E+02  0.45594000000E+02  0.51100000000E-03 0.  1.
         11   -1    0    0    0    0 -0.00000000000E+00 -0.00000000000E+00 -0.45593999997E+02  0.45594000000E+02  0.51100000000E-03 0. -1.
    9900012    2    1    2    0    0  0.25033825967E+02 -0.26359450198E+02 -0.18211365905E+02  0.50528844753E+02  0.29999954111E+02 0.  0.
        -12    1    1    2    0    0 -0.25033825967E+02  0.26359450198E+02  0.18211365905E+02  0.40659155247E+02  0.00000000000E+00 0.  1.
         11    1    3    3    0    0  0.11151917989E+02 -0.17950624446E+02 -0.14599300906E+02  0.25685205470E+02  0.51100000000E-03 0. -1.
        -11    1    3    3    0    0  0.15619545717E+02 -0.11096280927E+02 -0.67959346846E+01  0.20329347931E+02  0.51100000000E-03 0.  1.
        -12    1    3    3    0    0 -0.17376377394E+01  0.26874551750E+01  0.31838696858E+01  0.45142913516E+01  0.00000000000E+00 0.  1.
</event>
<event>
 7    1  0.5992960E-013  0.5052886E+02  0.7816164E-02  0.1300439E+00
        -11   -1    0    0    0    0  0.00000000000E+00  0.00000000000E+00  0.45593999997E+02  0.45594000000E+02  0.51100000000E-03 0.  1.
         11   -1    0    0    0    0 -0.00000000000E+00 -0.00000000000E+00 -0.45593999997E+02  0.45594000000E+02  0.51100000000E-03 0. -1.
    9900012    2    1    2    0    0 -0.24941081795E+02 -0.25701171473E+02 -0.19249878880E+02  0.50528860645E+02  0.30000002418E+02 0.  0.
        -12    1    1    2    0    0  0.24941081795E+02  0.25701171473E+02  0.19249878880E+02  0.40659139355E+02  0.00000000000E+00 0.  1.
         11    1    3    3    0    0 -0.21946230037E+01 -0.65020278194E+00  0.39428201837E+01  0.45590530868E+01  0.51100000000E-03 0. -1.
        -11    1    3    3    0    0 -0.68641678490E+00 -0.58832194480E+01  0.30765697371E+01  0.66744828028E+01  0.51100000000E-03 0.  1.
         12    1    3    3    0    0 -0.22060042006E+02 -0.19167749243E+02 -0.26269268801E+02  0.39295324756E+02  0.00000000000E+00 0. -1.
</event>
<event>
 7    1  0.5992960E-013  0.5052886E+02  0.7816164E-02  0.1300439E+00
        -11   -1    0    0    0    0  0.00000000000E+00  0.00000000000E+00  0.45593999997E+02  0.45594000000E+02  0.51100000000E-03 0.  1.
         11   -1    0    0    0    0 -0.00000000000E+00 -0.00000000000E+00 -0.45593999997E+02  0.45594000000E+02  0.51100000000E-03 0. -1.
    9900012    2    1    2    0    0  0.13835223397E+02  0.22299953480E+02 -0.31055831674E+02  0.50528855732E+02  0.29999987482E+02 0.  0.
        -12    1    1    2    0    0 -0.13835223397E+02 -0.22299953480E+02  0.31055831674E+02  0.40659144268E+02  0.00000000000E+00 0.  1.
         11    1    3    3    0    0  0.35652274659E+01  0.16342831571E+02 -0.16604734897E+02  0.23569391420E+02  0.51100000000E-03 0. -1.
        -11    1    3    3    0    0 -0.31661411275E+00  0.10361966331E+02 -0.30893370475E+01  0.10817328432E+02  0.51100000000E-03 0.  1.
         12    1    3    3    0    0  0.10586610044E+02 -0.44048444222E+01 -0.11361759729E+02  0.16142135880E+02  0.00000000000E+00 0. -1.
</event>
<event>
 7    1  0.5992960E-013  0.5052885E+02  0.7816164E-02  0.1300439E+00
        -11   -1    0    0    0    0  0.00000000000E+00  0.00000000000E+00  0.45593999997E+02  0.45594000000E+02  0.51100000000E-03 0.  1.
         11   -1    0    0    0    0 -0.00000000000E+00 -0.00000000000E+00 -0.45593999997E+02  0.45594000000E+02  0.51100000000E-03 0. -1.
    9900012    2    1    2    0    0  0.12761117010E+02  0.16628550719E+02 -0.34839795493E+02  0.50528853964E+02  0.29999982110E+02 0.  0.
        -12    1    1    2    0    0 -0.12761117010E+02 -0.16628550719E+02  0.34839795493E+02  0.40659146036E+02  0.00000000000E+00 0.  1.
         11    1    3    3    0    0 -0.17446076705E+01  0.52313118844E+00 -0.27652230025E+01  0.33111600201E+01  0.51100000000E-03 0. -1.
        -11    1    3    3    0    0  0.52912468876E+00 -0.35200940422E+00  0.46084274117E+01  0.46520411678E+01  0.51100000000E-03 0.  1.
         12    1    3    3    0    0  0.13976599992E+02  0.16457428935E+02 -0.36682999902E+02  0.42565652776E+02  0.00000000000E+00 0. -1.
</event>
<event>
 7    1  0.5992960E-013  0.5052886E+02  0.7816164E-02  0.1300439E+00
        -11   -1    0    0    0    0  0.00000000000E+00  0.00000000000E+00  0.45593999997E+02  0.45594000000E+02  0.51100000000E-03 0.  1.
         11   -1    0    0    0    0 -0.00000000000E+00 -0.00000000000E+00 -0.45593999997E+02  0.45594000000E+02  0.51100000000E-03 0. -1.
    9900012    2    1    2    0    0 -0.84908448591E+01 -0.33747519610E+02 -0.21027993702E+02  0.50528855328E+02  0.29999986256E+02 0.  0.
        -12    1    1    2    0    0  0.84908448591E+01  0.33747519610E+02  0.21027993702E+02  0.40659144672E+02  0.00000000000E+00 0.  1.
         11    1    3    3    0    0  0.22971810563E+01 -0.17207773267E+01  0.45225442207E+01  0.53564467609E+01  0.51100000000E-03 0. -1.
        -11    1    3    3    0    0  0.44787246832E+00  0.14142763536E+01  0.19859041720E+00  0.14967316951E+01  0.51100000000E-03 0.  1.
         12    1    3    3    0    0 -0.11235898384E+02 -0.33441018637E+02 -0.25749128340E+02  0.43675676872E+02  0.00000000000E+00 0. -1.
</event>
<event>
 7    1  0.5992960E-013  0.5052886E+02  0.7816164E-02  0.1300439E+00
        -11   -1    0    0    0    0  0.00000000000E+00  0.00000000000E+00  0.45593999997E+02  0.45594000000E+02  0.51100000000E-03 0.  1.
         11   -1    0    0    0    0 -0.00000000000E+00 -0.00000000000E+00 -0.45593999997E+02  0.45594000000E+02  0.51100000000E-03 0. -1.
    9900012    2    1    2    0    0  0.17516864756E+02 -0.11707623794E+02 -0.34774368698E+02  0.50528859280E+02  0.29999998267E+02 0.  0.
        -12    1    1    2    0    0 -0.17516864756E+02  0.11707623794E+02  0.34774368698E+02  0.40659140720E+02  0.00000000000E+00 0.  1.
         11    1    3    3    0    0  0.65032077148E+01 -0.19222530940E+02 -0.23611038774E+02  0.31133238806E+02  0.51100000000E-03 0. -1.
        -11    1    3    3    0    0  0.70605925015E+01 -0.86138720128E-01 -0.34130510772E+01  0.78427230136E+01  0.51100000000E-03 0.  1.
        -12    1    3    3    0    0  0.39530645392E+01  0.76010458664E+01 -0.77502788472E+01  0.11552897460E+02  0.00000000000E+00 0.  1.
</event>
<event>
 7    1  0.5992960E-013  0.5052887E+02  0.7816164E-02  0.1300439E+00
        -11   -1    0    0    0    0  0.00000000000E+00  0.00000000000E+00  0.45593999997E+02  0.45594000000E+02  0.51100000000E-03 0.  1.
         11   -1    0    0    0    0 -0.00000000000E+00 -0.00000000000E+00 -0.45593999997E+02  0.45594000000E+02  0.51100000000E-03 0. -1.
    9900012    2    1    2    0    0 -0.95465850612E+01 -0.39171855549E+02 -0.52529050532E+01  0.50528873534E+02  0.30000041594E+02 0.  0.
        -12    1    1    2    0    0  0.95465850612E+01  0.39171855549E+02  0.52529050532E+01  0.40659126466E+02  0.00000000000E+00 0.  1.
         11    1    3    3    0    0 -0.12671817156E+01 -0.13087954590E+01 -0.56791417998E+01  0.59641719373E+01  0.51100000000E-03 0. -1.
        -11    1    3    3    0    0 -0.75253064871E+01 -0.20801010414E+01 -0.35057408206E+01  0.85584623052E+01  0.51100000000E-03 0.  1.
        -12    1    3    3    0    0 -0.75409685850E+00 -0.35782959048E+02  0.39319775672E+01  0.36006239292E+02  0.00000000000E+00 0.  1.
</event>
<event>
 7    1  0.5992960E-013  0.5052886E+02  0.7816164E-02  0.1300439E+00
        -11   -1    0    0    0    0  0.00000000000E+00  0.00000000000E+00  0.45593999997E+02  0.45594000000E+02  0.51100000000E-03 0. -1.
         11   -1    0    0    0    0 -0.00000000000E+00 -0.00000000000E+00 -0.45593999997E+02  0.45594000000E+02  0.51100000000E-03 0.  1.
    9900012    2    1    2    0    0  0.35165597582E+02 -0.20224283988E+02  0.27431402335E+01  0.50528859152E+02  0.29999997879E+02 0.  0.
        -12    1    1    2    0    0 -0.35165597582E+02  0.20224283988E+02 -0.27431402335E+01  0.40659140848E+02  0.00000000000E+00 0.  1.
         11    1    3    3    0    0  0.14551934705E+02  0.21962594449E+01 -0.12411662549E+01  0.14768982807E+02  0.51100000000E-03 0. -1.
        -11    1    3    3    0    0 -0.67831047763E+00  0.12643313919E+01 -0.28460500385E+01  0.31872621567E+01  0.51100000000E-03 0.  1.
        -12    1    3    3    0    0  0.21291973355E+02 -0.23684874825E+02  0.68303565269E+01  0.32572614189E+02  0.00000000000E+00 0.  1.
</event>
<event>
 7    1  0.6497585E-013  0.5052886E+02  0.7816164E-02  0.1300439E+00
        -11   -1    0    0    0    0  0.00000000000E+00  0.00000000000E+00  0.45593999997E+02  0.45594000000E+02  0.51100000000E-03 0. -1.
         11   -1    0    0    0    0 -0.00000000000E+00 -0.00000000000E+00 -0.45593999997E+02  0.45594000000E+02  0.51100000000E-03 0.  1.
    9900012    2    1    2    0    0 -0.38667954082E+02  0.71887150664E+01  0.10309074106E+02  0.50528864420E+02  0.30000013890E+02 0.  0.
        -12    1    1    2    0    0  0.38667954082E+02 -0.71887150664E+01 -0.10309074106E+02  0.40659135580E+02  0.00000000000E+00 0.  1.
         11    1    3    3    0    0 -0.11258746119E+02  0.10613404325E+02  0.91395209557E+01  0.17970380049E+02  0.51100000000E-03 0. -1.
        -11    1    3    3    0    0 -0.36072240665E+00  0.22235910344E+01 -0.38631711061E+01  0.44719759614E+01  0.51100000000E-03 0.  1.
         12    1    3    3    0    0 -0.27048485556E+02 -0.56482802931E+01  0.50327242569E+01  0.28086508409E+02  0.00000000000E+00 0. -1.
</event>
<event>
 7    1  0.5992960E-013  0.5052887E+02  0.7816164E-02  0.1300439E+00
        -11   -1    0    0    0    0  0.00000000000E+00  0.00000000000E+00  0.45593999997E+02  0.45594000000E+02  0.51100000000E-03 0.  1.
         11   -1    0    0    0    0 -0.00000000000E+00 -0.00000000000E+00 -0.45593999997E+02  0.45594000000E+02  0.51100000000E-03 0. -1.
    9900012    2    1    2    0    0 -0.24714846468E+02 -0.65514973743E+01 -0.31613593003E+02  0.50528867983E+02  0.30000024722E+02 0.  0.
        -12    1    1    2    0    0  0.24714846468E+02  0.65514973743E+01  0.31613593003E+02  0.40659132017E+02  0.00000000000E+00 0.  1.
         11    1    3    3    0    0 -0.79888108745E+01  0.12569573659E+01 -0.18960312625E+02  0.20612969124E+02  0.51100000000E-03 0. -1.
        -11    1    3    3    0    0 -0.97566563676E+01  0.57692993359E+01 -0.82888253574E+01  0.14042143154E+02  0.51100000000E-03 0.  1.
        -12    1    3    3    0    0 -0.69693792263E+01 -0.13577754076E+02 -0.43644550203E+01  0.15873755705E+02  0.00000000000E+00 0.  1.
</event>
<event>
 7    1  0.5992960E-013  0.5052892E+02  0.7816164E-02  0.1300439E+00
        -11   -1    0    0    0    0  0.00000000000E+00  0.00000000000E+00  0.45593999997E+02  0.45594000000E+02  0.51100000000E-03 0.  1.
         11   -1    0    0    0    0 -0.00000000000E+00 -0.00000000000E+00 -0.45593999997E+02  0.45594000000E+02  0.51100000000E-03 0. -1.
    9900012    2    1    2    0    0  0.14549606110E+02 -0.81019076124E+01 -0.37092171540E+02  0.50528915721E+02  0.30000169824E+02 0.  0.
        -12    1    1    2    0    0 -0.14549606110E+02  0.81019076124E+01  0.37092171540E+02  0.40659084279E+02  0.00000000000E+00 0.  1.
         11    1    3    3    0    0 -0.18851700642E+01  0.80031418408E-01  0.28477523988E+00  0.19082369867E+01  0.51100000000E-03 0. -1.
        -11    1    3    3    0    0 -0.26046033090E+01 -0.11480771884E+02 -0.14159808304E+02  0.18414457714E+02  0.51100000000E-03 0.  1.
         12    1    3    3    0    0  0.19039379483E+02  0.32988328533E+01 -0.23217138476E+02  0.30206221020E+02  0.00000000000E+00 0. -1.
</event>
<event>
 7    1  0.5992960E-013  0.5052886E+02  0.7816164E-02  0.1300439E+00
        -11   -1    0    0    0    0  0.00000000000E+00  0.00000000000E+00  0.45593999997E+02  0.45594000000E+02  0.51100000000E-03 0. -1.
         11   -1    0    0    0    0 -0.00000000000E+00 -0.00000000000E+00 -0.45593999997E+02  0.45594000000E+02  0.51100000000E-03 0.  1.
    9900012    2    1    2    0    0  0.33342011713E+01  0.82221185468E+01  0.39679280339E+02  0.50528863031E+02  0.30000009669E+02 0.  0.
        -12    1    1    2    0    0 -0.33342011713E+01 -0.82221185468E+01 -0.39679280339E+02  0.40659136969E+02  0.00000000000E+00 0.  1.
         11    1    3    3    0    0 -0.12318522155E+01  0.55608728202E+01  0.26374288610E+02  0.26982288011E+02  0.51100000000E-03 0. -1.
        -11    1    3    3    0    0  0.55124440981E+01 -0.69853344815E+01  0.98057229748E+01  0.13241379878E+02  0.51100000000E-03 0.  1.
        -12    1    3    3    0    0 -0.94639071127E+00  0.96465802081E+01  0.34992687548E+01  0.10305195142E+02  0.00000000000E+00 0.  1.
</event>
<event>
 7    1  0.5992960E-013  0.5052887E+02  0.7816164E-02  0.1300439E+00
        -11   -1    0    0    0    0  0.00000000000E+00  0.00000000000E+00  0.45593999997E+02  0.45594000000E+02  0.51100000000E-03 0.  1.
         11   -1    0    0    0    0 -0.00000000000E+00 -0.00000000000E+00 -0.45593999997E+02  0.45594000000E+02  0.51100000000E-03 0. -1.
    9900012    2    1    2    0    0  0.67103912340E+01  0.79782611360E+01 -0.39299913378E+02  0.50528865813E+02  0.30000018126E+02 0.  0.
        -12    1    1    2    0    0 -0.67103912340E+01 -0.79782611360E+01  0.39299913378E+02  0.40659134187E+02  0.00000000000E+00 0.  1.
         11    1    3    3    0    0  0.20763543540E+01  0.30388150548E+01 -0.25589503790E+02  0.25852820906E+02  0.51100000000E-03 0. -1.
        -11    1    3    3    0    0 -0.53942169737E+01 -0.89825629656E+00 -0.11679071427E+02  0.12895935437E+02  0.51100000000E-03 0.  1.
        -12    1    3    3    0    0  0.10028253854E+02  0.58377023777E+01 -0.20313381616E+01  0.11780109470E+02  0.00000000000E+00 0.  1.
</event>
<event>
 7    1  0.5992960E-013  0.5052885E+02  0.7816164E-02  0.1300439E+00
        -11   -1    0    0    0    0  0.00000000000E+00  0.00000000000E+00  0.45593999997E+02  0.45594000000E+02  0.51100000000E-03 0.  1.
         11   -1    0    0    0    0 -0.00000000000E+00 -0.00000000000E+00 -0.45593999997E+02  0.45594000000E+02  0.51100000000E-03 0. -1.
    9900012    2    1    2    0    0  0.37268929573E+01  0.33896614680E+01 -0.40345838588E+02  0.50528853091E+02  0.29999979456E+02 0.  0.
        -12    1    1    2    0    0 -0.37268929573E+01 -0.33896614680E+01  0.40345838588E+02  0.40659146909E+02  0.00000000000E+00 0.  1.
         11    1    3    3    0    0  0.47254777889E+01 -0.11926051082E+01  0.14841054274E+01  0.50946066049E+01  0.51100000000E-03 0. -1.
        -11    1    3    3    0    0  0.53359728491E+01  0.52736629374E+01 -0.78365372059E+01  0.10848753047E+02  0.51100000000E-03 0.  1.
         12    1    3    3    0    0 -0.63345576807E+01 -0.69139636116E+00 -0.33993406810E+02  0.34585493440E+02  0.00000000000E+00 0. -1.
</event>
<event>
 7    1  0.5992960E-013  0.5052886E+02  0.7816164E-02  0.1300439E+00
        -11   -1    0    0    0    0  0.00000000000E+00  0.00000000000E+00  0.45593999997E+02  0.45594000000E+02  0.51100000000E-03 0.  1.
         11   -1    0    0    0    0 -0.00000000000E+00 -0.00000000000E+00 -0.45593999997E+02  0.45594000000E+02  0.51100000000E-03 0. -1.
    9900012    2    1    2    0    0  0.17250847678E+02  0.40773935168E+01 -0.36591646242E+02  0.50528862550E+02  0.30000008206E+02 0.  0.
        -12    1    1    2    0    0 -0.17250847678E+02 -0.40773935168E+01  0.36591646242E+02  0.40659137450E+02  0.00000000000E+00 0.  1.
         11    1    3    3    0    0  0.55340378023E+01 -0.10370959470E+01 -0.20974742033E+02  0.21717296011E+02  0.51100000000E-03 0. -1.
        -11    1    3    3    0    0 -0.66600776402E+00 -0.17314181502E+00  0.45286667737E+01  0.45806514207E+01  0.51100000000E-03 0.  1.
         12    1    3    3    0    0  0.12382817639E+02  0.52876312788E+01 -0.20145570983E+02  0.24230915118E+02  0.00000000000E+00 0. -1.
</event>
<event>
 7    1  0.5992960E-013  0.5052886E+02  0.7816164E-02  0.1300439E+00
        -11   -1    0    0    0    0  0.00000000000E+00  0.00000000000E+00  0.45593999997E+02  0.45594000000E+02  0.51100000000E-03 0.  1.
         11   -1    0    0    0    0 -0.00000000000E+00 -0.00000000000E+00 -0.45593999997E+02  0.45594000000E+02  0.51100000000E-03 0. -1.
    9900012    2    1    2    0    0  0.55833330211E+01  0.21353616648E+02 -0.34146966431E+02  0.50528857510E+02  0.29999992887E+02 0.  0.
        -12    1    1    2    0    0 -0.55833330211E+01 -0.21353616648E+02  0.34146966431E+02  0.40659142490E+02  0.00000000000E+00 0.  1.
         11    1    3    3    0    0  0.66242681778E+01  0.19283319975E+01 -0.16665576730E+01  0.70976621448E+01  0.51100000000E-03 0. -1.
        -11    1    3    3    0    0  0.52286285388E+01  0.83001389286E+01 -0.28366423602E+02  0.30014743891E+02  0.51100000000E-03 0.  1.
        -12    1    3    3    0    0 -0.62695636955E+01  0.11125145722E+02 -0.41139851560E+01  0.13416451473E+02  0.00000000000E+00 0.  1.
</event>
<event>
 7    1  0.5992960E-013  0.5052886E+02  0.7816164E-02  0.1300439E+00
        -11   -1    0    0    0    0  0.00000000000E+00  0.00000000000E+00  0.45593999997E+02  0.45594000000E+02  0.51100000000E-03 0.  1.
         11   -1    0    0    0    0 -0.00000000000E+00 -0.00000000000E+00 -0.45593999997E+02  0.45594000000E+02  0.51100000000E-03 0. -1.
    9900012    2    1    2    0    0  0.19873183313E+02 -0.33701001827E+02 -0.11066372920E+02  0.50528861436E+02  0.30000004821E+02 0.  0.
        -12    1    1    2    0    0 -0.19873183313E+02  0.33701001827E+02  0.11066372920E+02  0.40659138564E+02  0.00000000000E+00 0.  1.
         11    1    3    3    0    0  0.79725877521E+00 -0.35750819347E+00 -0.40580015174E+01  0.41510011129E+01  0.51100000000E-03 0. -1.
        -11    1    3    3    0    0  0.47636647016E+01 -0.84531884978E+01  0.92303044112E+01  0.13392065448E+02  0.51100000000E-03 0.  1.
         12    1    3    3    0    0  0.14312259836E+02 -0.24890305136E+02 -0.16238675814E+02  0.32985794876E+02  0.00000000000E+00 0. -1.
</event>
<event>
 7    1  0.5992960E-013  0.5052886E+02  0.7816164E-02  0.1300439E+00
        -11   -1    0    0    0    0  0.00000000000E+00  0.00000000000E+00  0.45593999997E+02  0.45594000000E+02  0.51100000000E-03 0.  1.
         11   -1    0    0    0    0 -0.00000000000E+00 -0.00000000000E+00 -0.45593999997E+02  0.45594000000E+02  0.51100000000E-03 0. -1.
    9900012    2    1    2    0    0  0.16289783528E+02  0.10868624839E+02 -0.35632593866E+02  0.50528858360E+02  0.29999995471E+02 0.  0.
        -12    1    1    2    0    0 -0.16289783528E+02 -0.10868624839E+02  0.35632593866E+02  0.40659141640E+02  0.00000000000E+00 0.  1.
         11    1    3    3    0    0  0.11168715846E+02  0.27104850391E+01 -0.30777133930E+02  0.32852989453E+02  0.51100000000E-03 0. -1.
        -11    1    3    3    0    0  0.89972121312E+01  0.88735823717E+01 -0.53119179198E+01  0.13707908757E+02  0.51100000000E-03 0.  1.
        -12    1    3    3    0    0 -0.38761444490E+01 -0.71544257129E+00  0.45645798399E+00  0.39679601502E+01  0.00000000000E+00 0.  1.
</event>
<event>
 7    1  0.5992960E-013  0.5052887E+02  0.7816164E-02  0.1300439E+00
        -11   -1    0    0    0    0  0.00000000000E+00  0.00000000000E+00  0.45593999997E+02  0.45594000000E+02  0.51100000000E-03 0. -1.
         11   -1    0    0    0    0 -0.00000000000E+00 -0.00000000000E+00 -0.45593999997E+02  0.45594000000E+02  0.51100000000E-03 0.  1.
    9900012    2    1    2    0    0  0.12318456156E+01  0.35747780195E+02  0.19332443348E+02  0.50528873124E+02  0.30000040348E+02 0.  0.
        -12    1    1    2    0    0 -0.12318456156E+01 -0.35747780195E+02 -0.19332443348E+02  0.40659126876E+02  0.00000000000E+00 0.  1.
         11    1    3    3    0    0  0.81562929004E+00  0.21310197773E+02  0.12455475697E+02  0.24696733698E+02  0.51100000000E-03 0. -1.
        -11    1    3    3    0    0 -0.46046198792E-01  0.26260768980E+01  0.12478220939E+02  0.12751642960E+02  0.51100000000E-03 0.  1.
        -12    1    3    3    0    0  0.46226252439E+00  0.11811505525E+02 -0.56012532879E+01  0.13080496466E+02  0.00000000000E+00 0.  1.
</event>
<event>
 7    1  0.5992960E-013  0.5052886E+02  0.7816164E-02  0.1300439E+00
        -11   -1    0    0    0    0  0.00000000000E+00  0.00000000000E+00  0.45593999997E+02  0.45594000000E+02  0.51100000000E-03 0.  1.
         11   -1    0    0    0    0 -0.00000000000E+00 -0.00000000000E+00 -0.45593999997E+02  0.45594000000E+02  0.51100000000E-03 0. -1.
    9900012    2    1    2    0    0 -0.19437713043E+02 -0.18301135114E+02 -0.30666098790E+02  0.50528857734E+02  0.29999993568E+02 0.  0.
        -12    1    1    2    0    0  0.19437713043E+02  0.18301135114E+02  0.30666098790E+02  0.40659142266E+02  0.00000000000E+00 0.  1.
         11    1    3    3    0    0 -0.86490925587E+01 -0.20714877578E+02 -0.21503943332E+02  0.31085889633E+02  0.51100000000E-03 0. -1.
        -11    1    3    3    0    0  0.25305495158E+01 -0.18766865464E+01 -0.18715734211E+01  0.36644809423E+01  0.51100000000E-03 0.  1.
         12    1    3    3    0    0 -0.13319170000E+02  0.42904290101E+01 -0.72905820369E+01  0.15778487159E+02  0.00000000000E+00 0. -1.
</event>
<event>
 7    1  0.5992960E-013  0.5052886E+02  0.7816164E-02  0.1300439E+00
        -11   -1    0    0    0    0  0.00000000000E+00  0.00000000000E+00  0.45593999997E+02  0.45594000000E+02  0.51100000000E-03 0.  1.
         11   -1    0    0    0    0 -0.00000000000E+00 -0.00000000000E+00 -0.45593999997E+02  0.45594000000E+02  0.51100000000E-03 0. -1.
    9900012    2    1    2    0    0  0.22887190540E+02 -0.25881588378E+02  0.21435613861E+02  0.50528860198E+02  0.30000001058E+02 0.  0.
        -12    1    1    2    0    0 -0.22887190540E+02  0.25881588378E+02 -0.21435613861E+02  0.40659139802E+02  0.00000000000E+00 0.  1.
         11    1    3    3    0    0  0.77198279057E+01 -0.13615520494E+02  0.10046828738E+02  0.18598841608E+02  0.51100000000E-03 0. -1.
        -11    1    3    3    0    0 -0.11329764026E+01 -0.10914548214E+02  0.11046214097E+02  0.15570158778E+02  0.51100000000E-03 0.  1.
         12    1    3    3    0    0  0.16300339037E+02 -0.13515196704E+01  0.34257102613E+00  0.16359859812E+02  0.00000000000E+00 0. -1.
</event>
<event>
 7    1  0.6340839E-013  0.5052887E+02  0.7816164E-02  0.1300439E+00
        -11   -1    0    0    0    0  0.00000000000E+00  0.00000000000E+00  0.45593999997E+02  0.45594000000E+02  0.51100000000E-03 0. -1.
         11   -1    0    0    0    0 -0.00000000000E+00 -0.00000000000E+00 -0.45593999997E+02  0.45594000000E+02  0.51100000000E-03 0.  1.
    9900012    2    1    2    0    0  0.49221610781E+01  0.19666251447E+02  0.35244514253E+02  0.50528869407E+02  0.30000029048E+02 0.  0.
        -12    1    1    2    0    0 -0.49221610781E+01 -0.19666251447E+02 -0.35244514253E+02  0.40659130593E+02  0.00000000000E+00 0.  1.
         11    1    3    3    0    0  0.34187901229E+01  0.18340518595E+01  0.18711284852E+02  0.19109266161E+02  0.51100000000E-03 0.  1.
        -11    1    3    3    0    0 -0.87279515384E+01  0.87747926028E+01  0.11388353870E+02  0.16818701716E+02  0.51100000000E-03 0. -1.
         12    1    3    3    0    0  0.10231322494E+02  0.90574069845E+01  0.51448755316E+01  0.14600901530E+02  0.00000000000E+00 0. -1.
</event>
<event>
 7    1  0.5992960E-013  0.5052886E+02  0.7816164E-02  0.1300439E+00
        -11   -1    0    0    0    0  0.00000000000E+00  0.00000000000E+00  0.45593999997E+02  0.45594000000E+02  0.51100000000E-03 0.  1.
         11   -1    0    0    0    0 -0.00000000000E+00 -0.00000000000E+00 -0.45593999997E+02  0.45594000000E+02  0.51100000000E-03 0. -1.
    9900012    2    1    2    0    0  0.32765993339E+02 -0.23829571133E+02  0.34215519750E+01  0.50528858373E+02  0.29999995511E+02 0.  0.
        -12    1    1    2    0    0 -0.32765993339E+02  0.23829571133E+02 -0.34215519750E+01  0.40659141627E+02  0.00000000000E+00 0.  1.
         11    1    3    3    0    0  0.31179331683E+02 -0.16410308302E+02  0.13454928640E+01  0.35259882218E+02  0.51100000000E-03 0. -1.
        -11    1    3    3    0    0  0.62341721946E+01 -0.81342760594E+01  0.33228950474E+00  0.10253865931E+02  0.51100000000E-03 0.  1.
        -12    1    3    3    0    0 -0.46475105381E+01  0.71501322762E+00  0.17437696063E+01  0.50151102238E+01  0.00000000000E+00 0.  1.
</event>
<event>
 7    1  0.5992960E-013  0.5052885E+02  0.7816164E-02  0.1300439E+00
        -11   -1    0    0    0    0  0.00000000000E+00  0.00000000000E+00  0.45593999997E+02  0.45594000000E+02  0.51100000000E-03 0.  1.
         11   -1    0    0    0    0 -0.00000000000E+00 -0.00000000000E+00 -0.45593999997E+02  0.45594000000E+02  0.51100000000E-03 0. -1.
    9900012    2    1    2    0    0 -0.33056593309E+02 -0.20003383954E+02 -0.12660662422E+02  0.50528854611E+02  0.29999984075E+02 0.  0.
        -12    1    1    2    0    0  0.33056593309E+02  0.20003383954E+02  0.12660662422E+02  0.40659145389E+02  0.00000000000E+00 0.  1.
         11    1    3    3    0    0 -0.22543905385E+02 -0.74844587802E+01 -0.41283352219E+01  0.24109913837E+02  0.51100000000E-03 0. -1.
        -11    1    3    3    0    0 -0.10982745365E+02 -0.13567764299E+02 -0.13026195886E+02  0.21780420183E+02  0.51100000000E-03 0.  1.
        -12    1    3    3    0    0  0.47005744115E+00  0.10488391249E+01  0.44938686859E+01  0.46385205911E+01  0.00000000000E+00 0.  1.
</event>
<event>
 7    1  0.5992960E-013  0.5052885E+02  0.7816164E-02  0.1300439E+00
        -11   -1    0    0    0    0  0.00000000000E+00  0.00000000000E+00  0.45593999997E+02  0.45594000000E+02  0.51100000000E-03 0.  1.
         11   -1    0    0    0    0 -0.00000000000E+00 -0.00000000000E+00 -0.45593999997E+02  0.45594000000E+02  0.51100000000E-03 0. -1.
    9900012    2    1    2    0    0 -0.15849334009E+02  0.14030050785E+02 -0.34714878709E+02  0.50528849525E+02  0.29999968616E+02 0.  0.
        -12    1    1    2    0    0  0.15849334009E+02 -0.14030050785E+02  0.34714878709E+02  0.40659150475E+02  0.00000000000E+00 0.  1.
         11    1    3    3    0    0 -0.12499468193E+02  0.16489053492E+02 -0.10321979087E+02  0.23122907315E+02  0.51100000000E-03 0. -1.
        -11    1    3    3    0    0 -0.20551506340E+01  0.35529068355E+01 -0.18279159597E+02  0.18734312556E+02  0.51100000000E-03 0.  1.
        -12    1    3    3    0    0 -0.12947151824E+01 -0.60119095430E+01 -0.61137400249E+01  0.86716296536E+01  0.00000000000E+00 0.  1.
</event>
<event>
 7    1  0.5992960E-013  0.5052886E+02  0.7816164E-02  0.1300439E+00
        -11   -1    0    0    0    0  0.00000000000E+00  0.00000000000E+00  0.45593999997E+02  0.45594000000E+02  0.51100000000E-03 0.  1.
         11   -1    0    0    0    0 -0.00000000000E+00 -0.00000000000E+00 -0.45593999997E+02  0.45594000000E+02  0.51100000000E-03 0. -1.
    9900012    2    1    2    0    0  0.29492092931E+02 -0.23356906996E+02 -0.15421975748E+02  0.50528856061E+02  0.29999988482E+02 0.  0.
        -12    1    1    2    0    0 -0.29492092931E+02  0.23356906996E+02  0.15421975748E+02  0.40659143939E+02  0.00000000000E+00 0.  1.
         11    1    3    3    0    0  0.20040660208E+02 -0.37169005963E+01 -0.12378872450E+02  0.23847010190E+02  0.51100000000E-03 0. -1.
        -11    1    3    3    0    0  0.60569235825E+01  0.25578860552E+00  0.86483975584E+00  0.61236997933E+01  0.51100000000E-03 0.  1.
        -12    1    3    3    0    0  0.33945091406E+01 -0.19895795005E+02 -0.39079430538E+01  0.20558146077E+02  0.00000000000E+00 0.  1.
</event>
<event>
 7    1  0.5992960E-013  0.5052886E+02  0.7816164E-02  0.1300439E+00
        -11   -1    0    0    0    0  0.00000000000E+00  0.00000000000E+00  0.45593999997E+02  0.45594000000E+02  0.51100000000E-03 0.  1.
         11   -1    0    0    0    0 -0.00000000000E+00 -0.00000000000E+00 -0.45593999997E+02  0.45594000000E+02  0.51100000000E-03 0. -1.
    9900012    2    1    2    0    0  0.78523158811E+01 -0.99304262338E+01 -0.38637984334E+02  0.50528855109E+02  0.29999985590E+02 0.  0.
        -12    1    1    2    0    0 -0.78523158811E+01  0.99304262338E+01  0.38637984334E+02  0.40659144891E+02  0.00000000000E+00 0.  1.
         11    1    3    3    0    0 -0.77772999744E-01  0.22433480341E+00 -0.71983328555E+01  0.72022476286E+01  0.51100000000E-03 0. -1.
        -11    1    3    3    0    0  0.17336846332E-01 -0.18367142040E+02 -0.20483869997E+02  0.27512563268E+02  0.51100000000E-03 0.  1.
         12    1    3    3    0    0  0.79127520345E+01  0.82123810026E+01 -0.10955781481E+02  0.15814044213E+02  0.00000000000E+00 0. -1.
</event>
<event>
 7    1  0.5992960E-013  0.5052887E+02  0.7816164E-02  0.1300439E+00
        -11   -1    0    0    0    0  0.00000000000E+00  0.00000000000E+00  0.45593999997E+02  0.45594000000E+02  0.51100000000E-03 0. -1.
         11   -1    0    0    0    0 -0.00000000000E+00 -0.00000000000E+00 -0.45593999997E+02  0.45594000000E+02  0.51100000000E-03 0.  1.
    9900012    2    1    2    0    0 -0.10725008297E+02  0.22544317809E+02  0.32091948900E+02  0.50528865078E+02  0.30000015891E+02 0.  0.
        -12    1    1    2    0    0  0.10725008297E+02 -0.22544317809E+02 -0.32091948900E+02  0.40659134922E+02  0.00000000000E+00 0.  1.
         11    1    3    3    0    0 -0.10660421498E+00  0.25855226821E+02  0.28393564521E+02  0.38401804969E+02  0.51100000000E-03 0. -1.
        -11    1    3    3    0    0 -0.27390734500E+01  0.34944202549E+00  0.22496532626E+00  0.27704228473E+01  0.51100000000E-03 0.  1.
         12    1    3    3    0    0 -0.78793306317E+01 -0.36603510377E+01  0.34734190524E+01  0.93566372611E+01  0.00000000000E+00 0. -1.
</event>
<event>
 7    1  0.5992960E-013  0.5052886E+02  0.7816164E-02  0.1300439E+00
        -11   -1    0    0    0    0  0.00000000000E+00  0.00000000000E+00  0.45593999997E+02  0.45594000000E+02  0.51100000000E-03 0.  1.
         11   -1    0    0    0    0 -0.00000000000E+00 -0.00000000000E+00 -0.45593999997E+02  0.45594000000E+02  0.51100000000E-03 0. -1.
    9900012    2    1    2    0    0 -0.29628662410E+01  0.11588306760E+02 -0.38859983544E+02  0.50528858950E+02  0.29999997263E+02 0.  0.
        -12    1    1    2    0    0  0.29628662410E+01 -0.11588306760E+02  0.38859983544E+02  0.40659141050E+02  0.00000000000E+00 0.  1.
         11    1    3    3    0    0  0.36901870967E+01 -0.26143058282E+00 -0.69296203958E+01  0.78552826715E+01  0.51100000000E-03 0. -1.
        -11    1    3    3    0    0  0.21644460289E+01 -0.89143074966E+00 -0.25964880107E+02  0.26070183632E+02  0.51100000000E-03 0.  1.
        -12    1    3    3    0    0 -0.88174993666E+01  0.12741168093E+02 -0.59654830415E+01  0.16603392646E+02  0.00000000000E+00 0.  1.
</event>
<event>
 7    1  0.5992960E-013  0.5052887E+02  0.7816164E-02  0.1300439E+00
        -11   -1    0    0    0    0  0.00000000000E+00  0.00000000000E+00  0.45593999997E+02  0.45594000000E+02  0.51100000000E-03 0.  1.
         11   -1    0    0    0    0 -0.00000000000E+00 -0.00000000000E+00 -0.45593999997E+02  0.45594000000E+02  0.51100000000E-03 0. -1.
    9900012    2    1    2    0    0  0.20950526188E+01 -0.14797658801E+02 -0.37812762251E+02  0.50528868916E+02  0.30000027556E+02 0.  0.
        -12    1    1    2    0    0 -0.20950526188E+01  0.14797658801E+02  0.37812762251E+02  0.40659131084E+02  0.00000000000E+00 0.  1.
         11    1    3    3    0    0 -0.33469963036E+01 -0.13910707449E+02 -0.43259724582E+01  0.14947381174E+02  0.51100000000E-03 0. -1.
        -11    1    3    3    0    0  0.35029411974E+01 -0.30402148959E+01 -0.45412268664E+01  0.64912437452E+01  0.51100000000E-03 0.  1.
        -12    1    3    3    0    0  0.19391077250E+01  0.21532635439E+01 -0.28945562926E+02  0.29090243997E+02  0.00000000000E+00 0.  1.
</event>
<event>
 7    1  0.5992960E-013  0.5052886E+02  0.7816164E-02  0.1300439E+00
        -11   -1    0    0    0    0  0.00000000000E+00  0.00000000000E+00  0.45593999997E+02  0.45594000000E+02  0.51100000000E-03 0.  1.
         11   -1    0    0    0    0 -0.00000000000E+00 -0.00000000000E+00 -0.45593999997E+02  0.45594000000E+02  0.51100000000E-03 0. -1.
    9900012    2    1    2    0    0  0.26936229854E+02 -0.14414544555E+02 -0.26829575976E+02  0.50528859324E+02  0.29999998400E+02 0.  0.
        -12    1    1    2    0    0 -0.26936229854E+02  0.14414544555E+02  0.26829575976E+02  0.40659140676E+02  0.00000000000E+00 0.  1.
         11    1    3    3    0    0  0.57798618446E+01 -0.83447212966E+01 -0.96030638312E+01  0.13973546853E+02  0.51100000000E-03 0. -1.
        -11    1    3    3    0    0  0.24991949361E+02 -0.91407931525E+01 -0.17116493604E+02  0.31640574992E+02  0.51100000000E-03 0.  1.
        -12    1    3    3    0    0 -0.38355813515E+01  0.30709698941E+01 -0.11001854173E+00  0.49147374777E+01  0.00000000000E+00 0.  1.
</event>
<event>
 7    1  0.5992960E-013  0.5052886E+02  0.7816164E-02  0.1300439E+00
        -11   -1    0    0    0    0  0.00000000000E+00  0.00000000000E+00  0.45593999997E+02  0.45594000000E+02  0.51100000000E-03 0.  1.
         11   -1    0    0    0    0 -0.00000000000E+00 -0.00000000000E+00 -0.45593999997E+02  0.45594000000E+02  0.51100000000E-03 0. -1.
    9900012    2    1    2    0    0 -0.38147873836E+02 -0.13915802114E+02  0.20628918414E+01  0.50528863887E+02  0.30000012272E+02 0.  0.
        -12    1    1    2    0    0  0.38147873836E+02  0.13915802114E+02 -0.20628918414E+01  0.40659136113E+02  0.00000000000E+00 0.  1.
         11    1    3    3    0    0 -0.23465258134E+02 -0.18132178274E+02 -0.51232446344E+01  0.30093884164E+02  0.51100000000E-03 0. -1.
        -11    1    3    3    0    0 -0.12497438662E+02 -0.10335861359E+01  0.19232171348E+01  0.12686726837E+02  0.51100000000E-03 0.  1.
        -12    1    3    3    0    0 -0.21851770396E+01  0.52499622957E+01  0.52629193409E+01  0.77482528863E+01  0.00000000000E+00 0.  1.
</event>
<event>
 7    1  0.5992960E-013  0.5052881E+02  0.7816164E-02  0.1300439E+00
        -11   -1    0    0    0    0  0.00000000000E+00  0.00000000000E+00  0.45593999997E+02  0.45594000000E+02  0.51100000000E-03 0.  1.
         11   -1    0    0    0    0 -0.00000000000E+00 -0.00000000000E+00 -0.45593999997E+02  0.45594000000E+02  0.51100000000E-03 0. -1.
    9900012    2    1    2    0    0  0.25342249138E+02  0.31691817870E+02 -0.25630371194E+01  0.50528805830E+02  0.29999835800E+02 0.  0.
        -12    1    1    2    0    0 -0.25342249138E+02 -0.31691817870E+02  0.25630371194E+01  0.40659194170E+02  0.00000000000E+00 0.  1.
         11    1    3    3    0    0 -0.21630493489E+01 -0.18674494636E+01 -0.36213206222E+01  0.46130373178E+01  0.51100000000E-03 0. -1.
        -11    1    3    3    0    0  0.31086391913E+00  0.12604930569E+01  0.33887244203E+01  0.36289023934E+01  0.51100000000E-03 0.  1.
         12    1    3    3    0    0  0.27194434568E+02  0.32298774277E+02 -0.23304409174E+01  0.42286866119E+02  0.00000000000E+00 0. -1.
</event>
<event>
 7    1  0.5992960E-013  0.5052886E+02  0.7816164E-02  0.1300439E+00
        -11   -1    0    0    0    0  0.00000000000E+00  0.00000000000E+00  0.45593999997E+02  0.45594000000E+02  0.51100000000E-03 0.  1.
         11   -1    0    0    0    0 -0.00000000000E+00 -0.00000000000E+00 -0.45593999997E+02  0.45594000000E+02  0.51100000000E-03 0. -1.
    9900012    2    1    2    0    0 -0.23498561542E+01  0.40584043601E+02 -0.76099152959E+00  0.50528861703E+02  0.30000005633E+02 0.  0.
        -12    1    1    2    0    0  0.23498561542E+01 -0.40584043601E+02  0.76099152959E+00  0.40659138297E+02  0.00000000000E+00 0.  1.
         11    1    3    3    0    0 -0.12982998048E+01 -0.35786755802E+00 -0.46228161117E+01  0.48149850089E+01  0.51100000000E-03 0. -1.
        -11    1    3    3    0    0  0.62363711436E+01  0.33335719645E+01 -0.82867189368E+00  0.71198121079E+01  0.51100000000E-03 0.  1.
        -12    1    3    3    0    0 -0.72879274930E+01  0.37608339194E+02  0.46904964758E+01  0.38594064586E+02  0.00000000000E+00 0.  1.
</event>
<event>
 7    1  0.5992960E-013  0.5052886E+02  0.7816164E-02  0.1300439E+00
        -11   -1    0    0    0    0  0.00000000000E+00  0.00000000000E+00  0.45593999997E+02  0.45594000000E+02  0.51100000000E-03 0.  1.
         11   -1    0    0    0    0 -0.00000000000E+00 -0.00000000000E+00 -0.45593999997E+02  0.45594000000E+02  0.51100000000E-03 0. -1.
    9900012    2    1    2    0    0  0.72820994086E+01  0.47833888679E+01 -0.39714682205E+02  0.50528858796E+02  0.29999996795E+02 0.  0.
        -12    1    1    2    0    0 -0.72820994086E+01 -0.47833888679E+01  0.39714682205E+02  0.40659141204E+02  0.00000000000E+00 0.  1.
         11    1    3    3    0    0 -0.60208840082E+01  0.18890237754E+01 -0.52929525655E+00  0.63324251906E+01  0.51100000000E-03 0. -1.
        -11    1    3    3    0    0  0.57035418353E+01  0.86686465424E+01 -0.15422149041E+02  0.18588128030E+02  0.51100000000E-03 0.  1.
         12    1    3    3    0    0  0.75994415815E+01 -0.57742814499E+01 -0.23763237907E+02  0.25608305575E+02  0.00000000000E+00 0. -1.
</event>
<event>
 7    1  0.5992960E-013  0.5052891E+02  0.7816164E-02  0.1300439E+00
        -11   -1    0    0    0    0  0.00000000000E+00  0.00000000000E+00  0.45593999997E+02  0.45594000000E+02  0.51100000000E-03 0. -1.
         11   -1    0    0    0    0 -0.00000000000E+00 -0.00000000000E+00 -0.45593999997E+02  0.45594000000E+02  0.51100000000E-03 0.  1.
    9900012    2    1    2    0    0  0.11044051301E+02 -0.31704714186E+02  0.22934717874E+02  0.50528914241E+02  0.30000165328E+02 0.  0.
        -12    1    1    2    0    0 -0.11044051301E+02  0.31704714186E+02 -0.22934717874E+02  0.40659085759E+02  0.00000000000E+00 0.  1.
         11    1    3    3    0    0 -0.80942848089E+01 -0.59261991269E+01  0.27437634698E+01  0.10400265424E+02  0.51100000000E-03 0. -1.
        -11    1    3    3    0    0 -0.49171010378E+00 -0.64960232187E+01  0.71679420795E+01  0.96860461696E+01  0.51100000000E-03 0.  1.
        -12    1    3    3    0    0  0.19630046214E+02 -0.19282491840E+02  0.13023012325E+02  0.30442602647E+02  0.00000000000E+00 0.  1.
</event>
<event>
 7    1  0.6952444E-013  0.5052885E+02  0.7816164E-02  0.1300439E+00
        -11   -1    0    0    0    0  0.00000000000E+00  0.00000000000E+00  0.45593999997E+02  0.45594000000E+02  0.51100000000E-03 0.  1.
         11   -1    0    0    0    0 -0.00000000000E+00 -0.00000000000E+00 -0.45593999997E+02  0.45594000000E+02  0.51100000000E-03 0. -1.
    9900012    2    1    2    0    0  0.17647094635E+02 -0.26736035317E+02 -0.25038586232E+02  0.50528851780E+02  0.29999975469E+02 0.  0.
        -12    1    1    2    0    0 -0.17647094635E+02  0.26736035317E+02  0.25038586232E+02  0.40659148220E+02  0.00000000000E+00 0.  1.
         11    1    3    3    0    0  0.11090495571E+02 -0.30085319306E+01 -0.83767879317E+01  0.14220440665E+02  0.51100000000E-03 0. -1.
        -11    1    3    3    0    0  0.29512398008E+00  0.31388899829E+01 -0.59147369373E+01  0.67025250307E+01  0.51100000000E-03 0.  1.
         12    1    3    3    0    0  0.62614750837E+01 -0.26866393369E+02 -0.10747061363E+02  0.29605886084E+02  0.00000000000E+00 0. -1.
</event>
<event>
 7    1  0.5992960E-013  0.5052886E+02  0.7816164E-02  0.1300439E+00
        -11   -1    0    0    0    0  0.00000000000E+00  0.00000000000E+00  0.45593999997E+02  0.45594000000E+02  0.51100000000E-03 0. -1.
         11   -1    0    0    0    0 -0.00000000000E+00 -0.00000000000E+00 -0.45593999997E+02  0.45594000000E+02  0.51100000000E-03 0.  1.
    9900012    2    1    2    0    0 -0.29023953397E+02  0.21512771524E+02  0.18654120166E+02  0.50528863160E+02  0.30000010061E+02 0.  0.
        -12    1    1    2    0    0  0.29023953397E+02 -0.21512771524E+02 -0.18654120166E+02  0.40659136840E+02  0.00000000000E+00 0.  1.
         11    1    3    3    0    0 -0.11706527222E-01  0.84758805801E+01 -0.25167109522E+01  0.88416357609E+01  0.51100000000E-03 0. -1.
        -11    1    3    3    0    0 -0.11325347978E+02  0.36791721755E+01 -0.84357814095E+00  0.11937815506E+02  0.51100000000E-03 0.  1.
         12    1    3    3    0    0 -0.17686898892E+02  0.93577187686E+01  0.22014409259E+02  0.29749411893E+02  0.00000000000E+00 0. -1.
</event>
<event>
 7    1  0.5992960E-013  0.5052886E+02  0.7816164E-02  0.1300439E+00
        -11   -1    0    0    0    0  0.00000000000E+00  0.00000000000E+00  0.45593999997E+02  0.45594000000E+02  0.51100000000E-03 0. -1.
         11   -1    0    0    0    0 -0.00000000000E+00 -0.00000000000E+00 -0.45593999997E+02  0.45594000000E+02  0.51100000000E-03 0.  1.
    9900012    2    1    2    0    0  0.25063470311E+02  0.31809973540E+02  0.36212570101E+01  0.50528862491E+02  0.30000008027E+02 0.  0.
        -12    1    1    2    0    0 -0.25063470311E+02 -0.31809973540E+02 -0.36212570101E+01  0.40659137509E+02  0.00000000000E+00 0.  1.
         11    1    3    3    0    0  0.11214752730E+02  0.30733954121E+01  0.81950683454E+01  0.14225877252E+02  0.51100000000E-03 0. -1.
        -11    1    3    3    0    0  0.33809011359E+01 -0.67105325632E+00  0.25472052745E+01  0.42859141306E+01  0.51100000000E-03 0.  1.
         12    1    3    3    0    0  0.10467816446E+02  0.29407631384E+02 -0.71210166098E+01  0.32017071108E+02  0.00000000000E+00 0. -1.
</event>
<event>
 7    1  0.5992960E-013  0.5052885E+02  0.7816164E-02  0.1300439E+00
        -11   -1    0    0    0    0  0.00000000000E+00  0.00000000000E+00  0.45593999997E+02  0.45594000000E+02  0.51100000000E-03 0.  1.
         11   -1    0    0    0    0 -0.00000000000E+00 -0.00000000000E+00 -0.45593999997E+02  0.45594000000E+02  0.51100000000E-03 0. -1.
    9900012    2    1    2    0    0 -0.18856880075E+02  0.32851585019E+02 -0.14776948839E+02  0.50528846278E+02  0.29999958746E+02 0.  0.
        -12    1    1    2    0    0  0.18856880075E+02 -0.32851585019E+02  0.14776948839E+02  0.40659153722E+02  0.00000000000E+00 0.  1.
         11    1    3    3    0    0 -0.54683254732E+01  0.43625926343E+00  0.65464057260E+00  0.55246230791E+01  0.51100000000E-03 0. -1.
        -11    1    3    3    0    0 -0.29125880597E+01  0.17876747868E+02  0.40234845347E+01  0.18553967543E+02  0.51100000000E-03 0.  1.
         12    1    3    3    0    0 -0.10475966542E+02  0.14538577888E+02 -0.19455073946E+02  0.26450255655E+02  0.00000000000E+00 0. -1.
</event>
<event>
 7    1  0.5992960E-013  0.5052887E+02  0.7816164E-02  0.1300439E+00
        -11   -1    0    0    0    0  0.00000000000E+00  0.00000000000E+00  0.45593999997E+02  0.45594000000E+02  0.51100000000E-03 0.  1.
         11   -1    0    0    0    0 -0.00000000000E+00 -0.00000000000E+00 -0.45593999997E+02  0.45594000000E+02  0.51100000000E-03 0. -1.
    9900012    2    1    2    0    0 -0.27316133062E+02  0.28433242011E+02  0.99269722778E+01  0.50528866274E+02  0.30000019528E+02 0.  0.
        -12    1    1    2    0    0  0.27316133062E+02 -0.28433242011E+02 -0.99269722778E+01  0.40659133726E+02  0.00000000000E+00 0.  1.
         11    1    3    3    0    0 -0.32871489874E+01  0.18184651493E+02 -0.18068971135E+01  0.18567492448E+02  0.51100000000E-03 0. -1.
        -11    1    3    3    0    0 -0.13170103020E+02  0.90937085323E+01  0.13451871629E+02  0.20906936624E+02  0.51100000000E-03 0.  1.
        -12    1    3    3    0    0 -0.10858881055E+02  0.11548819859E+01 -0.17180022379E+01  0.11054437202E+02  0.00000000000E+00 0.  1.
</event>
<event>
 7    1  0.5992960E-013  0.5052888E+02  0.7816164E-02  0.1300439E+00
        -11   -1    0    0    0    0  0.00000000000E+00  0.00000000000E+00  0.45593999997E+02  0.45594000000E+02  0.51100000000E-03 0.  1.
         11   -1    0    0    0    0 -0.00000000000E+00 -0.00000000000E+00 -0.45593999997E+02  0.45594000000E+02  0.51100000000E-03 0. -1.
    9900012    2    1    2    0    0 -0.28392649150E+02  0.28964218610E+02  0.28453287643E+01  0.50528875793E+02  0.30000048462E+02 0.  0.
        -12    1    1    2    0    0  0.28392649150E+02 -0.28964218610E+02 -0.28453287643E+01  0.40659124207E+02  0.00000000000E+00 0.  1.
         11    1    3    3    0    0 -0.12418858636E+02  0.74944461827E+01  0.45054337231E+01  0.15188604501E+02  0.51100000000E-03 0. -1.
        -11    1    3    3    0    0 -0.56757306248E+01  0.53440513053E+01  0.10193336712E+02  0.12832650391E+02  0.51100000000E-03 0.  1.
        -12    1    3    3    0    0 -0.10298059890E+02  0.16125721122E+02 -0.11853441670E+02  0.22507620901E+02  0.00000000000E+00 0.  1.
</event>
<event>
 7    1  0.5992960E-013  0.5052901E+02  0.7816164E-02  0.1300438E+00
        -11   -1    0    0    0    0  0.00000000000E+00  0.00000000000E+00  0.45593999997E+02  0.45594000000E+02  0.51100000000E-03 0. -1.
         11   -1    0    0    0    0 -0.00000000000E+00 -0.00000000000E+00 -0.45593999997E+02  0.45594000000E+02  0.51100000000E-03 0.  1.
    9900012    2    1    2    0    0  0.30822700710E+02  0.22401050414E+02  0.14188297659E+02  0.50529006786E+02  0.30000446624E+02 0.  0.
        -12    1    1    2    0    0 -0.30822700710E+02 -0.22401050414E+02 -0.14188297659E+02  0.40658993214E+02  0.00000000000E+00 0.  1.
         11    1    3    3    0    0  0.17525966865E+02  0.24169717599E+01 -0.26678812621E+01  0.17891865686E+02  0.51100000000E-03 0. -1.
        -11    1    3    3    0    0  0.78435353817E+01  0.33538657445E+01  0.28514978147E+00  0.85352664501E+01  0.51100000000E-03 0.  1.
         12    1    3    3    0    0  0.54531984630E+01  0.16630212910E+02  0.16571029140E+02  0.24101874650E+02  0.00000000000E+00 0. -1.
</event>
<event>
 7    1  0.5992960E-013  0.5052886E+02  0.7816164E-02  0.1300439E+00
        -11   -1    0    0    0    0  0.00000000000E+00  0.00000000000E+00  0.45593999997E+02  0.45594000000E+02  0.51100000000E-03 0.  1.
         11   -1    0    0    0    0 -0.00000000000E+00 -0.00000000000E+00 -0.45593999997E+02  0.45594000000E+02  0.51100000000E-03 0. -1.
    9900012    2    1    2    0    0 -0.40640404812E+02 -0.49866247247E+00 -0.11289620206E+01  0.50528859296E+02  0.29999998316E+02 0.  0.
        -12    1    1    2    0    0  0.40640404812E+02  0.49866247247E+00  0.11289620206E+01  0.40659140704E+02  0.00000000000E+00 0.  1.
         11    1    3    3    0    0  0.17075214469E+01  0.93812806696E+00 -0.20013428048E+01  0.27930426142E+01  0.51100000000E-03 0. -1.
        -11    1    3    3    0    0 -0.57439454779E+01  0.68231779541E+01  0.45845083929E+01  0.10028279240E+02  0.51100000000E-03 0.  1.
         12    1    3    3    0    0 -0.36603980781E+02 -0.82599684936E+01 -0.37121276088E+01  0.37707537442E+02  0.00000000000E+00 0. -1.
</event>
<event>
 7    1  0.5992960E-013  0.5052885E+02  0.7816164E-02  0.1300439E+00
        -11   -1    0    0    0    0  0.00000000000E+00  0.00000000000E+00  0.45593999997E+02  0.45594000000E+02  0.51100000000E-03 0. -1.
         11   -1    0    0    0    0 -0.00000000000E+00 -0.00000000000E+00 -0.45593999997E+02  0.45594000000E+02  0.51100000000E-03 0.  1.
    9900012    2    1    2    0    0  0.18194688504E+02  0.29557355553E+01  0.36240628408E+02  0.50528853307E+02  0.29999980110E+02 0.  0.
        -12    1    1    2    0    0 -0.18194688504E+02 -0.29557355553E+01 -0.36240628408E+02  0.40659146693E+02  0.00000000000E+00 0.  1.
         11    1    3    3    0    0  0.19359766813E+02 -0.35034565324E+01  0.28292424041E+02  0.34460644758E+02  0.51100000000E-03 0. -1.
        -11    1    3    3    0    0  0.29395006643E+01  0.47429005549E+00  0.82844161431E+01  0.88032474864E+01  0.51100000000E-03 0.  1.
        -12    1    3    3    0    0 -0.41045789733E+01  0.59849020321E+01 -0.33621177620E+00  0.72649610626E+01  0.00000000000E+00 0.  1.
</event>
<event>
 7    1  0.5992960E-013  0.5052886E+02  0.7816164E-02  0.1300439E+00
        -11   -1    0    0    0    0  0.00000000000E+00  0.00000000000E+00  0.45593999997E+02  0.45594000000E+02  0.51100000000E-03 0.  1.
         11   -1    0    0    0    0 -0.00000000000E+00 -0.00000000000E+00 -0.45593999997E+02  0.45594000000E+02  0.51100000000E-03 0. -1.
    9900012    2    1    2    0    0 -0.19072160508E+02  0.16281087786E+02 -0.32005377908E+02  0.50528863991E+02  0.30000012587E+02 0.  0.
        -12    1    1    2    0    0  0.19072160508E+02 -0.16281087786E+02  0.32005377908E+02  0.40659136009E+02  0.00000000000E+00 0.  1.
         11    1    3    3    0    0 -0.73917882999E+01  0.11759174888E+02 -0.21594045790E+01  0.14056306653E+02  0.51100000000E-03 0. -1.
        -11    1    3    3    0    0  0.28850083769E+01  0.36571627761E+01 -0.20699795707E+01  0.50973452493E+01  0.51100000000E-03 0.  1.
         12    1    3    3    0    0 -0.14565380585E+02  0.86475012155E+00 -0.27775993759E+02  0.31375212089E+02  0.00000000000E+00 0. -1.
</event>
<event>
 7    1  0.5992960E-013  0.5052883E+02  0.7816164E-02  0.1300439E+00
        -11   -1    0    0    0    0  0.00000000000E+00  0.00000000000E+00  0.45593999997E+02  0.45594000000E+02  0.51100000000E-03 0.  1.
         11   -1    0    0    0    0 -0.00000000000E+00 -0.00000000000E+00 -0.45593999997E+02  0.45594000000E+02  0.51100000000E-03 0. -1.
    9900012    2    1    2    0    0  0.52213499651E+01 -0.53655732908E+01 -0.39963936559E+02  0.50528830093E+02  0.29999909552E+02 0.  0.
        -12    1    1    2    0    0 -0.52213499651E+01  0.53655732908E+01  0.39963936559E+02  0.40659169907E+02  0.00000000000E+00 0.  1.
         11    1    3    3    0    0  0.80251591569E+00  0.74845846253E+01 -0.90293270394E+01  0.11755500238E+02  0.51100000000E-03 0. -1.
        -11    1    3    3    0    0 -0.44362198500E+01  0.10666488385E+00 -0.41716126089E+00  0.44570671672E+01  0.51100000000E-03 0.  1.
         12    1    3    3    0    0  0.88550538994E+01 -0.12956822800E+02 -0.30517448259E+02  0.34316262688E+02  0.00000000000E+00 0. -1.
</event>
<event>
 7    1  0.5992960E-013  0.5052889E+02  0.7816164E-02  0.1300439E+00
        -11   -1    0    0    0    0  0.00000000000E+00  0.00000000000E+00  0.45593999997E+02  0.45594000000E+02  0.51100000000E-03 0. -1.
         11   -1    0    0    0    0 -0.00000000000E+00 -0.00000000000E+00 -0.45593999997E+02  0.45594000000E+02  0.51100000000E-03 0.  1.
    9900012    2    1    2    0    0 -0.10200181768E+02 -0.29919949145E+02  0.25571786072E+02  0.50528888993E+02  0.30000088583E+02 0.  0.
        -12    1    1    2    0    0  0.10200181768E+02  0.29919949145E+02 -0.25571786072E+02  0.40659111007E+02  0.00000000000E+00 0.  1.
         11    1    3    3    0    0 -0.73692746607E-01 -0.13189543019E+02  0.11409916065E+02  0.17440059075E+02  0.51100000000E-03 0. -1.
        -11    1    3    3    0    0 -0.97255030030E+01 -0.19484620764E+02  0.18065320123E+02  0.28294728244E+02  0.51100000000E-03 0.  1.
        -12    1    3    3    0    0 -0.40098601844E+00  0.27542146376E+01 -0.39034501159E+01  0.47941016744E+01  0.00000000000E+00 0.  1.
</event>
<event>
 7    1  0.5992960E-013  0.5052888E+02  0.7816164E-02  0.1300439E+00
        -11   -1    0    0    0    0  0.00000000000E+00  0.00000000000E+00  0.45593999997E+02  0.45594000000E+02  0.51100000000E-03 0.  1.
         11   -1    0    0    0    0 -0.00000000000E+00 -0.00000000000E+00 -0.45593999997E+02  0.45594000000E+02  0.51100000000E-03 0. -1.
    9900012    2    1    2    0    0  0.29125229964E+02  0.23272160247E+02 -0.16226270658E+02  0.50528876516E+02  0.30000050658E+02 0.  0.
        -12    1    1    2    0    0 -0.29125229964E+02 -0.23272160247E+02  0.16226270658E+02  0.40659123484E+02  0.00000000000E+00 0.  1.
         11    1    3    3    0    0  0.19929280458E+02  0.39781944969E+01 -0.10492466131E+02  0.22871250442E+02  0.51100000000E-03 0. -1.
        -11    1    3    3    0    0  0.11910078683E+02  0.15135903678E+02  0.10059858732E+01  0.19286201343E+02  0.51100000000E-03 0.  1.
         12    1    3    3    0    0 -0.27141291770E+01  0.41580620717E+01 -0.67397904008E+01  0.83714247311E+01  0.00000000000E+00 0. -1.
</event>
<event>
 7    1  0.5992960E-013  0.5052885E+02  0.7816164E-02  0.1300439E+00
        -11   -1    0    0    0    0  0.00000000000E+00  0.00000000000E+00  0.45593999997E+02  0.45594000000E+02  0.51100000000E-03 0. -1.
         11   -1    0    0    0    0 -0.00000000000E+00 -0.00000000000E+00 -0.45593999997E+02  0.45594000000E+02  0.51100000000E-03 0.  1.
    9900012    2    1    2    0    0  0.15283323264E+02 -0.35091898085E+02  0.13716588599E+02  0.50528854854E+02  0.29999984816E+02 0.  0.
        -12    1    1    2    0    0 -0.15283323264E+02  0.35091898085E+02 -0.13716588599E+02  0.40659145146E+02  0.00000000000E+00 0.  1.
         11    1    3    3    0    0  0.10829762553E+02 -0.21910835939E+02  0.84162349971E+01  0.25849593812E+02  0.51100000000E-03 0. -1.
        -11    1    3    3    0    0  0.97157769762E+00 -0.12956493365E+02 -0.49096232583E+01  0.13889531466E+02  0.51100000000E-03 0.  1.
        -12    1    3    3    0    0  0.34819830131E+01 -0.22456878082E+00  0.10209976860E+02  0.10789729576E+02  0.00000000000E+00 0.  1.
</event>
<event>
 7    1  0.5992960E-013  0.5052886E+02  0.7816164E-02  0.1300439E+00
        -11   -1    0    0    0    0  0.00000000000E+00  0.00000000000E+00  0.45593999997E+02  0.45594000000E+02  0.51100000000E-03 0.  1.
         11   -1    0    0    0    0 -0.00000000000E+00 -0.00000000000E+00 -0.45593999997E+02  0.45594000000E+02  0.51100000000E-03 0. -1.
    9900012    2    1    2    0    0  0.31320481091E+02 -0.18328911140E+02 -0.18336952956E+02  0.50528863720E+02  0.30000011763E+02 0.  0.
        -12    1    1    2    0    0 -0.31320481091E+02  0.18328911140E+02  0.18336952956E+02  0.40659136280E+02  0.00000000000E+00 0.  1.
         11    1    3    3    0    0  0.12612539620E+01  0.23197276021E+00  0.51539032656E+00  0.13820999848E+01  0.51100000000E-03 0. -1.
        -11    1    3    3    0    0  0.56788704986E+01 -0.12827554811E+02  0.46720038836E+01  0.14785917391E+02  0.51100000000E-03 0.  1.
         12    1    3    3    0    0  0.24380356630E+02 -0.57333290902E+01 -0.23524347166E+02  0.34360846344E+02  0.00000000000E+00 0. -1.
</event>
<event>
 7    1  0.5992960E-013  0.5052889E+02  0.7816164E-02  0.1300439E+00
        -11   -1    0    0    0    0  0.00000000000E+00  0.00000000000E+00  0.45593999997E+02  0.45594000000E+02  0.51100000000E-03 0.  1.
         11   -1    0    0    0    0 -0.00000000000E+00 -0.00000000000E+00 -0.45593999997E+02  0.45594000000E+02  0.51100000000E-03 0. -1.
    9900012    2    1    2    0    0 -0.16849008489E+02  0.36934506486E+02 -0.22618607012E+01  0.50528894374E+02  0.30000104940E+02 0.  0.
        -12    1    1    2    0    0  0.16849008489E+02 -0.36934506486E+02  0.22618607012E+01  0.40659105626E+02  0.00000000000E+00 0.  1.
         11    1    3    3    0    0 -0.89939637057E+01  0.50243501648E+01 -0.88133803508E+00  0.10339837267E+02  0.51100000000E-03 0. -1.
        -11    1    3    3    0    0 -0.83242652482E+01  0.12649233028E+02  0.96811200595E+01  0.17972773130E+02  0.51100000000E-03 0.  1.
         12    1    3    3    0    0  0.46922046452E+00  0.19260923294E+02 -0.11061642726E+02  0.22216283977E+02  0.00000000000E+00 0. -1.
</event>
<event>
 7    1  0.5992960E-013  0.5052886E+02  0.7816164E-02  0.1300439E+00
        -11   -1    0    0    0    0  0.00000000000E+00  0.00000000000E+00  0.45593999997E+02  0.45594000000E+02  0.51100000000E-03 0.  1.
         11   -1    0    0    0    0 -0.00000000000E+00 -0.00000000000E+00 -0.45593999997E+02  0.45594000000E+02  0.51100000000E-03 0. -1.
    9900012    2    1    2    0    0 -0.18794123943E+02 -0.34284878698E+02 -0.11157656413E+02  0.50528864510E+02  0.30000014166E+02 0.  0.
        -12    1    1    2    0    0  0.18794123943E+02  0.34284878698E+02  0.11157656413E+02  0.40659135490E+02  0.00000000000E+00 0.  1.
         11    1    3    3    0    0 -0.25793946666E+02 -0.30911735799E+02 -0.83496826340E+01  0.41116666877E+02  0.51100000000E-03 0. -1.
        -11    1    3    3    0    0  0.33150097644E+01 -0.32398849606E+01 -0.33032105326E+01  0.56918665110E+01  0.51100000000E-03 0.  1.
        -12    1    3    3    0    0  0.36848129589E+01 -0.13325793883E+00  0.49523675344E+00  0.37203311227E+01  0.00000000000E+00 0.  1.
</event>
<event>
 7    1  0.5992960E-013  0.5052890E+02  0.7816164E-02  0.1300439E+00
        -11   -1    0    0    0    0  0.00000000000E+00  0.00000000000E+00  0.45593999997E+02  0.45594000000E+02  0.51100000000E-03 0. -1.
         11   -1    0    0    0    0 -0.00000000000E+00 -0.00000000000E+00 -0.45593999997E+02  0.45594000000E+02  0.51100000000E-03 0.  1.
    9900012    2    1    2    0    0 -0.18277300132E+00  0.37732134271E+02  0.15146457210E+02  0.50528898575E+02  0.30000117710E+02 0.  0.
        -12    1    1    2    0    0  0.18277300132E+00 -0.37732134271E+02 -0.15146457210E+02  0.40659101425E+02  0.00000000000E+00 0.  1.
         11    1    3    3    0    0  0.26399511103E-02 -0.34862685244E+01  0.52453713239E+01  0.62982533913E+01  0.51100000000E-03 0. -1.
        -11    1    3    3    0    0 -0.36415760286E+01  0.21197955279E+02  0.10436966465E+02  0.23907000089E+02  0.51100000000E-03 0.  1.
        -12    1    3    3    0    0  0.34561630761E+01  0.20020447517E+02 -0.53588057870E+00  0.20323645096E+02  0.00000000000E+00 0.  1.
</event>
<event>
 7    1  0.5992960E-013  0.5052886E+02  0.7816164E-02  0.1300439E+00
        -11   -1    0    0    0    0  0.00000000000E+00  0.00000000000E+00  0.45593999997E+02  0.45594000000E+02  0.51100000000E-03 0. -1.
         11   -1    0    0    0    0 -0.00000000000E+00 -0.00000000000E+00 -0.45593999997E+02  0.45594000000E+02  0.51100000000E-03 0.  1.
    9900012    2    1    2    0    0  0.28510644512E+02 -0.91158661231E+01  0.27517450781E+02  0.50528856340E+02  0.29999989331E+02 0.  0.
        -12    1    1    2    0    0 -0.28510644512E+02  0.91158661231E+01 -0.27517450781E+02  0.40659143660E+02  0.00000000000E+00 0.  1.
         11    1    3    3    0    0  0.79988392673E+01  0.78894113364E+00  0.51554388605E+01  0.95489479966E+01  0.51100000000E-03 0. -1.
        -11    1    3    3    0    0  0.22815252985E+02  0.13387222999E+01  0.15333996836E+02  0.27521980404E+02  0.51100000000E-03 0.  1.
         12    1    3    3    0    0 -0.23034477400E+01 -0.11243529557E+02  0.70280150847E+01  0.13457927939E+02  0.00000000000E+00 0. -1.
</event>
<event>
 7    1  0.5992960E-013  0.5052886E+02  0.7816164E-02  0.1300439E+00
        -11   -1    0    0    0    0  0.00000000000E+00  0.00000000000E+00  0.45593999997E+02  0.45594000000E+02  0.51100000000E-03 0. -1.
         11   -1    0    0    0    0 -0.00000000000E+00 -0.00000000000E+00 -0.45593999997E+02  0.45594000000E+02  0.51100000000E-03 0.  1.
    9900012    2    1    2    0    0  0.26213807232E+02 -0.16496605366E+02  0.26341297800E+02  0.50528860216E+02  0.30000001111E+02 0.  0.
        -12    1    1    2    0    0 -0.26213807232E+02  0.16496605366E+02 -0.26341297800E+02  0.40659139784E+02  0.00000000000E+00 0.  1.
         11    1    3    3    0    0  0.31640268517E+01 -0.46938406410E+00  0.10921024024E+02  0.11379813413E+02  0.51100000000E-03 0. -1.
        -11    1    3    3    0    0  0.21253843742E+02 -0.18652136675E+01  0.11964541625E+02  0.24461299074E+02  0.51100000000E-03 0.  1.
         12    1    3    3    0    0  0.17959366386E+01 -0.14162007634E+02  0.34557321512E+01  0.14687747729E+02  0.00000000000E+00 0. -1.
</event>
<event>
 7    1  0.5992960E-013  0.5052886E+02  0.7816164E-02  0.1300439E+00
        -11   -1    0    0    0    0  0.00000000000E+00  0.00000000000E+00  0.45593999997E+02  0.45594000000E+02  0.51100000000E-03 0. -1.
         11   -1    0    0    0    0 -0.00000000000E+00 -0.00000000000E+00 -0.45593999997E+02  0.45594000000E+02  0.51100000000E-03 0.  1.
    9900012    2    1    2    0    0 -0.10363032573E+01 -0.40645901912E+02  0.45669657902E-01  0.50528863851E+02  0.30000012161E+02 0.  0.
        -12    1    1    2    0    0  0.10363032573E+01  0.40645901912E+02 -0.45669657902E-01  0.40659136149E+02  0.00000000000E+00 0.  1.
         11    1    3    3    0    0  0.27402567663E+01 -0.11694446837E+02 -0.64913524879E+01  0.13653085781E+02  0.51100000000E-03 0. -1.
        -11    1    3    3    0    0  0.62328973849E+01 -0.16834696385E+01 -0.17133832765E+01  0.66797277151E+01  0.51100000000E-03 0.  1.
         12    1    3    3    0    0 -0.10009457408E+02 -0.27267985437E+02  0.82504054223E+01  0.30196050355E+02  0.00000000000E+00 0. -1.
</event>
<event>
 7    1  0.5992960E-013  0.5052886E+02  0.7816164E-02  0.1300439E+00
        -11   -1    0    0    0    0  0.00000000000E+00  0.00000000000E+00  0.45593999997E+02  0.45594000000E+02  0.51100000000E-03 0.  1.
         11   -1    0    0    0    0 -0.00000000000E+00 -0.00000000000E+00 -0.45593999997E+02  0.45594000000E+02  0.51100000000E-03 0. -1.
    9900012    2    1    2    0    0  0.10838130602E+02 -0.19365537527E+02 -0.34068708396E+02  0.50528855759E+02  0.29999987565E+02 0.  0.
        -12    1    1    2    0    0 -0.10838130602E+02  0.19365537527E+02  0.34068708396E+02  0.40659144241E+02  0.00000000000E+00 0.  1.
         11    1    3    3    0    0 -0.40367385092E+00 -0.22559336414E+01  0.35570563004E+01  0.42314109889E+01  0.51100000000E-03 0. -1.
        -11    1    3    3    0    0 -0.11630080995E+01 -0.18971235572E+01  0.13889359962E+01  0.26231296372E+01  0.51100000000E-03 0.  1.
         12    1    3    3    0    0  0.12404812553E+02 -0.15212480329E+02 -0.39014700692E+02  0.43674315133E+02  0.00000000000E+00 0. -1.
</event>
<event>
 7    1  0.5992960E-013  0.5052886E+02  0.7816164E-02  0.1300439E+00
        -11   -1    0    0    0    0  0.00000000000E+00  0.00000000000E+00  0.45593999997E+02  0.45594000000E+02  0.51100000000E-03 0. -1.
         11   -1    0    0    0    0 -0.00000000000E+00 -0.00000000000E+00 -0.45593999997E+02  0.45594000000E+02  0.51100000000E-03 0.  1.
    9900012    2    1    2    0    0  0.16953906061E+02 -0.93410291773E+01  0.35755781158E+02  0.50528860277E+02  0.30000001297E+02 0.  0.
        -12    1    1    2    0    0 -0.16953906061E+02  0.93410291773E+01 -0.35755781158E+02  0.40659139723E+02  0.00000000000E+00 0.  1.
         11    1    3    3    0    0  0.26428422709E+01 -0.57728757547E+01  0.15088754971E+02  0.16370132455E+02  0.51100000000E-03 0. -1.
        -11    1    3    3    0    0  0.22327090068E+01 -0.12042107793E+02  0.73524482993E+01  0.14284811719E+02  0.51100000000E-03 0.  1.
        -12    1    3    3    0    0  0.12078354783E+02  0.84739543700E+01  0.13314577888E+02  0.19873916103E+02  0.00000000000E+00 0.  1.
</event>
<event>
 7    1  0.5992960E-013  0.5052886E+02  0.7816164E-02  0.1300439E+00
        -11   -1    0    0    0    0  0.00000000000E+00  0.00000000000E+00  0.45593999997E+02  0.45594000000E+02  0.51100000000E-03 0.  1.
         11   -1    0    0    0    0 -0.00000000000E+00 -0.00000000000E+00 -0.45593999997E+02  0.45594000000E+02  0.51100000000E-03 0. -1.
    9900012    2    1    2    0    0  0.98690091784E+01 -0.42807467386E+01 -0.39210245632E+02  0.50528862069E+02  0.30000006744E+02 0.  0.
        -12    1    1    2    0    0 -0.98690091784E+01  0.42807467386E+01  0.39210245632E+02  0.40659137931E+02  0.00000000000E+00 0.  1.
         11    1    3    3    0    0 -0.71884599615E+00 -0.66942568381E+01 -0.11372797733E+02  0.13216290808E+02  0.51100000000E-03 0. -1.
        -11    1    3    3    0    0 -0.31119721472E+00  0.10421112896E+02 -0.73207798635E+01  0.12739319282E+02  0.51100000000E-03 0.  1.
         12    1    3    3    0    0  0.10899052389E+02 -0.80076027968E+01 -0.20516668035E+02  0.24573251979E+02  0.00000000000E+00 0. -1.
</event>
<event>
 7    1  0.5992960E-013  0.5052886E+02  0.7816164E-02  0.1300439E+00
        -11   -1    0    0    0    0  0.00000000000E+00  0.00000000000E+00  0.45593999997E+02  0.45594000000E+02  0.51100000000E-03 0. -1.
         11   -1    0    0    0    0 -0.00000000000E+00 -0.00000000000E+00 -0.45593999997E+02  0.45594000000E+02  0.51100000000E-03 0.  1.
    9900012    2    1    2    0    0  0.13523869878E+02  0.11207922682E+02  0.36669511556E+02  0.50528860006E+02  0.30000000474E+02 0.  0.
        -12    1    1    2    0    0 -0.13523869878E+02 -0.11207922682E+02 -0.36669511556E+02  0.40659139994E+02  0.00000000000E+00 0.  1.
         11    1    3    3    0    0 -0.39472659455E+00 -0.95032148920E+00  0.24471835185E+01  0.26547367952E+01  0.51100000000E-03 0. -1.
        -11    1    3    3    0    0 -0.28815848220E+00  0.13441417078E+02  0.33349614555E+01  0.13851956416E+02  0.51100000000E-03 0.  1.
        -12    1    3    3    0    0  0.14206754955E+02 -0.12831729070E+01  0.30887366582E+02  0.34022166795E+02  0.00000000000E+00 0.  1.
</event>
<event>
 7    1  0.5992960E-013  0.5052886E+02  0.7816164E-02  0.1300439E+00
        -11   -1    0    0    0    0  0.00000000000E+00  0.00000000000E+00  0.45593999997E+02  0.45594000000E+02  0.51100000000E-03 0.  1.
         11   -1    0    0    0    0 -0.00000000000E+00 -0.00000000000E+00 -0.45593999997E+02  0.45594000000E+02  0.51100000000E-03 0. -1.
    9900012    2    1    2    0    0  0.31915097021E+02  0.27422641794E+01 -0.25041408301E+02  0.50528861294E+02  0.30000004388E+02 0.  0.
        -12    1    1    2    0    0 -0.31915097021E+02 -0.27422641794E+01  0.25041408301E+02  0.40659138706E+02  0.00000000000E+00 0.  1.
         11    1    3    3    0    0  0.24218133700E+01  0.63278594026E+01 -0.18257282309E+01  0.70171410455E+01  0.51100000000E-03 0. -1.
        -11    1    3    3    0    0  0.40013961232E+01 -0.88536167135E+01 -0.11244036179E+02  0.14860217014E+02  0.51100000000E-03 0.  1.
         12    1    3    3    0    0  0.25491887527E+02  0.52680214902E+01 -0.11971643891E+02  0.28651503234E+02  0.00000000000E+00 0. -1.
</event>
<event>
 7    1  0.5992960E-013  0.5052886E+02  0.7816164E-02  0.1300439E+00
        -11   -1    0    0    0    0  0.00000000000E+00  0.00000000000E+00  0.45593999997E+02  0.45594000000E+02  0.51100000000E-03 0.  1.
         11   -1    0    0    0    0 -0.00000000000E+00 -0.00000000000E+00 -0.45593999997E+02  0.45594000000E+02  0.51100000000E-03 0. -1.
    9900012    2    1    2    0    0 -0.32147277279E+01  0.19318819271E+02 -0.35631648261E+02  0.50528860680E+02  0.30000002524E+02 0.  0.
        -12    1    1    2    0    0  0.32147277279E+01 -0.19318819271E+02  0.35631648261E+02  0.40659139320E+02  0.00000000000E+00 0.  1.
         11    1    3    3    0    0  0.79825505865E+01  0.20345436634E+01 -0.96107153079E+00  0.82936204720E+01  0.51100000000E-03 0. -1.
        -11    1    3    3    0    0 -0.65011449914E+01  0.73652196161E+01 -0.59405757648E+01  0.11480495933E+02  0.51100000000E-03 0.  1.
        -12    1    3    3    0    0 -0.46961333231E+01  0.99190559911E+01 -0.28730000966E+02  0.30754744275E+02  0.00000000000E+00 0.  1.
</event>
<event>
 7    1  0.5992960E-013  0.5052886E+02  0.7816164E-02  0.1300439E+00
        -11   -1    0    0    0    0  0.00000000000E+00  0.00000000000E+00  0.45593999997E+02  0.45594000000E+02  0.51100000000E-03 0. -1.
         11   -1    0    0    0    0 -0.00000000000E+00 -0.00000000000E+00 -0.45593999997E+02  0.45594000000E+02  0.51100000000E-03 0.  1.
    9900012    2    1    2    0    0 -0.18355019558E+02  0.29481820235E+02  0.21144293617E+02  0.50528860561E+02  0.30000002162E+02 0.  0.
        -12    1    1    2    0    0  0.18355019558E+02 -0.29481820235E+02 -0.21144293617E+02  0.40659139439E+02  0.00000000000E+00 0.  1.
         11    1    3    3    0    0 -0.93540607839E+01  0.98266395703E+01  0.87177519039E+01  0.16126391317E+02  0.51100000000E-03 0. -1.
        -11    1    3    3    0    0 -0.10826036894E+02  0.22558460699E+02  0.40450795501E+01  0.25346595290E+02  0.51100000000E-03 0.  1.
        -12    1    3    3    0    0  0.18250781193E+01 -0.29032800345E+01  0.83814621625E+01  0.90558739546E+01  0.00000000000E+00 0.  1.
</event>
<event>
 7    1  0.5992960E-013  0.5052885E+02  0.7816164E-02  0.1300439E+00
        -11   -1    0    0    0    0  0.00000000000E+00  0.00000000000E+00  0.45593999997E+02  0.45594000000E+02  0.51100000000E-03 0. -1.
         11   -1    0    0    0    0 -0.00000000000E+00 -0.00000000000E+00 -0.45593999997E+02  0.45594000000E+02  0.51100000000E-03 0.  1.
    9900012    2    1    2    0    0 -0.29716796895E+02 -0.26198211043E+02  0.91505084689E+01  0.50528854844E+02  0.29999984784E+02 0.  0.
        -12    1    1    2    0    0  0.29716796895E+02  0.26198211043E+02 -0.91505084689E+01  0.40659145156E+02  0.00000000000E+00 0.  1.
         11    1    3    3    0    0 -0.17718854176E+02 -0.78879395866E+01  0.37559702823E+00  0.19398929291E+02  0.51100000000E-03 0. -1.
        -11    1    3    3    0    0 -0.87162243442E+00 -0.19832870992E+01 -0.60517349669E+01  0.64278028716E+01  0.51100000000E-03 0.  1.
         12    1    3    3    0    0 -0.11126320285E+02 -0.16326984358E+02  0.14826646408E+02  0.24702122682E+02  0.00000000000E+00 0. -1.
</event>
<event>
 7    1  0.5992960E-013  0.5052886E+02  0.7816164E-02  0.1300439E+00
        -11   -1    0    0    0    0  0.00000000000E+00  0.00000000000E+00  0.45593999997E+02  0.45594000000E+02  0.51100000000E-03 0. -1.
         11   -1    0    0    0    0 -0.00000000000E+00 -0.00000000000E+00 -0.45593999997E+02  0.45594000000E+02  0.51100000000E-03 0.  1.
    9900012    2    1    2    0    0  0.64684457003E+01 -0.34329546360E+02 -0.20804020081E+02  0.50528858413E+02  0.29999995631E+02 0.  0.
        -12    1    1    2    0    0 -0.64684457003E+01  0.34329546360E+02  0.20804020081E+02  0.40659141587E+02  0.00000000000E+00 0.  1.
         11    1    3    3    0    0  0.50090202291E+00 -0.15098623833E+02 -0.28362907548E+01  0.15370877983E+02  0.51100000000E-03 0. -1.
        -11    1    3    3    0    0 -0.38005979608E+01 -0.16747713201E+02 -0.35014281369E+01  0.17526849163E+02  0.51100000000E-03 0.  1.
        -12    1    3    3    0    0  0.97681416382E+01 -0.24832093270E+01 -0.14466301189E+02  0.17631131266E+02  0.00000000000E+00 0.  1.
</event>
<event>
 7    1  0.5992960E-013  0.5052886E+02  0.7816164E-02  0.1300439E+00
        -11   -1    0    0    0    0  0.00000000000E+00  0.00000000000E+00  0.45593999997E+02  0.45594000000E+02  0.51100000000E-03 0.  1.
         11   -1    0    0    0    0 -0.00000000000E+00 -0.00000000000E+00 -0.45593999997E+02  0.45594000000E+02  0.51100000000E-03 0. -1.
    9900012    2    1    2    0    0  0.34041452513E+02  0.20502893246E+02 -0.86009606186E+01  0.50528860262E+02  0.30000001252E+02 0.  0.
        -12    1    1    2    0    0 -0.34041452513E+02 -0.20502893246E+02  0.86009606186E+01  0.40659139738E+02  0.00000000000E+00 0.  1.
         11    1    3    3    0    0  0.78102798965E+01  0.27064638330E+01 -0.91667125908E+01  0.12343177813E+02  0.51100000000E-03 0. -1.
        -11    1    3    3    0    0  0.10854487990E+01  0.24931555718E+01 -0.72384842186E+01  0.77323785373E+01  0.51100000000E-03 0.  1.
        -12    1    3    3    0    0  0.25145723818E+02  0.15303273841E+02  0.78042361908E+01  0.30453303911E+02  0.00000000000E+00 0.  1.
</event>
<event>
 7    1  0.5992960E-013  0.5052887E+02  0.7816164E-02  0.1300439E+00
        -11   -1    0    0    0    0  0.00000000000E+00  0.00000000000E+00  0.45593999997E+02  0.45594000000E+02  0.51100000000E-03 0.  1.
         11   -1    0    0    0    0 -0.00000000000E+00 -0.00000000000E+00 -0.45593999997E+02  0.45594000000E+02  0.51100000000E-03 0. -1.
    9900012    2    1    2    0    0  0.16940579249E+02  0.18572081223E+02 -0.31957148915E+02  0.50528870730E+02  0.30000033070E+02 0.  0.
        -12    1    1    2    0    0 -0.16940579249E+02 -0.18572081223E+02  0.31957148915E+02  0.40659129270E+02  0.00000000000E+00 0.  1.
         11    1    3    3    0    0  0.15643862741E+01 -0.12402170340E+01 -0.63758671249E+01  0.66811020469E+01  0.51100000000E-03 0. -1.
        -11    1    3    3    0    0  0.43924395140E+00 -0.45873651648E+01 -0.10590012852E+02  0.11549252221E+02  0.51100000000E-03 0.  1.
         12    1    3    3    0    0  0.14936949023E+02  0.24399663422E+02 -0.14991268938E+02  0.32298516461E+02  0.00000000000E+00 0. -1.
</event>
<event>
 7    1  0.5992960E-013  0.5052886E+02  0.7816164E-02  0.1300439E+00
        -11   -1    0    0    0    0  0.00000000000E+00  0.00000000000E+00  0.45593999997E+02  0.45594000000E+02  0.51100000000E-03 0.  1.
         11   -1    0    0    0    0 -0.00000000000E+00 -0.00000000000E+00 -0.45593999997E+02  0.45594000000E+02  0.51100000000E-03 0. -1.
    9900012    2    1    2    0    0  0.81905103791E+01 -0.13190865102E+02 -0.37577682382E+02  0.50528860860E+02  0.30000003070E+02 0.  0.
        -12    1    1    2    0    0 -0.81905103791E+01  0.13190865102E+02  0.37577682382E+02  0.40659139140E+02  0.00000000000E+00 0.  1.
         11    1    3    3    0    0 -0.24099540579E+01 -0.91106278593E+01 -0.27723722343E+02  0.29281670023E+02  0.51100000000E-03 0. -1.
        -11    1    3    3    0    0  0.79348298303E+01 -0.84831122003E+01 -0.10974021489E+02  0.15979795522E+02  0.51100000000E-03 0.  1.
        -12    1    3    3    0    0  0.26656346067E+01  0.44028749573E+01  0.11200614495E+01  0.52673953142E+01  0.00000000000E+00 0.  1.
</event>
<event>
 7    1  0.5992960E-013  0.5052886E+02  0.7816164E-02  0.1300439E+00
        -11   -1    0    0    0    0  0.00000000000E+00  0.00000000000E+00  0.45593999997E+02  0.45594000000E+02  0.51100000000E-03 0.  1.
         11   -1    0    0    0    0 -0.00000000000E+00 -0.00000000000E+00 -0.45593999997E+02  0.45594000000E+02  0.51100000000E-03 0. -1.
    9900012    2    1    2    0    0 -0.16237621003E+01  0.19737991349E+02 -0.35509731826E+02  0.50528856376E+02  0.29999989441E+02 0.  0.
        -12    1    1    2    0    0  0.16237621003E+01 -0.19737991349E+02  0.35509731826E+02  0.40659143624E+02  0.00000000000E+00 0.  1.
         11    1    3    3    0    0 -0.43743383213E+01 -0.51471908952E+01 -0.15000085992E+02  0.16450865931E+02  0.51100000000E-03 0. -1.
        -11    1    3    3    0    0  0.24944195803E+01  0.77330279339E+00 -0.32493791523E+00  0.26316745928E+01  0.51100000000E-03 0.  1.
        -12    1    3    3    0    0  0.25615664066E+00  0.24111879451E+02 -0.20184707919E+02  0.31446315852E+02  0.00000000000E+00 0.  1.
</event>
<event>
 7    1  0.5992960E-013  0.5052885E+02  0.7816164E-02  0.1300439E+00
        -11   -1    0    0    0    0  0.00000000000E+00  0.00000000000E+00  0.45593999997E+02  0.45594000000E+02  0.51100000000E-03 0.  1.
         11   -1    0    0    0    0 -0.00000000000E+00 -0.00000000000E+00 -0.45593999997E+02  0.45594000000E+02  0.51100000000E-03 0. -1.
    9900012    2    1    2    0    0  0.35109536161E+01  0.14532939119E+02 -0.37810489708E+02  0.50528852854E+02  0.29999978734E+02 0.  0.
        -12    1    1    2    0    0 -0.35109536161E+01 -0.14532939119E+02  0.37810489708E+02  0.40659147146E+02  0.00000000000E+00 0.  1.
         11    1    3    3    0    0  0.59460425362E+01  0.58029993114E+01 -0.31488191911E+02  0.32565878661E+02  0.51100000000E-03 0. -1.
        -11    1    3    3    0    0 -0.24476405321E+01  0.40330290372E+01 -0.10604793214E+02  0.11606804330E+02  0.51100000000E-03 0.  1.
        -12    1    3    3    0    0  0.12551611958E-01  0.46969107703E+01  0.42824954171E+01  0.63561698628E+01  0.00000000000E+00 0.  1.
</event>
<event>
 7    1  0.5992960E-013  0.5052886E+02  0.7816164E-02  0.1300439E+00
        -11   -1    0    0    0    0  0.00000000000E+00  0.00000000000E+00  0.45593999997E+02  0.45594000000E+02  0.51100000000E-03 0.  1.
         11   -1    0    0    0    0 -0.00000000000E+00 -0.00000000000E+00 -0.45593999997E+02  0.45594000000E+02  0.51100000000E-03 0. -1.
    9900012    2    1    2    0    0 -0.12472143007E+02  0.19524234684E+02 -0.33412809704E+02  0.50528856582E+02  0.29999990068E+02 0.  0.
        -12    1    1    2    0    0  0.12472143007E+02 -0.19524234684E+02  0.33412809704E+02  0.40659143418E+02  0.00000000000E+00 0.  1.
         11    1    3    3    0    0 -0.11661517798E+02  0.27558323414E+01 -0.16324066238E+02  0.20249956742E+02  0.51100000000E-03 0. -1.
        -11    1    3    3    0    0 -0.37840598956E+01  0.17911348628E+02 -0.19143706207E+02  0.26488054035E+02  0.51100000000E-03 0.  1.
        -12    1    3    3    0    0  0.29734346867E+01 -0.11429462849E+01  0.20549627422E+01  0.37908458051E+01  0.00000000000E+00 0.  1.
</event>
<event>
 7    1  0.5992960E-013  0.5052886E+02  0.7816164E-02  0.1300439E+00
        -11   -1    0    0    0    0  0.00000000000E+00  0.00000000000E+00  0.45593999997E+02  0.45594000000E+02  0.51100000000E-03 0.  1.
         11   -1    0    0    0    0 -0.00000000000E+00 -0.00000000000E+00 -0.45593999997E+02  0.45594000000E+02  0.51100000000E-03 0. -1.
    9900012    2    1    2    0    0  0.13740733982E+02  0.25356378389E+02 -0.28660287446E+02  0.50528858692E+02  0.29999996482E+02 0.  0.
        -12    1    1    2    0    0 -0.13740733982E+02 -0.25356378389E+02  0.28660287446E+02  0.40659141308E+02  0.00000000000E+00 0.  1.
         11    1    3    3    0    0  0.24871503801E+01  0.47895384329E+01 -0.21543285378E+01  0.58109144825E+01  0.51100000000E-03 0. -1.
        -11    1    3    3    0    0 -0.64424930378E+01  0.33258037742E-01  0.49031182582E+00  0.64612095297E+01  0.51100000000E-03 0.  1.
        -12    1    3    3    0    0  0.17696076640E+02  0.20533581918E+02 -0.26996270734E+02  0.38256734680E+02  0.00000000000E+00 0.  1.
</event>
<event>
 7    1  0.5992960E-013  0.5052886E+02  0.7816164E-02  0.1300439E+00
        -11   -1    0    0    0    0  0.00000000000E+00  0.00000000000E+00  0.45593999997E+02  0.45594000000E+02  0.51100000000E-03 0.  1.
         11   -1    0    0    0    0 -0.00000000000E+00 -0.00000000000E+00 -0.45593999997E+02  0.45594000000E+02  0.51100000000E-03 0. -1.
    9900012    2    1    2    0    0  0.17056432454E+01  0.28177899212E+02 -0.29261962799E+02  0.50528859703E+02  0.29999999552E+02 0.  0.
        -12    1    1    2    0    0 -0.17056432454E+01 -0.28177899212E+02  0.29261962799E+02  0.40659140297E+02  0.00000000000E+00 0.  1.
         11    1    3    3    0    0  0.67504571429E+01  0.16208873439E+01 -0.77389943452E+01  0.10396536979E+02  0.51100000000E-03 0. -1.
        -11    1    3    3    0    0 -0.91354689169E+01  0.11154712399E+02 -0.14330883022E+01  0.14489242332E+02  0.51100000000E-03 0.  1.
         12    1    3    3    0    0  0.40906550194E+01  0.15402299469E+02 -0.20089880152E+02  0.25643080391E+02  0.00000000000E+00 0. -1.
</event>
<event>
 7    1  0.5992960E-013  0.5052886E+02  0.7816164E-02  0.1300439E+00
        -11   -1    0    0    0    0  0.00000000000E+00  0.00000000000E+00  0.45593999997E+02  0.45594000000E+02  0.51100000000E-03 0.  1.
         11   -1    0    0    0    0 -0.00000000000E+00 -0.00000000000E+00 -0.45593999997E+02  0.45594000000E+02  0.51100000000E-03 0. -1.
    9900012    2    1    2    0    0 -0.50709797600E+01  0.37463497606E+02 -0.14964542438E+02  0.50528855653E+02  0.29999987243E+02 0.  0.
        -12    1    1    2    0    0  0.50709797600E+01 -0.37463497606E+02  0.14964542438E+02  0.40659144347E+02  0.00000000000E+00 0.  1.
         11    1    3    3    0    0 -0.31613889073E+01  0.93249217670E+01 -0.10875125171E+02  0.14670272442E+02  0.51100000000E-03 0. -1.
        -11    1    3    3    0    0 -0.91912867794E+01  0.26529068435E+02 -0.42695849264E+01  0.28398953861E+02  0.51100000000E-03 0.  1.
        -12    1    3    3    0    0  0.72816959268E+01  0.16095074045E+01  0.18016765919E+00  0.74596293501E+01  0.00000000000E+00 0.  1.
</event>
<event>
 7    1  0.5992960E-013  0.5052886E+02  0.7816164E-02  0.1300439E+00
        -11   -1    0    0    0    0  0.00000000000E+00  0.00000000000E+00  0.45593999997E+02  0.45594000000E+02  0.51100000000E-03 0.  1.
         11   -1    0    0    0    0 -0.00000000000E+00 -0.00000000000E+00 -0.45593999997E+02  0.45594000000E+02  0.51100000000E-03 0. -1.
    9900012    2    1    2    0    0 -0.14657044737E+02  0.34501422896E+02  0.15747648843E+02  0.50528860973E+02  0.30000003415E+02 0.  0.
        -12    1    1    2    0    0  0.14657044737E+02 -0.34501422896E+02 -0.15747648843E+02  0.40659139027E+02  0.00000000000E+00 0.  1.
         11    1    3    3    0    0 -0.32196177543E+01  0.39426476481E+01 -0.34419953209E+01  0.61447327859E+01  0.51100000000E-03 0. -1.
        -11    1    3    3    0    0 -0.20282698016E+01 -0.35088259696E+01 -0.22604125839E+00  0.40591665382E+01  0.51100000000E-03 0.  1.
        -12    1    3    3    0    0 -0.94091571814E+01  0.34067601218E+02  0.19415685422E+02  0.40324961649E+02  0.00000000000E+00 0.  1.
</event>
<event>
 7    1  0.5992960E-013  0.5052886E+02  0.7816164E-02  0.1300439E+00
        -11   -1    0    0    0    0  0.00000000000E+00  0.00000000000E+00  0.45593999997E+02  0.45594000000E+02  0.51100000000E-03 0.  1.
         11   -1    0    0    0    0 -0.00000000000E+00 -0.00000000000E+00 -0.45593999997E+02  0.45594000000E+02  0.51100000000E-03 0. -1.
    9900012    2    1    2    0    0 -0.48090566330E+01  0.17260302186E+02 -0.36498227863E+02  0.50528859645E+02  0.29999999377E+02 0.  0.
        -12    1    1    2    0    0  0.48090566330E+01 -0.17260302186E+02  0.36498227863E+02  0.40659140355E+02  0.00000000000E+00 0.  1.
         11    1    3    3    0    0  0.37017605406E+01  0.25135110539E+00 -0.37936078108E+01  0.53063800242E+01  0.51100000000E-03 0. -1.
        -11    1    3    3    0    0  0.87861732909E+01  0.67903213557E+01 -0.12727545785E+02  0.16890699429E+02  0.51100000000E-03 0.  1.
        -12    1    3    3    0    0 -0.17296990464E+02  0.10218629725E+02 -0.19977074267E+02  0.28331780192E+02  0.00000000000E+00 0.  1.
</event>
<event>
 7    1  0.5992960E-013  0.5052887E+02  0.7816164E-02  0.1300439E+00
        -11   -1    0    0    0    0  0.00000000000E+00  0.00000000000E+00  0.45593999997E+02  0.45594000000E+02  0.51100000000E-03 0. -1.
         11   -1    0    0    0    0 -0.00000000000E+00 -0.00000000000E+00 -0.45593999997E+02  0.45594000000E+02  0.51100000000E-03 0.  1.
    9900012    2    1    2    0    0 -0.33423372763E+02  0.14036292626E+02  0.18412655847E+02  0.50528865074E+02  0.30000015880E+02 0.  0.
        -12    1    1    2    0    0  0.33423372763E+02 -0.14036292626E+02 -0.18412655847E+02  0.40659134926E+02  0.00000000000E+00 0.  1.
         11    1    3    3    0    0 -0.24430652144E+02  0.21849909755E+02  0.68407103897E+01  0.33482392976E+02  0.51100000000E-03 0. -1.
        -11    1    3    3    0    0 -0.18222962704E+01 -0.23355218702E+01  0.52520049433E+01  0.60298409837E+01  0.51100000000E-03 0.  1.
        -12    1    3    3    0    0 -0.71704243487E+01 -0.54780952595E+01  0.63199405138E+01  0.11016631114E+02  0.00000000000E+00 0.  1.
</event>
<event>
 7    1  0.5992960E-013  0.5052886E+02  0.7816164E-02  0.1300439E+00
        -11   -1    0    0    0    0  0.00000000000E+00  0.00000000000E+00  0.45593999997E+02  0.45594000000E+02  0.51100000000E-03 0.  1.
         11   -1    0    0    0    0 -0.00000000000E+00 -0.00000000000E+00 -0.45593999997E+02  0.45594000000E+02  0.51100000000E-03 0. -1.
    9900012    2    1    2    0    0  0.16584207399E+02  0.33807819150E+01 -0.36968903578E+02  0.50528862612E+02  0.30000008394E+02 0.  0.
        -12    1    1    2    0    0 -0.16584207399E+02 -0.33807819150E+01  0.36968903578E+02  0.40659137388E+02  0.00000000000E+00 0.  1.
         11    1    3    3    0    0 -0.34624041132E+01 -0.11326230618E+01 -0.17647673755E+02  0.18019752120E+02  0.51100000000E-03 0. -1.
        -11    1    3    3    0    0  0.60670415850E+01  0.10418063152E+00 -0.16501695593E+02  0.17581973863E+02  0.51100000000E-03 0.  1.
        -12    1    3    3    0    0  0.13979569927E+02  0.44092243452E+01 -0.28195342302E+01  0.14927136629E+02  0.00000000000E+00 0.  1.
</event>
<event>
 7    1  0.5992960E-013  0.5052886E+02  0.7816164E-02  0.1300439E+00
        -11   -1    0    0    0    0  0.00000000000E+00  0.00000000000E+00  0.45593999997E+02  0.45594000000E+02  0.51100000000E-03 0. -1.
         11   -1    0    0    0    0 -0.00000000000E+00 -0.00000000000E+00 -0.45593999997E+02  0.45594000000E+02  0.51100000000E-03 0.  1.
    9900012    2    1    2    0    0 -0.82154256875E+01  0.27927093190E+02  0.28385734092E+02  0.50528860151E+02  0.30000000916E+02 0.  0.
        -12    1    1    2    0    0  0.82154256875E+01 -0.27927093190E+02 -0.28385734092E+02  0.40659139849E+02  0.00000000000E+00 0.  1.
         11    1    3    3    0    0  0.12155292534E+00  0.57802669120E+01  0.14613459378E+02  0.15715580038E+02  0.51100000000E-03 0. -1.
        -11    1    3    3    0    0  0.38644891659E+01  0.16203832573E+02  0.13157058809E+02  0.21227497811E+02  0.51100000000E-03 0.  1.
         12    1    3    3    0    0 -0.12201467779E+02  0.59429937056E+01  0.61521590509E+00  0.13585782302E+02  0.00000000000E+00 0. -1.
</event>
<event>
 7    1  0.5992960E-013  0.5052887E+02  0.7816164E-02  0.1300439E+00
        -11   -1    0    0    0    0  0.00000000000E+00  0.00000000000E+00  0.45593999997E+02  0.45594000000E+02  0.51100000000E-03 0.  1.
         11   -1    0    0    0    0 -0.00000000000E+00 -0.00000000000E+00 -0.45593999997E+02  0.45594000000E+02  0.51100000000E-03 0. -1.
    9900012    2    1    2    0    0  0.14760342226E+02  0.16021141460E+02 -0.34331033399E+02  0.50528873958E+02  0.30000042881E+02 0.  0.
        -12    1    1    2    0    0 -0.14760342226E+02 -0.16021141460E+02  0.34331033399E+02  0.40659126042E+02  0.00000000000E+00 0.  1.
         11    1    3    3    0    0  0.14595663042E+02  0.12465947007E+02 -0.88931845449E+01  0.21154714511E+02  0.51100000000E-03 0. -1.
        -11    1    3    3    0    0  0.37310389996E+01  0.79750759764E+01 -0.17774981968E+02  0.19836140579E+02  0.51100000000E-03 0.  1.
        -12    1    3    3    0    0 -0.35663598162E+01 -0.44198815229E+01 -0.76628668862E+01  0.95380188683E+01  0.00000000000E+00 0.  1.
</event>
<event>
 7    1  0.5992960E-013  0.5052886E+02  0.7816164E-02  0.1300439E+00
        -11   -1    0    0    0    0  0.00000000000E+00  0.00000000000E+00  0.45593999997E+02  0.45594000000E+02  0.51100000000E-03 0.  1.
         11   -1    0    0    0    0 -0.00000000000E+00 -0.00000000000E+00 -0.45593999997E+02  0.45594000000E+02  0.51100000000E-03 0. -1.
    9900012    2    1    2    0    0  0.28024471281E+02 -0.22295745170E+02 -0.19253429848E+02  0.50528858295E+02  0.29999995272E+02 0.  0.
        -12    1    1    2    0    0 -0.28024471281E+02  0.22295745170E+02  0.19253429848E+02  0.40659141705E+02  0.00000000000E+00 0.  1.
         11    1    3    3    0    0  0.15201205589E+02 -0.39951445864E+01 -0.67461658573E+01  0.17104051732E+02  0.51100000000E-03 0. -1.
        -11    1    3    3    0    0 -0.10047221334E+01  0.43781385550E+00 -0.99346460386E+01  0.99949156930E+01  0.51100000000E-03 0.  1.
        -12    1    3    3    0    0  0.13827987826E+02 -0.18738414439E+02 -0.25726179526E+01  0.23429890869E+02  0.00000000000E+00 0.  1.
</event>
<event>
 7    1  0.5992960E-013  0.5052885E+02  0.7816164E-02  0.1300439E+00
        -11   -1    0    0    0    0  0.00000000000E+00  0.00000000000E+00  0.45593999997E+02  0.45594000000E+02  0.51100000000E-03 0.  1.
         11   -1    0    0    0    0 -0.00000000000E+00 -0.00000000000E+00 -0.45593999997E+02  0.45594000000E+02  0.51100000000E-03 0. -1.
    9900012    2    1    2    0    0 -0.16604028806E+02 -0.75883353538E+01 -0.36330289550E+02  0.50528849187E+02  0.29999967589E+02 0.  0.
        -12    1    1    2    0    0  0.16604028806E+02  0.75883353538E+01  0.36330289550E+02  0.40659150813E+02  0.00000000000E+00 0.  1.
         11    1    3    3    0    0 -0.11306496748E+02 -0.11667690302E+02 -0.36380397071E+02  0.39843508342E+02  0.51100000000E-03 0. -1.
        -11    1    3    3    0    0 -0.69882209025E+01  0.19331946056E+01 -0.16914461389E+01  0.74453652071E+01  0.51100000000E-03 0.  1.
        -12    1    3    3    0    0  0.16906888442E+01  0.21461603429E+01  0.17415536599E+01  0.32399756381E+01  0.00000000000E+00 0.  1.
</event>
<event>
 7    1  0.5992960E-013  0.5052886E+02  0.7816164E-02  0.1300439E+00
        -11   -1    0    0    0    0  0.00000000000E+00  0.00000000000E+00  0.45593999997E+02  0.45594000000E+02  0.51100000000E-03 0. -1.
         11   -1    0    0    0    0 -0.00000000000E+00 -0.00000000000E+00 -0.45593999997E+02  0.45594000000E+02  0.51100000000E-03 0.  1.
    9900012    2    1    2    0    0 -0.14313244464E+02  0.37528589479E+02  0.63167585772E+01  0.50528862844E+02  0.30000009101E+02 0.  0.
        -12    1    1    2    0    0  0.14313244464E+02 -0.37528589479E+02 -0.63167585772E+01  0.40659137156E+02  0.00000000000E+00 0.  1.
         11    1    3    3    0    0 -0.23807480769E+01  0.15964569924E+02  0.73109227006E+01  0.17719623169E+02  0.51100000000E-03 0. -1.
        -11    1    3    3    0    0 -0.15612359397E+02  0.10564987260E+02  0.53415520096E+01  0.19593287113E+02  0.51100000000E-03 0.  1.
        -12    1    3    3    0    0  0.36798630106E+01  0.10999032295E+02 -0.63357161330E+01  0.13215952562E+02  0.00000000000E+00 0.  1.
</event>
<event>
 7    1  0.5992960E-013  0.5052886E+02  0.7816164E-02  0.1300439E+00
        -11   -1    0    0    0    0  0.00000000000E+00  0.00000000000E+00  0.45593999997E+02  0.45594000000E+02  0.51100000000E-03 0.  1.
         11   -1    0    0    0    0 -0.00000000000E+00 -0.00000000000E+00 -0.45593999997E+02  0.45594000000E+02  0.51100000000E-03 0. -1.
    9900012    2    1    2    0    0 -0.13646409765E+02 -0.41437042790E+01 -0.38075858123E+02  0.50528858883E+02  0.29999997060E+02 0.  0.
        -12    1    1    2    0    0  0.13646409765E+02  0.41437042790E+01  0.38075858123E+02  0.40659141117E+02  0.00000000000E+00 0.  1.
         11    1    3    3    0    0  0.16661290381E+01  0.92093465037E+01 -0.19881569605E+02  0.21974186202E+02  0.51100000000E-03 0. -1.
        -11    1    3    3    0    0 -0.78378772079E+01 -0.18186599929E+01 -0.48330371787E+01  0.93860583808E+01  0.51100000000E-03 0.  1.
        -12    1    3    3    0    0 -0.74746615952E+01 -0.11534390790E+02 -0.13361251339E+02  0.19168614300E+02  0.00000000000E+00 0.  1.
</event>
<event>
 7    1  0.5992960E-013  0.5052886E+02  0.7816164E-02  0.1300439E+00
        -11   -1    0    0    0    0  0.00000000000E+00  0.00000000000E+00  0.45593999997E+02  0.45594000000E+02  0.51100000000E-03 0.  1.
         11   -1    0    0    0    0 -0.00000000000E+00 -0.00000000000E+00 -0.45593999997E+02  0.45594000000E+02  0.51100000000E-03 0. -1.
    9900012    2    1    2    0    0  0.15220416988E+02 -0.75917379901E+01 -0.36930610999E+02  0.50528860711E+02  0.30000002616E+02 0.  0.
        -12    1    1    2    0    0 -0.15220416988E+02  0.75917379901E+01  0.36930610999E+02  0.40659139289E+02  0.00000000000E+00 0.  1.
         11    1    3    3    0    0  0.57727218399E+01 -0.67988321341E+01 -0.80208314521E+01  0.11995089548E+02  0.51100000000E-03 0. -1.
        -11    1    3    3    0    0 -0.54333828221E+01 -0.72359578759E+01 -0.12803321761E+02  0.15678194528E+02  0.51100000000E-03 0.  1.
         12    1    3    3    0    0  0.14881077970E+02  0.64430520199E+01 -0.16106457786E+02  0.22855576635E+02  0.00000000000E+00 0. -1.
</event>
<event>
 7    1  0.5992960E-013  0.5052887E+02  0.7816164E-02  0.1300439E+00
        -11   -1    0    0    0    0  0.00000000000E+00  0.00000000000E+00  0.45593999997E+02  0.45594000000E+02  0.51100000000E-03 0.  1.
         11   -1    0    0    0    0 -0.00000000000E+00 -0.00000000000E+00 -0.45593999997E+02  0.45594000000E+02  0.51100000000E-03 0. -1.
    9900012    2    1    2    0    0  0.21354718867E+02  0.39028676775E+01 -0.34378899491E+02  0.50528866657E+02  0.30000020690E+02 0.  0.
        -12    1    1    2    0    0 -0.21354718867E+02 -0.39028676775E+01  0.34378899491E+02  0.40659133343E+02  0.00000000000E+00 0.  1.
         11    1    3    3    0    0  0.58517168800E-01 -0.24772493397E+01  0.31609408406E+00  0.24980200722E+01  0.51100000000E-03 0. -1.
        -11    1    3    3    0    0  0.10796371251E+02  0.47914819639E+01 -0.67967354661E-01  0.11812051110E+02  0.51100000000E-03 0.  1.
         12    1    3    3    0    0  0.10499830447E+02  0.15886350533E+01 -0.34627026221E+02  0.36218795475E+02  0.00000000000E+00 0. -1.
</event>
<event>
 7    1  0.5992960E-013  0.5052889E+02  0.7816164E-02  0.1300439E+00
        -11   -1    0    0    0    0  0.00000000000E+00  0.00000000000E+00  0.45593999997E+02  0.45594000000E+02  0.51100000000E-03 0.  1.
         11   -1    0    0    0    0 -0.00000000000E+00 -0.00000000000E+00 -0.45593999997E+02  0.45594000000E+02  0.51100000000E-03 0. -1.
    9900012    2    1    2    0    0 -0.29478048404E+01  0.21292753526E+01 -0.40496170335E+02  0.50528890582E+02  0.30000093413E+02 0.  0.
        -12    1    1    2    0    0  0.29478048404E+01 -0.21292753526E+01  0.40496170335E+02  0.40659109418E+02  0.00000000000E+00 0.  1.
         11    1    3    3    0    0  0.34914069984E+01  0.23993349446E+01  0.67319996924E+00  0.42895138961E+01  0.51100000000E-03 0. -1.
        -11    1    3    3    0    0 -0.48584115287E+01 -0.91595709080E+01 -0.12826234980E+02  0.16492853174E+02  0.51100000000E-03 0.  1.
         12    1    3    3    0    0 -0.15808003101E+01  0.88895113160E+01 -0.28343135323E+02  0.29746523511E+02  0.00000000000E+00 0. -1.
</event>
<event>
 7    1  0.5992960E-013  0.5052889E+02  0.7816164E-02  0.1300439E+00
        -11   -1    0    0    0    0  0.00000000000E+00  0.00000000000E+00  0.45593999997E+02  0.45594000000E+02  0.51100000000E-03 0. -1.
         11   -1    0    0    0    0 -0.00000000000E+00 -0.00000000000E+00 -0.45593999997E+02  0.45594000000E+02  0.51100000000E-03 0.  1.
    9900012    2    1    2    0    0 -0.11098744873E+01 -0.38482135770E+02 -0.13078874382E+02  0.50528886017E+02  0.30000079537E+02 0.  0.
        -12    1    1    2    0    0  0.11098744873E+01  0.38482135770E+02  0.13078874382E+02  0.40659113983E+02  0.00000000000E+00 0.  1.
         11    1    3    3    0    0  0.10478953684E+01 -0.16036700757E+02  0.67005935082E+01  0.17411829585E+02  0.51100000000E-03 0. -1.
        -11    1    3    3    0    0 -0.71324864007E+01 -0.58943506499E+01 -0.62039465082E+01  0.11140228201E+02  0.51100000000E-03 0.  1.
        -12    1    3    3    0    0  0.49747165450E+01 -0.16551084363E+02 -0.13575521382E+02  0.21976828230E+02  0.00000000000E+00 0.  1.
</event>
<event>
 7    1  0.5992960E-013  0.5052883E+02  0.7816164E-02  0.1300439E+00
        -11   -1    0    0    0    0  0.00000000000E+00  0.00000000000E+00  0.45593999997E+02  0.45594000000E+02  0.51100000000E-03 0.  1.
         11   -1    0    0    0    0 -0.00000000000E+00 -0.00000000000E+00 -0.45593999997E+02  0.45594000000E+02  0.51100000000E-03 0. -1.
    9900012    2    1    2    0    0 -0.18436739621E+02 -0.33525981682E+02 -0.13757293629E+02  0.50528831986E+02  0.29999915304E+02 0.  0.
        -12    1    1    2    0    0  0.18436739621E+02  0.33525981682E+02  0.13757293629E+02  0.40659168014E+02  0.00000000000E+00 0.  1.
         11    1    3    3    0    0  0.30601480763E+01 -0.10363281732E+02 -0.19287338152E+01  0.10976435163E+02  0.51100000000E-03 0. -1.
        -11    1    3    3    0    0 -0.41143656133E+01 -0.15809940349E+01  0.53627141609E+01  0.69416316505E+01  0.51100000000E-03 0.  1.
        -12    1    3    3    0    0 -0.17382522084E+02 -0.21581705916E+02 -0.17191273975E+02  0.32610765172E+02  0.00000000000E+00 0.  1.
</event>
<event>
 7    1  0.5992960E-013  0.5052886E+02  0.7816164E-02  0.1300439E+00
        -11   -1    0    0    0    0  0.00000000000E+00  0.00000000000E+00  0.45593999997E+02  0.45594000000E+02  0.51100000000E-03 0.  1.
         11   -1    0    0    0    0 -0.00000000000E+00 -0.00000000000E+00 -0.45593999997E+02  0.45594000000E+02  0.51100000000E-03 0. -1.
    9900012    2    1    2    0    0  0.24431163862E+02 -0.23395849205E+02 -0.22559216559E+02  0.50528858600E+02  0.29999996200E+02 0.  0.
        -12    1    1    2    0    0 -0.24431163862E+02  0.23395849205E+02  0.22559216559E+02  0.40659141400E+02  0.00000000000E+00 0.  1.
         11    1    3    3    0    0  0.53633235501E+01 -0.53569645835E+01 -0.10582060792E+02  0.13017001188E+02  0.51100000000E-03 0. -1.
        -11    1    3    3    0    0 -0.26279054297E+01 -0.28555208652E+01 -0.10266795844E+02  0.10975745238E+02  0.51100000000E-03 0.  1.
         12    1    3    3    0    0  0.21695745741E+02 -0.15183363756E+02 -0.17103599219E+01  0.26536112174E+02  0.00000000000E+00 0. -1.
</event>
<event>
 7    1  0.5992960E-013  0.5052885E+02  0.7816164E-02  0.1300439E+00
        -11   -1    0    0    0    0  0.00000000000E+00  0.00000000000E+00  0.45593999997E+02  0.45594000000E+02  0.51100000000E-03 0.  1.
         11   -1    0    0    0    0 -0.00000000000E+00 -0.00000000000E+00 -0.45593999997E+02  0.45594000000E+02  0.51100000000E-03 0. -1.
    9900012    2    1    2    0    0 -0.72321747949E+01  0.43147751240E+01 -0.39777441854E+02  0.50528849528E+02  0.29999968627E+02 0.  0.
        -12    1    1    2    0    0  0.72321747949E+01 -0.43147751240E+01  0.39777441854E+02  0.40659150472E+02  0.00000000000E+00 0.  1.
         11    1    3    3    0    0 -0.13154682898E+02  0.89822279144E+01 -0.31055733014E+02  0.34902502113E+02  0.51100000000E-03 0. -1.
        -11    1    3    3    0    0 -0.24404721935E+01 -0.17842860228E+01 -0.53779887928E+01  0.61694687660E+01  0.51100000000E-03 0.  1.
        -12    1    3    3    0    0  0.83629802961E+01 -0.28831667676E+01 -0.33437200475E+01  0.94568786499E+01  0.00000000000E+00 0.  1.
</event>
<event>
 7    1  0.5992960E-013  0.5052886E+02  0.7816164E-02  0.1300439E+00
        -11   -1    0    0    0    0  0.00000000000E+00  0.00000000000E+00  0.45593999997E+02  0.45594000000E+02  0.51100000000E-03 0.  1.
         11   -1    0    0    0    0 -0.00000000000E+00 -0.00000000000E+00 -0.45593999997E+02  0.45594000000E+02  0.51100000000E-03 0. -1.
    9900012    2    1    2    0    0  0.21437131240E+02  0.99201383235E+01 -0.33093890560E+02  0.50528864095E+02  0.30000012902E+02 0.  0.
        -12    1    1    2    0    0 -0.21437131240E+02 -0.99201383235E+01  0.33093890560E+02  0.40659135905E+02  0.00000000000E+00 0.  1.
         11    1    3    3    0    0  0.38848899062E+01  0.10697531278E+02 -0.86799540682E+01  0.14313320646E+02  0.51100000000E-03 0. -1.
        -11    1    3    3    0    0  0.12194538768E+02  0.66202116790E+01 -0.49802353602E+01  0.14742344554E+02  0.51100000000E-03 0.  1.
         12    1    3    3    0    0  0.53577025658E+01 -0.73976046334E+01 -0.19433701132E+02  0.21473198895E+02  0.00000000000E+00 0. -1.
</event>
<event>
 7    1  0.5992960E-013  0.5052886E+02  0.7816164E-02  0.1300439E+00
        -11   -1    0    0    0    0  0.00000000000E+00  0.00000000000E+00  0.45593999997E+02  0.45594000000E+02  0.51100000000E-03 0. -1.
         11   -1    0    0    0    0 -0.00000000000E+00 -0.00000000000E+00 -0.45593999997E+02  0.45594000000E+02  0.51100000000E-03 0.  1.
    9900012    2    1    2    0    0 -0.85570480200E+01  0.23567889129E+02  0.32007771844E+02  0.50528856782E+02  0.29999990674E+02 0.  0.
        -12    1    1    2    0    0  0.85570480200E+01 -0.23567889129E+02 -0.32007771844E+02  0.40659143218E+02  0.00000000000E+00 0.  1.
         11    1    3    3    0    0 -0.55777726870E+01  0.25437662917E+01 -0.10426503971E+01  0.62184737039E+01  0.51100000000E-03 0. -1.
        -11    1    3    3    0    0 -0.10610279702E+02  0.64628589183E+01  0.18909929566E+02  0.22625914726E+02  0.51100000000E-03 0.  1.
         12    1    3    3    0    0  0.76310043689E+01  0.14561263919E+02  0.14140492675E+02  0.21684468352E+02  0.00000000000E+00 0. -1.
</event>
<event>
 7    1  0.5992960E-013  0.5052887E+02  0.7816164E-02  0.1300439E+00
        -11   -1    0    0    0    0  0.00000000000E+00  0.00000000000E+00  0.45593999997E+02  0.45594000000E+02  0.51100000000E-03 0. -1.
         11   -1    0    0    0    0 -0.00000000000E+00 -0.00000000000E+00 -0.45593999997E+02  0.45594000000E+02  0.51100000000E-03 0.  1.
    9900012    2    1    2    0    0 -0.38270922661E+02 -0.16830255801E+01  0.13626041500E+02  0.50528866913E+02  0.30000021469E+02 0.  0.
        -12    1    1    2    0    0  0.38270922661E+02  0.16830255801E+01 -0.13626041500E+02  0.40659133087E+02  0.00000000000E+00 0.  1.
         11    1    3    3    0    0 -0.43764117803E+01 -0.42235099778E+01  0.11825601745E+02  0.13297965013E+02  0.51100000000E-03 0. -1.
        -11    1    3    3    0    0 -0.11472117191E+02 -0.25279666574E+01 -0.56905511739E+01  0.13053063287E+02  0.51100000000E-03 0.  1.
         12    1    3    3    0    0 -0.22422393690E+02  0.50684510552E+01  0.74909909289E+01  0.24177838613E+02  0.00000000000E+00 0. -1.
</event>
<event>
 7    1  0.5992960E-013  0.5052887E+02  0.7816164E-02  0.1300439E+00
        -11   -1    0    0    0    0  0.00000000000E+00  0.00000000000E+00  0.45593999997E+02  0.45594000000E+02  0.51100000000E-03 0.  1.
         11   -1    0    0    0    0 -0.00000000000E+00 -0.00000000000E+00 -0.45593999997E+02  0.45594000000E+02  0.51100000000E-03 0. -1.
    9900012    2    1    2    0    0  0.22385370666E+02  0.24233577996E+02 -0.23765394600E+02  0.50528866920E+02  0.30000021490E+02 0.  0.
        -12    1    1    2    0    0 -0.22385370666E+02 -0.24233577996E+02  0.23765394600E+02  0.40659133080E+02  0.00000000000E+00 0.  1.
         11    1    3    3    0    0  0.47915244022E+00  0.19002618479E+01  0.21429869326E+01  0.29039585751E+01  0.51100000000E-03 0. -1.
        -11    1    3    3    0    0 -0.36679618932E+01 -0.82187025647E+00  0.98041613039E+00  0.38846661656E+01  0.51100000000E-03 0.  1.
         12    1    3    3    0    0  0.25574180119E+02  0.23155186405E+02 -0.26888797663E+02  0.43740242179E+02  0.00000000000E+00 0. -1.
</event>
<event>
 7    1  0.5992960E-013  0.5052886E+02  0.7816164E-02  0.1300439E+00
        -11   -1    0    0    0    0  0.00000000000E+00  0.00000000000E+00  0.45593999997E+02  0.45594000000E+02  0.51100000000E-03 0.  1.
         11   -1    0    0    0    0 -0.00000000000E+00 -0.00000000000E+00 -0.45593999997E+02  0.45594000000E+02  0.51100000000E-03 0. -1.
    9900012    2    1    2    0    0  0.33930529092E+02  0.15808261898E+02 -0.15873985088E+02  0.50528863865E+02  0.30000012204E+02 0.  0.
        -12    1    1    2    0    0 -0.33930529092E+02 -0.15808261898E+02  0.15873985088E+02  0.40659136135E+02  0.00000000000E+00 0.  1.
         11    1    3    3    0    0  0.93107271136E+00 -0.15397531030E+01 -0.12445574753E+00  0.18036700104E+01  0.51100000000E-03 0. -1.
        -11    1    3    3    0    0  0.13553117114E+02 -0.29937231592E+01 -0.15192445258E+02  0.20578137793E+02  0.51100000000E-03 0.  1.
         12    1    3    3    0    0  0.19446339266E+02  0.20341738161E+02 -0.55708408245E+00  0.28147056062E+02  0.00000000000E+00 0. -1.
</event>
<event>
 7    1  0.5992960E-013  0.5052886E+02  0.7816164E-02  0.1300439E+00
        -11   -1    0    0    0    0  0.00000000000E+00  0.00000000000E+00  0.45593999997E+02  0.45594000000E+02  0.51100000000E-03 0.  1.
         11   -1    0    0    0    0 -0.00000000000E+00 -0.00000000000E+00 -0.45593999997E+02  0.45594000000E+02  0.51100000000E-03 0. -1.
    9900012    2    1    2    0    0 -0.16650705408E+02 -0.11051348528E+02 -0.35408857890E+02  0.50528861889E+02  0.30000006197E+02 0.  0.
        -12    1    1    2    0    0  0.16650705408E+02  0.11051348528E+02  0.35408857890E+02  0.40659138111E+02  0.00000000000E+00 0.  1.
         11    1    3    3    0    0 -0.91664538566E+01 -0.76760105314E+01 -0.21189435215E+02  0.24329759123E+02  0.51100000000E-03 0. -1.
        -11    1    3    3    0    0 -0.33600345469E+01 -0.97807820705E+01 -0.31764417094E+00  0.10346710982E+02  0.51100000000E-03 0.  1.
        -12    1    3    3    0    0 -0.41242170043E+01  0.64054440737E+01 -0.13901778504E+02  0.15852391783E+02  0.00000000000E+00 0.  1.
</event>
<event>
 7    1  0.5992960E-013  0.5052884E+02  0.7816164E-02  0.1300439E+00
        -11   -1    0    0    0    0  0.00000000000E+00  0.00000000000E+00  0.45593999997E+02  0.45594000000E+02  0.51100000000E-03 0.  1.
         11   -1    0    0    0    0 -0.00000000000E+00 -0.00000000000E+00 -0.45593999997E+02  0.45594000000E+02  0.51100000000E-03 0. -1.
    9900012    2    1    2    0    0  0.36472594654E+02 -0.14620819631E+02  0.10447426486E+02  0.50528840544E+02  0.29999941317E+02 0.  0.
        -12    1    1    2    0    0 -0.36472594654E+02  0.14620819631E+02 -0.10447426486E+02  0.40659159456E+02  0.00000000000E+00 0.  1.
         11    1    3    3    0    0  0.14575684648E+01 -0.42745031486E+01  0.92011579462E+01  0.10249741012E+02  0.51100000000E-03 0.  1.
        -11    1    3    3    0    0 -0.99256012968E+00 -0.66625689550E+00 -0.25340764312E+01  0.28018953375E+01  0.51100000000E-03 0. -1.
        -12    1    3    3    0    0  0.36007586319E+02 -0.96800595870E+01  0.37803449713E+01  0.37477204195E+02  0.00000000000E+00 0.  1.
</event>
<event>
 7    1  0.5992960E-013  0.5052886E+02  0.7816164E-02  0.1300439E+00
        -11   -1    0    0    0    0  0.00000000000E+00  0.00000000000E+00  0.45593999997E+02  0.45594000000E+02  0.51100000000E-03 0.  1.
         11   -1    0    0    0    0 -0.00000000000E+00 -0.00000000000E+00 -0.45593999997E+02  0.45594000000E+02  0.51100000000E-03 0. -1.
    9900012    2    1    2    0    0  0.79962225957E+01 -0.34998275264E+02 -0.19087866301E+02  0.50528862194E+02  0.30000007124E+02 0.  0.
        -12    1    1    2    0    0 -0.79962225957E+01  0.34998275264E+02  0.19087866301E+02  0.40659137806E+02  0.00000000000E+00 0.  1.
         11    1    3    3    0    0 -0.15588639425E+01 -0.19309173009E+01  0.16321104038E-01  0.24816859297E+01  0.51100000000E-03 0. -1.
        -11    1    3    3    0    0  0.71673289607E+01  0.19670399773E+01 -0.86582478543E+01  0.11410745237E+02  0.51100000000E-03 0.  1.
        -12    1    3    3    0    0  0.23877575775E+01 -0.35034397940E+02 -0.10445939550E+02  0.36636431027E+02  0.00000000000E+00 0.  1.
</event>
<event>
 7    1  0.5992960E-013  0.5052886E+02  0.7816164E-02  0.1300439E+00
        -11   -1    0    0    0    0  0.00000000000E+00  0.00000000000E+00  0.45593999997E+02  0.45594000000E+02  0.51100000000E-03 0. -1.
         11   -1    0    0    0    0 -0.00000000000E+00 -0.00000000000E+00 -0.45593999997E+02  0.45594000000E+02  0.51100000000E-03 0.  1.
    9900012    2    1    2    0    0 -0.17501518187E+02 -0.34466246225E+02 -0.12607154157E+02  0.50528860761E+02  0.30000002770E+02 0.  0.
        -12    1    1    2    0    0  0.17501518187E+02  0.34466246225E+02  0.12607154157E+02  0.40659139239E+02  0.00000000000E+00 0.  1.
         11    1    3    3    0    0 -0.35900074295E+01 -0.10012034747E+02  0.39459816766E+01  0.11344591873E+02  0.51100000000E-03 0. -1.
        -11    1    3    3    0    0 -0.14524465018E+02 -0.22832920629E+02 -0.50214307083E+01  0.27523028814E+02  0.51100000000E-03 0.  1.
        -12    1    3    3    0    0  0.61295425983E+00 -0.16212908486E+01 -0.11531705126E+02  0.11661240073E+02  0.00000000000E+00 0.  1.
</event>
<event>
 7    1  0.5992960E-013  0.5052886E+02  0.7816164E-02  0.1300439E+00
        -11   -1    0    0    0    0  0.00000000000E+00  0.00000000000E+00  0.45593999997E+02  0.45594000000E+02  0.51100000000E-03 0.  1.
         11   -1    0    0    0    0 -0.00000000000E+00 -0.00000000000E+00 -0.45593999997E+02  0.45594000000E+02  0.51100000000E-03 0. -1.
    9900012    2    1    2    0    0  0.85441833538E+01 -0.10562955822E+01 -0.39737225207E+02  0.50528857158E+02  0.29999991816E+02 0.  0.
        -12    1    1    2    0    0 -0.85441833538E+01  0.10562955822E+01  0.39737225207E+02  0.40659142842E+02  0.00000000000E+00 0.  1.
         11    1    3    3    0    0 -0.43985061455E+01 -0.16812993739E+01 -0.20127457506E+02  0.20670949901E+02  0.51100000000E-03 0. -1.
        -11    1    3    3    0    0  0.18107851269E+01 -0.76332563404E+01 -0.34558737399E+01  0.85725497200E+01  0.51100000000E-03 0.  1.
        -12    1    3    3    0    0  0.11131904372E+02  0.82582601320E+01 -0.16153893961E+02  0.21285357537E+02  0.00000000000E+00 0.  1.
</event>
<event>
 7    1  0.5992960E-013  0.5052886E+02  0.7816164E-02  0.1300439E+00
        -11   -1    0    0    0    0  0.00000000000E+00  0.00000000000E+00  0.45593999997E+02  0.45594000000E+02  0.51100000000E-03 0.  1.
         11   -1    0    0    0    0 -0.00000000000E+00 -0.00000000000E+00 -0.45593999997E+02  0.45594000000E+02  0.51100000000E-03 0. -1.
    9900012    2    1    2    0    0  0.20750177971E+02 -0.27146242143E+02 -0.22038087870E+02  0.50528860003E+02  0.30000000465E+02 0.  0.
        -12    1    1    2    0    0 -0.20750177971E+02  0.27146242143E+02  0.22038087870E+02  0.40659139997E+02  0.00000000000E+00 0.  1.
         11    1    3    3    0    0 -0.59207616829E+00 -0.21140762697E+00  0.88443409321E+00  0.10851134964E+01  0.51100000000E-03 0. -1.
        -11    1    3    3    0    0 -0.34405303771E+01  0.32555573784E+01 -0.28583787388E+01  0.55322899776E+01  0.51100000000E-03 0.  1.
         12    1    3    3    0    0  0.24782784517E+02 -0.30190391895E+02 -0.20064143224E+02  0.43911456529E+02  0.00000000000E+00 0. -1.
</event>
<event>
 7    1  0.6847688E-013  0.5052884E+02  0.7816164E-02  0.1300439E+00
        -11   -1    0    0    0    0  0.00000000000E+00  0.00000000000E+00  0.45593999997E+02  0.45594000000E+02  0.51100000000E-03 0.  1.
         11   -1    0    0    0    0 -0.00000000000E+00 -0.00000000000E+00 -0.45593999997E+02  0.45594000000E+02  0.51100000000E-03 0. -1.
    9900012    2    1    2    0    0  0.51921199544E+01 -0.34867003843E+02  0.20260824126E+02  0.50528842841E+02  0.29999948299E+02 0.  0.
        -12    1    1    2    0    0 -0.51921199544E+01  0.34867003843E+02 -0.20260824126E+02  0.40659157159E+02  0.00000000000E+00 0.  1.
         11    1    3    3    0    0 -0.20847826728E+01  0.71121439173E+00 -0.16285635370E+00  0.22087705080E+01  0.51100000000E-03 0.  1.
        -11    1    3    3    0    0  0.10375077149E+02 -0.51407642832E+01  0.80130596372E-01  0.11579123647E+02  0.51100000000E-03 0. -1.
         12    1    3    3    0    0 -0.30981745220E+01 -0.30437453952E+02  0.20343549883E+02  0.36740948685E+02  0.00000000000E+00 0. -1.
</event>
<event>
 7    1  0.5992960E-013  0.5052886E+02  0.7816164E-02  0.1300439E+00
        -11   -1    0    0    0    0  0.00000000000E+00  0.00000000000E+00  0.45593999997E+02  0.45594000000E+02  0.51100000000E-03 0. -1.
         11   -1    0    0    0    0 -0.00000000000E+00 -0.00000000000E+00 -0.45593999997E+02  0.45594000000E+02  0.51100000000E-03 0.  1.
    9900012    2    1    2    0    0 -0.24532455375E+01  0.25802009512E+02  0.31327362426E+02  0.50528859022E+02  0.29999997482E+02 0.  0.
        -12    1    1    2    0    0  0.24532455375E+01 -0.25802009512E+02 -0.31327362426E+02  0.40659140978E+02  0.00000000000E+00 0.  1.
         11    1    3    3    0    0 -0.28123150122E+01  0.80004045566E+01  0.23450305144E+02  0.24936567534E+02  0.51100000000E-03 0. -1.
        -11    1    3    3    0    0  0.61017109171E+01  0.17560315015E+02  0.56736731285E+01  0.19436720571E+02  0.51100000000E-03 0.  1.
         12    1    3    3    0    0 -0.57426414425E+01  0.24128994010E+00  0.22033841540E+01  0.61555709160E+01  0.00000000000E+00 0. -1.
</event>
<event>
 7    1  0.5992960E-013  0.5052886E+02  0.7816164E-02  0.1300439E+00
        -11   -1    0    0    0    0  0.00000000000E+00  0.00000000000E+00  0.45593999997E+02  0.45594000000E+02  0.51100000000E-03 0. -1.
         11   -1    0    0    0    0 -0.00000000000E+00 -0.00000000000E+00 -0.45593999997E+02  0.45594000000E+02  0.51100000000E-03 0.  1.
    9900012    2    1    2    0    0 -0.46008282954E+01  0.36025420772E+02 -0.18280236796E+02  0.50528860558E+02  0.30000002153E+02 0.  0.
        -12    1    1    2    0    0  0.46008282954E+01 -0.36025420772E+02  0.18280236796E+02  0.40659139442E+02  0.00000000000E+00 0.  1.
         11    1    3    3    0    0  0.52048174870E+00 -0.43533401247E+01 -0.18645319562E+01  0.47643416301E+01  0.51100000000E-03 0. -1.
        -11    1    3    3    0    0 -0.50343861308E+01  0.97339659708E+01  0.85934842647E-01  0.10959129632E+02  0.51100000000E-03 0.  1.
         12    1    3    3    0    0 -0.86923913244E-01  0.30644794926E+02 -0.16501639683E+02  0.34805389296E+02  0.00000000000E+00 0. -1.
</event>
<event>
 7    1  0.5992960E-013  0.5052886E+02  0.7816164E-02  0.1300439E+00
        -11   -1    0    0    0    0  0.00000000000E+00  0.00000000000E+00  0.45593999997E+02  0.45594000000E+02  0.51100000000E-03 0. -1.
         11   -1    0    0    0    0 -0.00000000000E+00 -0.00000000000E+00 -0.45593999997E+02  0.45594000000E+02  0.51100000000E-03 0.  1.
    9900012    2    1    2    0    0 -0.77039401999E+01  0.25142226066E+02  0.31011019050E+02  0.50528861683E+02  0.30000005571E+02 0.  0.
        -12    1    1    2    0    0  0.77039401999E+01 -0.25142226066E+02 -0.31011019050E+02  0.40659138317E+02  0.00000000000E+00 0.  1.
         11    1    3    3    0    0 -0.89847123817E+00  0.13437319630E+02  0.78188096774E+01  0.15572494805E+02  0.51100000000E-03 0. -1.
        -11    1    3    3    0    0  0.80811275289E+00  0.10008674855E+02 -0.45934987391E+00  0.10051747168E+02  0.51100000000E-03 0.  1.
        -12    1    3    3    0    0 -0.76135817146E+01  0.16962315813E+01  0.23651559246E+02  0.24904619710E+02  0.00000000000E+00 0.  1.
</event>
<event>
 7    1  0.5992960E-013  0.5052884E+02  0.7816164E-02  0.1300439E+00
        -11   -1    0    0    0    0  0.00000000000E+00  0.00000000000E+00  0.45593999997E+02  0.45594000000E+02  0.51100000000E-03 0. -1.
         11   -1    0    0    0    0 -0.00000000000E+00 -0.00000000000E+00 -0.45593999997E+02  0.45594000000E+02  0.51100000000E-03 0.  1.
    9900012    2    1    2    0    0  0.39485003367E+02  0.76142602700E+01 -0.60104142779E+01  0.50528837070E+02  0.29999930758E+02 0.  0.
        -12    1    1    2    0    0 -0.39485003367E+02 -0.76142602700E+01  0.60104142779E+01  0.40659162930E+02  0.00000000000E+00 0.  1.
         11    1    3    3    0    0  0.43727699862E+01  0.24379825078E+01 -0.42020490466E+01  0.65362139279E+01  0.51100000000E-03 0. -1.
        -11    1    3    3    0    0  0.16207306508E+02  0.81450000181E+01 -0.12540744835E+02  0.22051940749E+02  0.51100000000E-03 0.  1.
         12    1    3    3    0    0  0.18904926873E+02 -0.29687222558E+01  0.10732379604E+02  0.21940682393E+02  0.00000000000E+00 0. -1.
</event>
<event>
 7    1  0.5992960E-013  0.5052885E+02  0.7816164E-02  0.1300439E+00
        -11   -1    0    0    0    0  0.00000000000E+00  0.00000000000E+00  0.45593999997E+02  0.45594000000E+02  0.51100000000E-03 0.  1.
         11   -1    0    0    0    0 -0.00000000000E+00 -0.00000000000E+00 -0.45593999997E+02  0.45594000000E+02  0.51100000000E-03 0. -1.
    9900012    2    1    2    0    0  0.46240395264E+01 -0.39454525828E+02  0.86674557415E+01  0.50528854179E+02  0.29999982762E+02 0.  0.
        -12    1    1    2    0    0 -0.46240395264E+01  0.39454525828E+02 -0.86674557415E+01  0.40659145821E+02  0.00000000000E+00 0.  1.
         11    1    3    3    0    0 -0.25483440777E+01 -0.25718841266E+01 -0.58748066385E+01  0.69008694234E+01  0.51100000000E-03 0. -1.
        -11    1    3    3    0    0 -0.99918290404E+00  0.16279263325E-01 -0.21056850069E+01  0.23307812209E+01  0.51100000000E-03 0.  1.
        -12    1    3    3    0    0  0.81715665081E+01 -0.36898920965E+02  0.16647947387E+02  0.41297203535E+02  0.00000000000E+00 0.  1.
</event>
<event>
 7    1  0.6580420E-013  0.5052886E+02  0.7816164E-02  0.1300439E+00
        -11   -1    0    0    0    0  0.00000000000E+00  0.00000000000E+00  0.45593999997E+02  0.45594000000E+02  0.51100000000E-03 0. -1.
         11   -1    0    0    0    0 -0.00000000000E+00 -0.00000000000E+00 -0.45593999997E+02  0.45594000000E+02  0.51100000000E-03 0.  1.
    9900012    2    1    2    0    0 -0.37158049201E+02 -0.48603306911E+01  0.15774097504E+02  0.50528860967E+02  0.30000003395E+02 0.  0.
        -12    1    1    2    0    0  0.37158049201E+02  0.48603306911E+01 -0.15774097504E+02  0.40659139033E+02  0.00000000000E+00 0.  1.
         11    1    3    3    0    0 -0.10611990594E+02 -0.81526966708E+01  0.55694221820E+01  0.14494801519E+02  0.51100000000E-03 0. -1.
        -11    1    3    3    0    0  0.37627105490E+01  0.18060572585E+01  0.18088207531E+01  0.45488093250E+01  0.51100000000E-03 0.  1.
         12    1    3    3    0    0 -0.30308769156E+02  0.14863087213E+01  0.83958545688E+01  0.31485250123E+02  0.00000000000E+00 0. -1.
</event>
<event>
 7    1  0.5992960E-013  0.5052884E+02  0.7816164E-02  0.1300439E+00
        -11   -1    0    0    0    0  0.00000000000E+00  0.00000000000E+00  0.45593999997E+02  0.45594000000E+02  0.51100000000E-03 0.  1.
         11   -1    0    0    0    0 -0.00000000000E+00 -0.00000000000E+00 -0.45593999997E+02  0.45594000000E+02  0.51100000000E-03 0. -1.
    9900012    2    1    2    0    0  0.28275567039E+02 -0.35108615359E+01 -0.29005746375E+02  0.50528841587E+02  0.29999944487E+02 0.  0.
        -12    1    1    2    0    0 -0.28275567039E+02  0.35108615359E+01  0.29005746375E+02  0.40659158413E+02  0.00000000000E+00 0.  1.
         11    1    3    3    0    0  0.14352393615E+02 -0.14567969446E+00 -0.17366327372E+02  0.22530018902E+02  0.51100000000E-03 0. -1.
        -11    1    3    3    0    0  0.18471894705E+02 -0.42745201475E+01 -0.13202461000E+02  0.23103839361E+02  0.51100000000E-03 0.  1.
        -12    1    3    3    0    0 -0.45487212819E+01  0.90933830608E+00  0.15630419972E+01  0.48949833238E+01  0.00000000000E+00 0.  1.
</event>
<event>
 7    1  0.5992960E-013  0.5052886E+02  0.7816164E-02  0.1300439E+00
        -11   -1    0    0    0    0  0.00000000000E+00  0.00000000000E+00  0.45593999997E+02  0.45594000000E+02  0.51100000000E-03 0.  1.
         11   -1    0    0    0    0 -0.00000000000E+00 -0.00000000000E+00 -0.45593999997E+02  0.45594000000E+02  0.51100000000E-03 0. -1.
    9900012    2    1    2    0    0  0.34098031071E+02 -0.98334043128E+00 -0.22125166592E+02  0.50528859846E+02  0.29999999987E+02 0.  0.
        -12    1    1    2    0    0 -0.34098031071E+02  0.98334043128E+00  0.22125166592E+02  0.40659140154E+02  0.00000000000E+00 0.  1.
         11    1    3    3    0    0  0.94700218334E+01 -0.71180150815E+01 -0.86107198221E+00  0.11878084755E+02  0.51100000000E-03 0. -1.
        -11    1    3    3    0    0 -0.95061185227E+00  0.56761148136E+01 -0.79395095828E+01  0.98060060650E+01  0.51100000000E-03 0.  1.
        -12    1    3    3    0    0  0.25578621090E+02  0.45855983669E+00 -0.13324585028E+02  0.28844769026E+02  0.00000000000E+00 0.  1.
</event>
<event>
 7    1  0.5992960E-013  0.5052886E+02  0.7816164E-02  0.1300439E+00
        -11   -1    0    0    0    0  0.00000000000E+00  0.00000000000E+00  0.45593999997E+02  0.45594000000E+02  0.51100000000E-03 0.  1.
         11   -1    0    0    0    0 -0.00000000000E+00 -0.00000000000E+00 -0.45593999997E+02  0.45594000000E+02  0.51100000000E-03 0. -1.
    9900012    2    1    2    0    0 -0.98036131600E+01  0.40203933991E+01 -0.39254189210E+02  0.50528858781E+02  0.29999996752E+02 0.  0.
        -12    1    1    2    0    0  0.98036131600E+01 -0.40203933991E+01  0.39254189210E+02  0.40659141219E+02  0.00000000000E+00 0.  1.
         11    1    3    3    0    0  0.84429245132E+00 -0.30949031987E+00  0.57322457786E+00  0.10663961174E+01  0.51100000000E-03 0. -1.
        -11    1    3    3    0    0  0.52122161652E+01  0.39670906337E+01  0.44568123536E-01  0.65503428939E+01  0.51100000000E-03 0.  1.
         12    1    3    3    0    0 -0.15860121777E+02  0.36279308525E+00 -0.39871981912E+02  0.42912119770E+02  0.00000000000E+00 0. -1.
</event>
<event>
 7    1  0.5992960E-013  0.5052895E+02  0.7816164E-02  0.1300438E+00
        -11   -1    0    0    0    0  0.00000000000E+00  0.00000000000E+00  0.45593999997E+02  0.45594000000E+02  0.51100000000E-03 0.  1.
         11   -1    0    0    0    0 -0.00000000000E+00 -0.00000000000E+00 -0.45593999997E+02  0.45594000000E+02  0.51100000000E-03 0. -1.
    9900012    2    1    2    0    0  0.12357600962E+02 -0.37306793464E+02 -0.10423605170E+02  0.50528945844E+02  0.30000261387E+02 0.  0.
        -12    1    1    2    0    0 -0.12357600962E+02  0.37306793464E+02  0.10423605170E+02  0.40659054156E+02  0.00000000000E+00 0.  1.
         11    1    3    3    0    0 -0.29839606781E+01 -0.16036549928E+02 -0.77736158621E+01  0.18069423310E+02  0.51100000000E-03 0. -1.
        -11    1    3    3    0    0  0.16882869888E+01 -0.15308881432E+02 -0.70311238692E+01  0.16930707805E+02  0.51100000000E-03 0.  1.
        -12    1    3    3    0    0  0.13653274652E+02 -0.59613621035E+01  0.43811345613E+01  0.15528814729E+02  0.00000000000E+00 0.  1.
</event>
<event>
 7    1  0.5992960E-013  0.5052885E+02  0.7816164E-02  0.1300439E+00
        -11   -1    0    0    0    0  0.00000000000E+00  0.00000000000E+00  0.45593999997E+02  0.45594000000E+02  0.51100000000E-03 0.  1.
         11   -1    0    0    0    0 -0.00000000000E+00 -0.00000000000E+00 -0.45593999997E+02  0.45594000000E+02  0.51100000000E-03 0. -1.
    9900012    2    1    2    0    0 -0.90470127775E+01 -0.23684969370E+02 -0.31785848483E+02  0.50528851238E+02  0.29999973822E+02 0.  0.
        -12    1    1    2    0    0  0.90470127775E+01  0.23684969370E+02  0.31785848483E+02  0.40659148762E+02  0.00000000000E+00 0.  1.
         11    1    3    3    0    0  0.49724161882E+01 -0.27204696743E+01 -0.48949980070E+00  0.56890674379E+01  0.51100000000E-03 0. -1.
        -11    1    3    3    0    0  0.40556616690E+01 -0.19262027796E+01 -0.10259117808E+02  0.11198577909E+02  0.51100000000E-03 0.  1.
         12    1    3    3    0    0 -0.18075090635E+02 -0.19038296916E+02 -0.21037230875E+02  0.33641205891E+02  0.00000000000E+00 0. -1.
</event>
<event>
 7    1  0.5992960E-013  0.5052887E+02  0.7816164E-02  0.1300439E+00
        -11   -1    0    0    0    0  0.00000000000E+00  0.00000000000E+00  0.45593999997E+02  0.45594000000E+02  0.51100000000E-03 0.  1.
         11   -1    0    0    0    0 -0.00000000000E+00 -0.00000000000E+00 -0.45593999997E+02  0.45594000000E+02  0.51100000000E-03 0. -1.
    9900012    2    1    2    0    0  0.28547488140E+02  0.28243175111E+02  0.63662074792E+01  0.50528872893E+02  0.30000039645E+02 0.  0.
        -12    1    1    2    0    0 -0.28547488140E+02 -0.28243175111E+02 -0.63662074792E+01  0.40659127107E+02  0.00000000000E+00 0.  1.
         11    1    3    3    0    0  0.24504466033E+02  0.84378984665E+01  0.96496402494E+01  0.27654702011E+02  0.51100000000E-03 0. -1.
        -11    1    3    3    0    0 -0.61560606664E+00 -0.46530548712E+00  0.13594917381E+01  0.15632332113E+01  0.51100000000E-03 0.  1.
         12    1    3    3    0    0  0.46586281730E+01  0.20270582132E+02 -0.46429245083E+01  0.21310937671E+02  0.00000000000E+00 0. -1.
</event>
<event>
 7    1  0.5992960E-013  0.5052886E+02  0.7816164E-02  0.1300439E+00
        -11   -1    0    0    0    0  0.00000000000E+00  0.00000000000E+00  0.45593999997E+02  0.45594000000E+02  0.51100000000E-03 0. -1.
         11   -1    0    0    0    0 -0.00000000000E+00 -0.00000000000E+00 -0.45593999997E+02  0.45594000000E+02  0.51100000000E-03 0.  1.
    9900012    2    1    2    0    0 -0.15219526336E+02  0.11238446419E+01  0.37686452440E+02  0.50528859500E+02  0.29999998936E+02 0.  0.
        -12    1    1    2    0    0  0.15219526336E+02 -0.11238446419E+01 -0.37686452440E+02  0.40659140500E+02  0.00000000000E+00 0.  1.
         11    1    3    3    0    0 -0.72575743894E+01  0.83635092757E+01  0.21732212703E+01  0.11284660579E+02  0.51100000000E-03 0. -1.
        -11    1    3    3    0    0  0.19909747047E+01  0.31796473012E+00  0.51396953379E+00  0.20806842112E+01  0.51100000000E-03 0.  1.
         12    1    3    3    0    0 -0.99529266510E+01 -0.75576293640E+01  0.34999261636E+02  0.37163514710E+02  0.00000000000E+00 0. -1.
</event>
<event>
 7    1  0.5992960E-013  0.5052881E+02  0.7816164E-02  0.1300439E+00
        -11   -1    0    0    0    0  0.00000000000E+00  0.00000000000E+00  0.45593999997E+02  0.45594000000E+02  0.51100000000E-03 0.  1.
         11   -1    0    0    0    0 -0.00000000000E+00 -0.00000000000E+00 -0.45593999997E+02  0.45594000000E+02  0.51100000000E-03 0. -1.
    9900012    2    1    2    0    0  0.23410609477E+02  0.25733585788E+02 -0.21045083319E+02  0.50528811549E+02  0.29999853183E+02 0.  0.
        -12    1    1    2    0    0 -0.23410609477E+02 -0.25733585788E+02  0.21045083319E+02  0.40659188451E+02  0.00000000000E+00 0.  1.
         11    1    3    3    0    0 -0.31464921866E+01 -0.59919263060E-01 -0.11376250254E+02  0.11803519539E+02  0.51100000000E-03 0.  1.
        -11    1    3    3    0    0  0.94695497574E+01  0.11120056760E+02 -0.11720764022E+01  0.14652706177E+02  0.51100000000E-03 0. -1.
        -12    1    3    3    0    0  0.17087551906E+02  0.14673448292E+02 -0.84967566632E+01  0.24072585833E+02  0.00000000000E+00 0.  1.
</event>
<event>
 7    1  0.5992960E-013  0.5052886E+02  0.7816164E-02  0.1300439E+00
        -11   -1    0    0    0    0  0.00000000000E+00  0.00000000000E+00  0.45593999997E+02  0.45594000000E+02  0.51100000000E-03 0. -1.
         11   -1    0    0    0    0 -0.00000000000E+00 -0.00000000000E+00 -0.45593999997E+02  0.45594000000E+02  0.51100000000E-03 0.  1.
    9900012    2    1    2    0    0 -0.41574150383E+01  0.40092030724E+02 -0.53395511281E+01  0.50528857933E+02  0.29999994174E+02 0.  0.
        -12    1    1    2    0    0  0.41574150383E+01 -0.40092030724E+02  0.53395511281E+01  0.40659142067E+02  0.00000000000E+00 0.  1.
         11    1    3    3    0    0 -0.47819894881E+01  0.18628917813E+02  0.17840704459E+01  0.19315457799E+02  0.51100000000E-03 0. -1.
        -11    1    3    3    0    0 -0.86813190303E+01  0.16033275582E+02  0.11560231717E+00  0.18233063104E+02  0.51100000000E-03 0.  1.
         12    1    3    3    0    0  0.93058934801E+01  0.54298373285E+01 -0.72392238911E+01  0.12980337030E+02  0.00000000000E+00 0. -1.
</event>
<event>
 7    1  0.5992960E-013  0.5052888E+02  0.7816164E-02  0.1300439E+00
        -11   -1    0    0    0    0  0.00000000000E+00  0.00000000000E+00  0.45593999997E+02  0.45594000000E+02  0.51100000000E-03 0.  1.
         11   -1    0    0    0    0 -0.00000000000E+00 -0.00000000000E+00 -0.45593999997E+02  0.45594000000E+02  0.51100000000E-03 0. -1.
    9900012    2    1    2    0    0 -0.92400142692E+01 -0.13156719865E+01 -0.39573412281E+02  0.50528882744E+02  0.30000069588E+02 0.  0.
        -12    1    1    2    0    0  0.92400142692E+01  0.13156719865E+01  0.39573412281E+02  0.40659117256E+02  0.00000000000E+00 0.  1.
         11    1    3    3    0    0  0.47925871074E+00 -0.45386546295E+01 -0.83684981270E+00  0.46399776539E+01  0.51100000000E-03 0. -1.
        -11    1    3    3    0    0  0.12393552871E+01  0.23123436517E+01  0.22479150184E+01  0.34548598933E+01  0.51100000000E-03 0.  1.
         12    1    3    3    0    0 -0.10958628267E+02  0.91063899141E+00 -0.40984477487E+02  0.42434045197E+02  0.00000000000E+00 0. -1.
</event>
<event>
 7    1  0.5992960E-013  0.5052886E+02  0.7816164E-02  0.1300439E+00
        -11   -1    0    0    0    0  0.00000000000E+00  0.00000000000E+00  0.45593999997E+02  0.45594000000E+02  0.51100000000E-03 0.  1.
         11   -1    0    0    0    0 -0.00000000000E+00 -0.00000000000E+00 -0.45593999997E+02  0.45594000000E+02  0.51100000000E-03 0. -1.
    9900012    2    1    2    0    0  0.57983554907E+01  0.40230535153E+02 -0.10240220241E+01  0.50528861960E+02  0.30000006413E+02 0.  0.
        -12    1    1    2    0    0 -0.57983554907E+01 -0.40230535153E+02  0.10240220241E+01  0.40659138040E+02  0.00000000000E+00 0.  1.
         11    1    3    3    0    0  0.57132896093E+01  0.21878936918E+02  0.99558761141E+00  0.22634503612E+02  0.51100000000E-03 0. -1.
        -11    1    3    3    0    0  0.14066905582E+00  0.22380471599E+02 -0.49380518162E+01  0.22919198345E+02  0.51100000000E-03 0.  1.
        -12    1    3    3    0    0 -0.55603174360E-01 -0.40288733636E+01  0.29184421807E+01  0.49751600030E+01  0.00000000000E+00 0.  1.
</event>
<event>
 7    1  0.8017765E-013  0.5052886E+02  0.7816164E-02  0.1300439E+00
        -11   -1    0    0    0    0  0.00000000000E+00  0.00000000000E+00  0.45593999997E+02  0.45594000000E+02  0.51100000000E-03 0.  1.
         11   -1    0    0    0    0 -0.00000000000E+00 -0.00000000000E+00 -0.45593999997E+02  0.45594000000E+02  0.51100000000E-03 0. -1.
    9900012    2    1    2    0    0 -0.36040358386E+02  0.50169801036E+01  0.18140781953E+02  0.50528862136E+02  0.30000006949E+02 0.  0.
        -12    1    1    2    0    0  0.36040358386E+02 -0.50169801036E+01 -0.18140781953E+02  0.40659137864E+02  0.00000000000E+00 0.  1.
         11    1    3    3    0    0 -0.56654797592E+01 -0.49261069319E+01  0.10720999078E+02  0.13088315854E+02  0.51100000000E-03 0. -1.
        -11    1    3    3    0    0 -0.79354445119E+01 -0.10735922130E+01 -0.50886505539E+01  0.94877945046E+01  0.51100000000E-03 0.  1.
         12    1    3    3    0    0 -0.22439434115E+02  0.11016679248E+02  0.12508433429E+02  0.27952751777E+02  0.00000000000E+00 0. -1.
</event>
<event>
 7    1  0.5992960E-013  0.5052886E+02  0.7816164E-02  0.1300439E+00
        -11   -1    0    0    0    0  0.00000000000E+00  0.00000000000E+00  0.45593999997E+02  0.45594000000E+02  0.51100000000E-03 0. -1.
         11   -1    0    0    0    0 -0.00000000000E+00 -0.00000000000E+00 -0.45593999997E+02  0.45594000000E+02  0.51100000000E-03 0.  1.
    9900012    2    1    2    0    0  0.20585278497E+02  0.34515808866E+02  0.61701948898E+01  0.50528855180E+02  0.29999985805E+02 0.  0.
        -12    1    1    2    0    0 -0.20585278497E+02 -0.34515808866E+02 -0.61701948898E+01  0.40659144820E+02  0.00000000000E+00 0.  1.
         11    1    3    3    0    0  0.88114285891E+01  0.48476703143E+01 -0.21833306677E+01  0.10291166811E+02  0.51100000000E-03 0. -1.
        -11    1    3    3    0    0  0.18771495049E+02  0.20135803803E+02  0.62010730475E+01  0.28218308390E+02  0.51100000000E-03 0.  1.
         12    1    3    3    0    0 -0.69976451411E+01  0.95323347487E+01  0.21524525100E+01  0.12019379979E+02  0.00000000000E+00 0. -1.
</event>
<event>
 7    1  0.5992960E-013  0.5052887E+02  0.7816164E-02  0.1300439E+00
        -11   -1    0    0    0    0  0.00000000000E+00  0.00000000000E+00  0.45593999997E+02  0.45594000000E+02  0.51100000000E-03 0. -1.
         11   -1    0    0    0    0 -0.00000000000E+00 -0.00000000000E+00 -0.45593999997E+02  0.45594000000E+02  0.51100000000E-03 0.  1.
    9900012    2    1    2    0    0  0.27078999581E+02 -0.58491441098E+01  0.29760385195E+02  0.50528865331E+02  0.30000016659E+02 0.  0.
        -12    1    1    2    0    0 -0.27078999581E+02  0.58491441098E+01 -0.29760385195E+02  0.40659134669E+02  0.00000000000E+00 0.  1.
         11    1    3    3    0    0  0.61046774911E+01  0.26486392187E+01  0.13417420834E+02  0.14976967619E+02  0.51100000000E-03 0. -1.
        -11    1    3    3    0    0  0.13416769148E+01 -0.11561039337E+02  0.71377906363E+01  0.13653050316E+02  0.51100000000E-03 0.  1.
        -12    1    3    3    0    0  0.19632645175E+02  0.30632560089E+01  0.92051737249E+01  0.21898847395E+02  0.00000000000E+00 0.  1.
</event>
<event>
 7    1  0.5992960E-013  0.5052886E+02  0.7816164E-02  0.1300439E+00
        -11   -1    0    0    0    0  0.00000000000E+00  0.00000000000E+00  0.45593999997E+02  0.45594000000E+02  0.51100000000E-03 0.  1.
         11   -1    0    0    0    0 -0.00000000000E+00 -0.00000000000E+00 -0.45593999997E+02  0.45594000000E+02  0.51100000000E-03 0. -1.
    9900012    2    1    2    0    0  0.29098713443E+02 -0.18311150324E+02 -0.21705577254E+02  0.50528862845E+02  0.30000009105E+02 0.  0.
        -12    1    1    2    0    0 -0.29098713443E+02  0.18311150324E+02  0.21705577254E+02  0.40659137155E+02  0.00000000000E+00 0.  1.
         11    1    3    3    0    0  0.44300299681E+01  0.10046293238E+01  0.13465043841E+00  0.45445106005E+01  0.51100000000E-03 0. -1.
        -11    1    3    3    0    0  0.19891645616E+02 -0.21371456675E+02 -0.66712669417E+01  0.29948664888E+02  0.51100000000E-03 0.  1.
        -12    1    3    3    0    0  0.47770378592E+01  0.20556770271E+01 -0.15168960751E+02  0.16035687357E+02  0.00000000000E+00 0.  1.
</event>
<event>
 7    1  0.5992960E-013  0.5052886E+02  0.7816164E-02  0.1300439E+00
        -11   -1    0    0    0    0  0.00000000000E+00  0.00000000000E+00  0.45593999997E+02  0.45594000000E+02  0.51100000000E-03 0.  1.
         11   -1    0    0    0    0 -0.00000000000E+00 -0.00000000000E+00 -0.45593999997E+02  0.45594000000E+02  0.51100000000E-03 0. -1.
    9900012    2    1    2    0    0 -0.29319020529E+02 -0.22334207773E+02 -0.17168097998E+02  0.50528863382E+02  0.30000010736E+02 0.  0.
        -12    1    1    2    0    0  0.29319020529E+02  0.22334207773E+02  0.17168097998E+02  0.40659136618E+02  0.00000000000E+00 0.  1.
         11    1    3    3    0    0  0.41009952937E+00 -0.38548080991E+01  0.17154446890E+01  0.42391600402E+01  0.51100000000E-03 0. -1.
        -11    1    3    3    0    0 -0.14018786400E+02 -0.12749277316E+02  0.25330092949E+01  0.19117703329E+02  0.51100000000E-03 0.  1.
         12    1    3    3    0    0 -0.15710333659E+02 -0.57301223579E+01 -0.21416551982E+02  0.27172000013E+02  0.00000000000E+00 0. -1.
</event>
<event>
 7    1  0.5992960E-013  0.5052886E+02  0.7816164E-02  0.1300439E+00
        -11   -1    0    0    0    0  0.00000000000E+00  0.00000000000E+00  0.45593999997E+02  0.45594000000E+02  0.51100000000E-03 0. -1.
         11   -1    0    0    0    0 -0.00000000000E+00 -0.00000000000E+00 -0.45593999997E+02  0.45594000000E+02  0.51100000000E-03 0.  1.
    9900012    2    1    2    0    0  0.12792726304E+02 -0.67273435720E+00  0.38588332425E+02  0.50528858136E+02  0.29999994789E+02 0.  0.
        -12    1    1    2    0    0 -0.12792726304E+02  0.67273435720E+00 -0.38588332425E+02  0.40659141864E+02  0.00000000000E+00 0.  1.
         11    1    3    3    0    0 -0.51092466364E+01 -0.49630798227E+01  0.57812603805E+01  0.91738505746E+01  0.51100000000E-03 0. -1.
        -11    1    3    3    0    0  0.27640381545E+01 -0.53610466201E+01  0.14545884568E+02  0.15746856382E+02  0.51100000000E-03 0.  1.
        -12    1    3    3    0    0  0.15137934786E+02  0.96513920856E+01  0.18261187477E+02  0.25608151179E+02  0.00000000000E+00 0.  1.
</event>
<event>
 7    1  0.5992960E-013  0.5052886E+02  0.7816164E-02  0.1300439E+00
        -11   -1    0    0    0    0  0.00000000000E+00  0.00000000000E+00  0.45593999997E+02  0.45594000000E+02  0.51100000000E-03 0.  1.
         11   -1    0    0    0    0 -0.00000000000E+00 -0.00000000000E+00 -0.45593999997E+02  0.45594000000E+02  0.51100000000E-03 0. -1.
    9900012    2    1    2    0    0  0.49076036941E+01  0.31274265997E+02 -0.25514728301E+02  0.50528860216E+02  0.30000001114E+02 0.  0.
        -12    1    1    2    0    0 -0.49076036941E+01 -0.31274265997E+02  0.25514728301E+02  0.40659139784E+02  0.00000000000E+00 0.  1.
         11    1    3    3    0    0 -0.75771402728E+01  0.98399898985E+01 -0.17864712087E+02  0.21757444568E+02  0.51100000000E-03 0. -1.
        -11    1    3    3    0    0  0.15234844193E+01  0.83530850237E+01 -0.80498139650E+01  0.11700193986E+02  0.51100000000E-03 0.  1.
        -12    1    3    3    0    0  0.10961259548E+02  0.13081191074E+02  0.39979775061E+00  0.17071221662E+02  0.00000000000E+00 0.  1.
</event>
<event>
 7    1  0.5992960E-013  0.5052887E+02  0.7816164E-02  0.1300439E+00
        -11   -1    0    0    0    0  0.00000000000E+00  0.00000000000E+00  0.45593999997E+02  0.45594000000E+02  0.51100000000E-03 0.  1.
         11   -1    0    0    0    0 -0.00000000000E+00 -0.00000000000E+00 -0.45593999997E+02  0.45594000000E+02  0.51100000000E-03 0. -1.
    9900012    2    1    2    0    0 -0.15595312368E+02 -0.24280955389E+02 -0.28642382149E+02  0.50528872886E+02  0.30000039625E+02 0.  0.
        -12    1    1    2    0    0  0.15595312368E+02  0.24280955389E+02  0.28642382149E+02  0.40659127114E+02  0.00000000000E+00 0.  1.
         11    1    3    3    0    0 -0.13856384823E+02 -0.64214454388E+01 -0.66451874064E+01  0.16655115665E+02  0.51100000000E-03 0. -1.
        -11    1    3    3    0    0  0.19308397144E+01  0.25903440166E+01  0.47872379462E+00  0.32660681040E+01  0.51100000000E-03 0.  1.
         12    1    3    3    0    0 -0.36697672592E+01 -0.20449853967E+02 -0.22475918538E+02  0.30607689118E+02  0.00000000000E+00 0. -1.
</event>
<event>
 7    1  0.5992960E-013  0.5052885E+02  0.7816164E-02  0.1300439E+00
        -11   -1    0    0    0    0  0.00000000000E+00  0.00000000000E+00  0.45593999997E+02  0.45594000000E+02  0.51100000000E-03 0.  1.
         11   -1    0    0    0    0 -0.00000000000E+00 -0.00000000000E+00 -0.45593999997E+02  0.45594000000E+02  0.51100000000E-03 0. -1.
    9900012    2    1    2    0    0  0.82618987301E+01 -0.19891065696E+02 -0.34485543615E+02  0.50528853630E+02  0.29999981093E+02 0.  0.
        -12    1    1    2    0    0 -0.82618987301E+01  0.19891065696E+02  0.34485543615E+02  0.40659146370E+02  0.00000000000E+00 0.  1.
         11    1    3    3    0    0  0.13380568011E+02 -0.59068712851E+01 -0.19506195991E+02  0.24380779540E+02  0.51100000000E-03 0. -1.
        -11    1    3    3    0    0  0.43123046717E+01  0.76473411132E-01 -0.17200539532E+01  0.46433183853E+01  0.51100000000E-03 0.  1.
         12    1    3    3    0    0 -0.94309739521E+01 -0.14060667822E+02 -0.13259293671E+02  0.21504755705E+02  0.00000000000E+00 0. -1.
</event>
<event>
 7    1  0.5992960E-013  0.5052886E+02  0.7816164E-02  0.1300439E+00
        -11   -1    0    0    0    0  0.00000000000E+00  0.00000000000E+00  0.45593999997E+02  0.45594000000E+02  0.51100000000E-03 0.  1.
         11   -1    0    0    0    0 -0.00000000000E+00 -0.00000000000E+00 -0.45593999997E+02  0.45594000000E+02  0.51100000000E-03 0. -1.
    9900012    2    1    2    0    0  0.12737184174E+02 -0.27057322096E+02 -0.27546886930E+02  0.50528861799E+02  0.30000005925E+02 0.  0.
        -12    1    1    2    0    0 -0.12737184174E+02  0.27057322096E+02  0.27546886930E+02  0.40659138201E+02  0.00000000000E+00 0.  1.
         11    1    3    3    0    0  0.42120644618E+01 -0.83535096686E+01 -0.22164874510E+02  0.24058351421E+02  0.51100000000E-03 0. -1.
        -11    1    3    3    0    0  0.59309724211E+01 -0.57241225474E+01 -0.95293203127E+01  0.12599601529E+02  0.51100000000E-03 0.  1.
        -12    1    3    3    0    0  0.25941472912E+01 -0.12979689880E+02  0.41473078927E+01  0.13870908849E+02  0.00000000000E+00 0.  1.
</event>
<event>
 7    1  0.5992960E-013  0.5052892E+02  0.7816164E-02  0.1300439E+00
        -11   -1    0    0    0    0  0.00000000000E+00  0.00000000000E+00  0.45593999997E+02  0.45594000000E+02  0.51100000000E-03 0.  1.
         11   -1    0    0    0    0 -0.00000000000E+00 -0.00000000000E+00 -0.45593999997E+02  0.45594000000E+02  0.51100000000E-03 0. -1.
    9900012    2    1    2    0    0  0.54024453562E+01  0.39392660538E+02 -0.84966204216E+01  0.50528921325E+02  0.30000186860E+02 0.  0.
        -12    1    1    2    0    0 -0.54024453562E+01 -0.39392660538E+02  0.84966204216E+01  0.40659078675E+02  0.00000000000E+00 0.  1.
         11    1    3    3    0    0  0.43843368686E+01  0.10987311594E+02  0.45550697969E+01  0.12676438260E+02  0.51100000000E-03 0. -1.
        -11    1    3    3    0    0 -0.32484423702E+01 -0.26438196057E+01 -0.14130668431E+01  0.44202848442E+01  0.51100000000E-03 0.  1.
         12    1    3    3    0    0  0.42665508578E+01  0.31049168549E+02 -0.11638623375E+02  0.33432198221E+02  0.00000000000E+00 0. -1.
</event>
<event>
 7    1  0.5992960E-013  0.5052886E+02  0.7816164E-02  0.1300439E+00
        -11   -1    0    0    0    0  0.00000000000E+00  0.00000000000E+00  0.45593999997E+02  0.45594000000E+02  0.51100000000E-03 0.  1.
         11   -1    0    0    0    0 -0.00000000000E+00 -0.00000000000E+00 -0.45593999997E+02  0.45594000000E+02  0.51100000000E-03 0. -1.
    9900012    2    1    2    0    0  0.31956716322E+02  0.44706176504E+01 -0.24737577730E+02  0.50528857213E+02  0.29999991984E+02 0.  0.
        -12    1    1    2    0    0 -0.31956716322E+02 -0.44706176504E+01  0.24737577730E+02  0.40659142787E+02  0.00000000000E+00 0.  1.
         11    1    3    3    0    0  0.28767135064E+01 -0.62217378833E+00 -0.35383037847E+01  0.46024096683E+01  0.51100000000E-03 0. -1.
        -11    1    3    3    0    0  0.17731512840E+02  0.16732883946E+02 -0.14315138931E+02  0.28272232943E+02  0.51100000000E-03 0.  1.
        -12    1    3    3    0    0  0.11348489975E+02 -0.11640092507E+02 -0.68841350145E+01  0.17654214601E+02  0.00000000000E+00 0.  1.
</event>
<event>
 7    1  0.1313673E-012  0.5052888E+02  0.7816164E-02  0.1300439E+00
        -11   -1    0    0    0    0  0.00000000000E+00  0.00000000000E+00  0.45593999997E+02  0.45594000000E+02  0.51100000000E-03 0.  1.
         11   -1    0    0    0    0 -0.00000000000E+00 -0.00000000000E+00 -0.45593999997E+02  0.45594000000E+02  0.51100000000E-03 0. -1.
    9900012    2    1    2    0    0 -0.31613402697E+02  0.18504154203E+02 -0.17645189238E+02  0.50528884710E+02  0.30000075566E+02 0.  0.
        -12    1    1    2    0    0  0.31613402697E+02 -0.18504154203E+02  0.17645189238E+02  0.40659115290E+02  0.00000000000E+00 0.  1.
         11    1    3    3    0    0 -0.43208097891E+01  0.20276378242E+01 -0.10479450686E+02  0.11515189939E+02  0.51100000000E-03 0. -1.
        -11    1    3    3    0    0 -0.21344471508E+01  0.27669334725E+01  0.64163955269E+01  0.73062929929E+01  0.51100000000E-03 0.  1.
         12    1    3    3    0    0 -0.25158145757E+02  0.13709582906E+02 -0.13582134079E+02  0.31707401779E+02  0.00000000000E+00 0. -1.
</event>
<event>
 7    1  0.5992960E-013  0.5052882E+02  0.7816164E-02  0.1300439E+00
        -11   -1    0    0    0    0  0.00000000000E+00  0.00000000000E+00  0.45593999997E+02  0.45594000000E+02  0.51100000000E-03 0.  1.
         11   -1    0    0    0    0 -0.00000000000E+00 -0.00000000000E+00 -0.45593999997E+02  0.45594000000E+02  0.51100000000E-03 0. -1.
    9900012    2    1    2    0    0  0.28671303846E+02  0.18315515672E+02 -0.22263587156E+02  0.50528817869E+02  0.29999872394E+02 0.  0.
        -12    1    1    2    0    0 -0.28671303846E+02 -0.18315515672E+02  0.22263587156E+02  0.40659182131E+02  0.00000000000E+00 0.  1.
         11    1    3    3    0    0  0.49889947145E+01  0.87164421874E+01 -0.10406627000E+02  0.14462514250E+02  0.51100000000E-03 0. -1.
        -11    1    3    3    0    0  0.16949808250E+02  0.69359099549E+01  0.39008220032E+01  0.18724830017E+02  0.51100000000E-03 0.  1.
         12    1    3    3    0    0  0.67325008816E+01  0.26631635293E+01 -0.15757782159E+02  0.17341473602E+02  0.00000000000E+00 0. -1.
</event>
<event>
 7    1  0.5992960E-013  0.5052885E+02  0.7816164E-02  0.1300439E+00
        -11   -1    0    0    0    0  0.00000000000E+00  0.00000000000E+00  0.45593999997E+02  0.45594000000E+02  0.51100000000E-03 0.  1.
         11   -1    0    0    0    0 -0.00000000000E+00 -0.00000000000E+00 -0.45593999997E+02  0.45594000000E+02  0.51100000000E-03 0. -1.
    9900012    2    1    2    0    0 -0.36608296718E+02 -0.29797517649E+01 -0.17439037452E+02  0.50528851750E+02  0.29999975379E+02 0.  0.
        -12    1    1    2    0    0  0.36608296718E+02  0.29797517649E+01  0.17439037452E+02  0.40659148250E+02  0.00000000000E+00 0.  1.
         11    1    3    3    0    0 -0.17488002863E+02  0.19731201210E+01 -0.13842173486E+02  0.22390382181E+02  0.51100000000E-03 0. -1.
        -11    1    3    3    0    0  0.77458568043E+00  0.10905152520E+01 -0.69497934964E+01  0.70773467058E+01  0.51100000000E-03 0.  1.
         12    1    3    3    0    0 -0.19894879535E+02 -0.60433871379E+01  0.33529295296E+01  0.21061122863E+02  0.00000000000E+00 0. -1.
</event>
<event>
 7    1  0.5992960E-013  0.5052886E+02  0.7816164E-02  0.1300439E+00
        -11   -1    0    0    0    0  0.00000000000E+00  0.00000000000E+00  0.45593999997E+02  0.45594000000E+02  0.51100000000E-03 0.  1.
         11   -1    0    0    0    0 -0.00000000000E+00 -0.00000000000E+00 -0.45593999997E+02  0.45594000000E+02  0.51100000000E-03 0. -1.
    9900012    2    1    2    0    0  0.25784129753E+01 -0.12077209274E+02 -0.38738333113E+02  0.50528860195E+02  0.30000001049E+02 0.  0.
        -12    1    1    2    0    0 -0.25784129753E+01  0.12077209274E+02  0.38738333113E+02  0.40659139805E+02  0.00000000000E+00 0.  1.
         11    1    3    3    0    0  0.70185747363E+00  0.10708677521E+01 -0.12634178488E+02  0.12698890817E+02  0.51100000000E-03 0. -1.
        -11    1    3    3    0    0 -0.33882793802E+01  0.58701687403E+01 -0.11236741377E+02  0.13122639796E+02  0.51100000000E-03 0.  1.
         12    1    3    3    0    0  0.52648348819E+01 -0.19018245766E+02 -0.14867413247E+02  0.24707329581E+02  0.00000000000E+00 0. -1.
</event>
<event>
 7    1  0.5992960E-013  0.5052884E+02  0.7816164E-02  0.1300439E+00
        -11   -1    0    0    0    0  0.00000000000E+00  0.00000000000E+00  0.45593999997E+02  0.45594000000E+02  0.51100000000E-03 0.  1.
         11   -1    0    0    0    0 -0.00000000000E+00 -0.00000000000E+00 -0.45593999997E+02  0.45594000000E+02  0.51100000000E-03 0. -1.
    9900012    2    1    2    0    0 -0.83035889255E+01  0.39758391682E+02  0.18676466955E+01  0.50528838642E+02  0.29999935536E+02 0.  0.
        -12    1    1    2    0    0  0.83035889255E+01 -0.39758391682E+02 -0.18676466955E+01  0.40659161358E+02  0.00000000000E+00 0.  1.
         11    1    3    3    0    0  0.16240561401E+01  0.18516252455E+02 -0.93924857146E+01  0.20825656088E+02  0.51100000000E-03 0. -1.
        -11    1    3    3    0    0 -0.12548715713E+00  0.27402991263E+01 -0.32318843167E+01  0.42391110892E+01  0.51100000000E-03 0.  1.
        -12    1    3    3    0    0 -0.98021579084E+01  0.18501840100E+02  0.14492016727E+02  0.25464071465E+02  0.00000000000E+00 0.  1.
</event>
<event>
 7    1  0.5992960E-013  0.5052886E+02  0.7816164E-02  0.1300439E+00
        -11   -1    0    0    0    0  0.00000000000E+00  0.00000000000E+00  0.45593999997E+02  0.45594000000E+02  0.51100000000E-03 0.  1.
         11   -1    0    0    0    0 -0.00000000000E+00 -0.00000000000E+00 -0.45593999997E+02  0.45594000000E+02  0.51100000000E-03 0. -1.
    9900012    2    1    2    0    0  0.38869790900E+02 -0.11821482364E+02  0.15991823524E+01  0.50528862354E+02  0.30000007612E+02 0.  0.
        -12    1    1    2    0    0 -0.38869790900E+02  0.11821482364E+02 -0.15991823524E+01  0.40659137646E+02  0.00000000000E+00 0.  1.
         11    1    3    3    0    0 -0.14508691225E+00 -0.56394092420E+00 -0.42589806728E+01  0.42986039839E+01  0.51100000000E-03 0. -1.
        -11    1    3    3    0    0  0.17659321877E+02  0.12603557795E+01 -0.61178634252E+01  0.18731481495E+02  0.51100000000E-03 0.  1.
         12    1    3    3    0    0  0.21355555935E+02 -0.12517897220E+02  0.11976026450E+02  0.27498776875E+02  0.00000000000E+00 0. -1.
</event>
<event>
 7    1  0.5992960E-013  0.5052886E+02  0.7816164E-02  0.1300439E+00
        -11   -1    0    0    0    0  0.00000000000E+00  0.00000000000E+00  0.45593999997E+02  0.45594000000E+02  0.51100000000E-03 0. -1.
         11   -1    0    0    0    0 -0.00000000000E+00 -0.00000000000E+00 -0.45593999997E+02  0.45594000000E+02  0.51100000000E-03 0.  1.
    9900012    2    1    2    0    0 -0.32215138962E+02  0.12089444142E+01  0.24776789588E+02  0.50528855552E+02  0.29999986936E+02 0.  0.
        -12    1    1    2    0    0  0.32215138962E+02 -0.12089444142E+01 -0.24776789588E+02  0.40659144448E+02  0.00000000000E+00 0.  1.
         11    1    3    3    0    0  0.12922526765E+01  0.55890182775E+00  0.48410779275E+00  0.14888414453E+01  0.51100000000E-03 0. -1.
        -11    1    3    3    0    0  0.49730105325E+00  0.61562079589E+01 -0.10626490864E+01  0.62670110989E+01  0.51100000000E-03 0.  1.
         12    1    3    3    0    0 -0.34004692692E+02 -0.55061653724E+01  0.25355330882E+02  0.42773003008E+02  0.00000000000E+00 0. -1.
</event>
<event>
 7    1  0.5992960E-013  0.5052886E+02  0.7816164E-02  0.1300439E+00
        -11   -1    0    0    0    0  0.00000000000E+00  0.00000000000E+00  0.45593999997E+02  0.45594000000E+02  0.51100000000E-03 0.  1.
         11   -1    0    0    0    0 -0.00000000000E+00 -0.00000000000E+00 -0.45593999997E+02  0.45594000000E+02  0.51100000000E-03 0. -1.
    9900012    2    1    2    0    0 -0.90874990463E+01  0.17142761308E+01 -0.39593485818E+02  0.50528862026E+02  0.30000006614E+02 0.  0.
        -12    1    1    2    0    0  0.90874990463E+01 -0.17142761308E+01  0.39593485818E+02  0.40659137974E+02  0.00000000000E+00 0.  1.
         11    1    3    3    0    0  0.37643023796E+01  0.25309711301E+01 -0.14031688552E+01  0.47481228253E+01  0.51100000000E-03 0. -1.
        -11    1    3    3    0    0 -0.10413670758E+02  0.10485953362E+01 -0.36204287324E+01  0.11074818071E+02  0.51100000000E-03 0.  1.
        -12    1    3    3    0    0 -0.24381306677E+01 -0.18652903355E+01 -0.34569888231E+02  0.34705921130E+02  0.00000000000E+00 0.  1.
</event>
<event>
 7    1  0.5992960E-013  0.5052885E+02  0.7816164E-02  0.1300439E+00
        -11   -1    0    0    0    0  0.00000000000E+00  0.00000000000E+00  0.45593999997E+02  0.45594000000E+02  0.51100000000E-03 0.  1.
         11   -1    0    0    0    0 -0.00000000000E+00 -0.00000000000E+00 -0.45593999997E+02  0.45594000000E+02  0.51100000000E-03 0. -1.
    9900012    2    1    2    0    0 -0.70939124067E+01  0.14621627089E+02 -0.37269969937E+02  0.50528853046E+02  0.29999979317E+02 0.  0.
        -12    1    1    2    0    0  0.70939124067E+01 -0.14621627089E+02  0.37269969937E+02  0.40659146954E+02  0.00000000000E+00 0.  1.
         11    1    3    3    0    0 -0.80758052366E+01 -0.43149040820E+01 -0.71609715367E+01  0.11623964086E+02  0.51100000000E-03 0. -1.
        -11    1    3    3    0    0 -0.10443479272E+01  0.66832859249E+01 -0.48377801284E+00  0.67816675511E+01  0.51100000000E-03 0.  1.
         12    1    3    3    0    0  0.20262407571E+01  0.12253245246E+02 -0.29625220387E+02  0.32123221409E+02  0.00000000000E+00 0. -1.
</event>
<event>
 7    1  0.5992960E-013  0.5052886E+02  0.7816164E-02  0.1300439E+00
        -11   -1    0    0    0    0  0.00000000000E+00  0.00000000000E+00  0.45593999997E+02  0.45594000000E+02  0.51100000000E-03 0.  1.
         11   -1    0    0    0    0 -0.00000000000E+00 -0.00000000000E+00 -0.45593999997E+02  0.45594000000E+02  0.51100000000E-03 0. -1.
    9900012    2    1    2    0    0  0.23012769976E+02  0.33446726881E+02  0.22123698768E+01  0.50528859558E+02  0.29999999111E+02 0.  0.
        -12    1    1    2    0    0 -0.23012769976E+02 -0.33446726881E+02 -0.22123698768E+01  0.40659140442E+02  0.00000000000E+00 0.  1.
         11    1    3    3    0    0  0.86920880201E+01  0.62224586428E+01  0.58472401166E+01  0.12184482055E+02  0.51100000000E-03 0. -1.
        -11    1    3    3    0    0  0.51433156163E+01 -0.30694128615E+01  0.17417724905E+01  0.62376888759E+01  0.51100000000E-03 0.  1.
         12    1    3    3    0    0  0.91773663400E+01  0.30293681100E+02 -0.53766427302E+01  0.32106688626E+02  0.00000000000E+00 0. -1.
</event>
<event>
 7    1  0.5992960E-013  0.5052885E+02  0.7816164E-02  0.1300439E+00
        -11   -1    0    0    0    0  0.00000000000E+00  0.00000000000E+00  0.45593999997E+02  0.45594000000E+02  0.51100000000E-03 0. -1.
         11   -1    0    0    0    0 -0.00000000000E+00 -0.00000000000E+00 -0.45593999997E+02  0.45594000000E+02  0.51100000000E-03 0.  1.
    9900012    2    1    2    0    0 -0.16050184468E+02  0.14850812634E+02  0.34278438322E+02  0.50528851077E+02  0.29999973333E+02 0.  0.
        -12    1    1    2    0    0  0.16050184468E+02 -0.14850812634E+02 -0.34278438322E+02  0.40659148923E+02  0.00000000000E+00 0.  1.
         11    1    3    3    0    0  0.23245381004E+01 -0.26149878849E+01  0.17557447572E+02  0.17902670318E+02  0.51100000000E-03 0. -1.
        -11    1    3    3    0    0 -0.64436774872E+01 -0.47508478854E+00  0.42005915008E+01  0.77065981037E+01  0.51100000000E-03 0.  1.
         12    1    3    3    0    0 -0.11931045081E+02  0.17940885307E+02  0.12520399250E+02  0.24919582655E+02  0.00000000000E+00 0. -1.
</event>
<event>
 7    1  0.5992960E-013  0.5052886E+02  0.7816164E-02  0.1300439E+00
        -11   -1    0    0    0    0  0.00000000000E+00  0.00000000000E+00  0.45593999997E+02  0.45594000000E+02  0.51100000000E-03 0.  1.
         11   -1    0    0    0    0 -0.00000000000E+00 -0.00000000000E+00 -0.45593999997E+02  0.45594000000E+02  0.51100000000E-03 0. -1.
    9900012    2    1    2    0    0 -0.15195671675E+02  0.44876887188E+01 -0.37444868600E+02  0.50528856230E+02  0.29999988995E+02 0.  0.
        -12    1    1    2    0    0  0.15195671675E+02 -0.44876887188E+01  0.37444868600E+02  0.40659143770E+02  0.00000000000E+00 0.  1.
         11    1    3    3    0    0 -0.68866969523E+01  0.36555013534E+00 -0.94219189037E+01  0.11676162807E+02  0.51100000000E-03 0. -1.
        -11    1    3    3    0    0 -0.76177417259E+01  0.91200118874E+01 -0.30856858315E+02  0.33065848109E+02  0.51100000000E-03 0.  1.
        -12    1    3    3    0    0 -0.69123299646E+00 -0.49978733040E+01  0.28339086190E+01  0.57868453132E+01  0.00000000000E+00 0.  1.
</event>
<event>
 7    1  0.5992960E-013  0.5052883E+02  0.7816164E-02  0.1300439E+00
        -11   -1    0    0    0    0  0.00000000000E+00  0.00000000000E+00  0.45593999997E+02  0.45594000000E+02  0.51100000000E-03 0.  1.
         11   -1    0    0    0    0 -0.00000000000E+00 -0.00000000000E+00 -0.45593999997E+02  0.45594000000E+02  0.51100000000E-03 0. -1.
    9900012    2    1    2    0    0 -0.10351032084E+02 -0.27354143891E+02 -0.28244909784E+02  0.50528831514E+02  0.29999913871E+02 0.  0.
        -12    1    1    2    0    0  0.10351032084E+02  0.27354143891E+02  0.28244909784E+02  0.40659168486E+02  0.00000000000E+00 0.  1.
         11    1    3    3    0    0  0.55871658862E+01 -0.59704620461E+01 -0.72125191602E+01  0.10903360610E+02  0.51100000000E-03 0.  1.
        -11    1    3    3    0    0  0.31260588284E+01 -0.76971290625E+01 -0.11744867699E+02  0.14386102917E+02  0.51100000000E-03 0. -1.
         12    1    3    3    0    0 -0.19064256799E+02 -0.13686552783E+02 -0.92875229247E+01  0.25239367988E+02  0.00000000000E+00 0. -1.
</event>
<event>
 7    1  0.5992960E-013  0.5052886E+02  0.7816164E-02  0.1300439E+00
        -11   -1    0    0    0    0  0.00000000000E+00  0.00000000000E+00  0.45593999997E+02  0.45594000000E+02  0.51100000000E-03 0.  1.
         11   -1    0    0    0    0 -0.00000000000E+00 -0.00000000000E+00 -0.45593999997E+02  0.45594000000E+02  0.51100000000E-03 0. -1.
    9900012    2    1    2    0    0  0.37874634966E+02 -0.79348808883E+01 -0.12478586859E+02  0.50528862792E+02  0.30000008941E+02 0.  0.
        -12    1    1    2    0    0 -0.37874634966E+02  0.79348808883E+01  0.12478586859E+02  0.40659137208E+02  0.00000000000E+00 0.  1.
         11    1    3    3    0    0  0.19454352171E+02 -0.85997389442E+00 -0.13962940679E+01  0.19523345279E+02  0.51100000000E-03 0. -1.
        -11    1    3    3    0    0  0.11181883053E+02  0.34166631739E+01 -0.13681440526E+02  0.17996941712E+02  0.51100000000E-03 0.  1.
         12    1    3    3    0    0  0.72383997424E+01 -0.10491570168E+02  0.25991477352E+01  0.13008575801E+02  0.00000000000E+00 0. -1.
</event>
<event>
 7    1  0.5992960E-013  0.5052886E+02  0.7816164E-02  0.1300439E+00
        -11   -1    0    0    0    0  0.00000000000E+00  0.00000000000E+00  0.45593999997E+02  0.45594000000E+02  0.51100000000E-03 0.  1.
         11   -1    0    0    0    0 -0.00000000000E+00 -0.00000000000E+00 -0.45593999997E+02  0.45594000000E+02  0.51100000000E-03 0. -1.
    9900012    2    1    2    0    0 -0.11450281434E+02  0.30115241798E+02 -0.24801797572E+02  0.50528857162E+02  0.29999991831E+02 0.  0.
        -12    1    1    2    0    0  0.11450281434E+02 -0.30115241798E+02  0.24801797572E+02  0.40659142838E+02  0.00000000000E+00 0.  1.
         11    1    3    3    0    0 -0.12422523489E+02  0.38776438566E+01 -0.24576839633E+01  0.13243693686E+02  0.51100000000E-03 0. -1.
        -11    1    3    3    0    0 -0.56138846250E+01  0.67674056556E+01 -0.37159561650E+01  0.95457744773E+01  0.51100000000E-03 0.  1.
         12    1    3    3    0    0  0.65861266802E+01  0.19470192286E+02 -0.18628157443E+02  0.27739388999E+02  0.00000000000E+00 0. -1.
</event>
<event>
 7    1  0.5992960E-013  0.5052885E+02  0.7816164E-02  0.1300439E+00
        -11   -1    0    0    0    0  0.00000000000E+00  0.00000000000E+00  0.45593999997E+02  0.45594000000E+02  0.51100000000E-03 0.  1.
         11   -1    0    0    0    0 -0.00000000000E+00 -0.00000000000E+00 -0.45593999997E+02  0.45594000000E+02  0.51100000000E-03 0. -1.
    9900012    2    1    2    0    0  0.34477376101E+02  0.64000298635E+01 -0.20579517124E+02  0.50528851335E+02  0.29999974118E+02 0.  0.
        -12    1    1    2    0    0 -0.34477376101E+02 -0.64000298635E+01  0.20579517124E+02  0.40659148665E+02  0.00000000000E+00 0.  1.
         11    1    3    3    0    0  0.13968343507E+02  0.77623384936E+01  0.36303743840E+01  0.16387438410E+02  0.51100000000E-03 0. -1.
        -11    1    3    3    0    0  0.47460088918E+01 -0.13224789625E+01  0.37068085398E+00  0.49407444342E+01  0.51100000000E-03 0.  1.
         12    1    3    3    0    0  0.15763023702E+02 -0.39829667645E-01 -0.24580572362E+02  0.29200668490E+02  0.00000000000E+00 0. -1.
</event>
<event>
 7    1  0.5992960E-013  0.5052880E+02  0.7816164E-02  0.1300439E+00
        -11   -1    0    0    0    0  0.00000000000E+00  0.00000000000E+00  0.45593999997E+02  0.45594000000E+02  0.51100000000E-03 0.  1.
         11   -1    0    0    0    0 -0.00000000000E+00 -0.00000000000E+00 -0.45593999997E+02  0.45594000000E+02  0.51100000000E-03 0. -1.
    9900012    2    1    2    0    0  0.94749027171E+01  0.34603749544E+02 -0.19130537243E+02  0.50528797853E+02  0.29999811554E+02 0.  0.
        -12    1    1    2    0    0 -0.94749027171E+01 -0.34603749544E+02  0.19130537243E+02  0.40659202147E+02  0.00000000000E+00 0.  1.
         11    1    3    3    0    0  0.59993691911E+00  0.53356847215E+01 -0.78458598667E+01  0.95072063753E+01  0.51100000000E-03 0. -1.
        -11    1    3    3    0    0  0.61158098177E+01  0.10429441257E+02 -0.17253796381E+02  0.21068219301E+02  0.51100000000E-03 0.  1.
        -12    1    3    3    0    0  0.27591559803E+01  0.18838623565E+02  0.59691190052E+01  0.19953372177E+02  0.00000000000E+00 0.  1.
</event>
<event>
 7    1  0.5992960E-013  0.5052886E+02  0.7816164E-02  0.1300439E+00
        -11   -1    0    0    0    0  0.00000000000E+00  0.00000000000E+00  0.45593999997E+02  0.45594000000E+02  0.51100000000E-03 0. -1.
         11   -1    0    0    0    0 -0.00000000000E+00 -0.00000000000E+00 -0.45593999997E+02  0.45594000000E+02  0.51100000000E-03 0.  1.
    9900012    2    1    2    0    0  0.27617066735E+01 -0.37738905156E+02 -0.14876627792E+02  0.50528855388E+02  0.29999986436E+02 0.  0.
        -12    1    1    2    0    0 -0.27617066735E+01  0.37738905156E+02  0.14876627792E+02  0.40659144612E+02  0.00000000000E+00 0.  1.
         11    1    3    3    0    0 -0.13456429496E+01 -0.74963970091E+01 -0.83700492881E+01  0.11316556385E+02  0.51100000000E-03 0. -1.
        -11    1    3    3    0    0 -0.88178896790E+01 -0.14215381108E+02 -0.80512110778E+01  0.18564865702E+02  0.51100000000E-03 0.  1.
        -12    1    3    3    0    0  0.12925239302E+02 -0.16027127039E+02  0.15446325737E+01  0.20647433301E+02  0.00000000000E+00 0.  1.
</event>
<event>
 7    1  0.5992960E-013  0.5052887E+02  0.7816164E-02  0.1300439E+00
        -11   -1    0    0    0    0  0.00000000000E+00  0.00000000000E+00  0.45593999997E+02  0.45594000000E+02  0.51100000000E-03 0. -1.
         11   -1    0    0    0    0 -0.00000000000E+00 -0.00000000000E+00 -0.45593999997E+02  0.45594000000E+02  0.51100000000E-03 0.  1.
    9900012    2    1    2    0    0  0.28850656758E+02  0.28554544018E+02  0.23329672920E+01  0.50528866760E+02  0.30000021002E+02 0.  0.
        -12    1    1    2    0    0 -0.28850656758E+02 -0.28554544018E+02 -0.23329672920E+01  0.40659133240E+02  0.00000000000E+00 0.  1.
         11    1    3    3    0    0  0.14596841779E+02  0.13694374344E+02  0.94772909566E+01  0.22145489896E+02  0.51100000000E-03 0. -1.
        -11    1    3    3    0    0  0.40746436439E+01  0.86577516905E+01  0.54751173566E+01  0.11024350116E+02  0.51100000000E-03 0.  1.
         12    1    3    3    0    0  0.10179171336E+02  0.62024179835E+01 -0.12619441021E+02  0.17359026747E+02  0.00000000000E+00 0. -1.
</event>
<event>
 7    1  0.5992960E-013  0.5052886E+02  0.7816164E-02  0.1300439E+00
        -11   -1    0    0    0    0  0.00000000000E+00  0.00000000000E+00  0.45593999997E+02  0.45594000000E+02  0.51100000000E-03 0. -1.
         11   -1    0    0    0    0 -0.00000000000E+00 -0.00000000000E+00 -0.45593999997E+02  0.45594000000E+02  0.51100000000E-03 0.  1.
    9900012    2    1    2    0    0 -0.16163768811E+02  0.31169932752E+02  0.20502035650E+02  0.50528860858E+02  0.30000003065E+02 0.  0.
        -12    1    1    2    0    0  0.16163768811E+02 -0.31169932752E+02 -0.20502035650E+02  0.40659139142E+02  0.00000000000E+00 0.  1.
         11    1    3    3    0    0 -0.18862493759E+01  0.53161049717E+01  0.19120537140E+01  0.59560774377E+01  0.51100000000E-03 0.  1.
        -11    1    3    3    0    0 -0.90138693544E+01  0.84713291231E+01  0.22790792213E+02  0.25931322138E+02  0.51100000000E-03 0. -1.
        -12    1    3    3    0    0 -0.52636500809E+01  0.17382498658E+02 -0.42008102778E+01  0.18641461282E+02  0.00000000000E+00 0.  1.
</event>
<event>
 7    1  0.5992960E-013  0.5052886E+02  0.7816164E-02  0.1300439E+00
        -11   -1    0    0    0    0  0.00000000000E+00  0.00000000000E+00  0.45593999997E+02  0.45594000000E+02  0.51100000000E-03 0.  1.
         11   -1    0    0    0    0 -0.00000000000E+00 -0.00000000000E+00 -0.45593999997E+02  0.45594000000E+02  0.51100000000E-03 0. -1.
    9900012    2    1    2    0    0  0.20434852042E+02  0.31233376444E+02 -0.16126343057E+02  0.50528856840E+02  0.29999990851E+02 0.  0.
        -12    1    1    2    0    0 -0.20434852042E+02 -0.31233376444E+02  0.16126343057E+02  0.40659143160E+02  0.00000000000E+00 0.  1.
         11    1    3    3    0    0  0.36710449600E+01  0.11535593875E+02 -0.84353709301E+01  0.14754727383E+02  0.51100000000E-03 0. -1.
        -11    1    3    3    0    0  0.90936203398E+01  0.24231027872E+02 -0.71371886695E+01  0.26847273697E+02  0.51100000000E-03 0.  1.
         12    1    3    3    0    0  0.76701867425E+01 -0.45332453027E+01 -0.55378345773E+00  0.89268557599E+01  0.00000000000E+00 0. -1.
</event>
<event>
 7    1  0.5992960E-013  0.5052886E+02  0.7816164E-02  0.1300439E+00
        -11   -1    0    0    0    0  0.00000000000E+00  0.00000000000E+00  0.45593999997E+02  0.45594000000E+02  0.51100000000E-03 0. -1.
         11   -1    0    0    0    0 -0.00000000000E+00 -0.00000000000E+00 -0.45593999997E+02  0.45594000000E+02  0.51100000000E-03 0.  1.
    9900012    2    1    2    0    0  0.27992819171E+02  0.28137069412E+02  0.88245765637E+01  0.50528858940E+02  0.29999997234E+02 0.  0.
        -12    1    1    2    0    0 -0.27992819171E+02 -0.28137069412E+02 -0.88245765637E+01  0.40659141060E+02  0.00000000000E+00 0.  1.
         11    1    3    3    0    0  0.99944896623E+01  0.14101838815E+02 -0.89777718195E+01  0.19476962512E+02  0.51100000000E-03 0.  1.
        -11    1    3    3    0    0  0.83733255618E+01  0.10357380793E+02  0.41551837636E+01  0.13951826770E+02  0.51100000000E-03 0. -1.
        -12    1    3    3    0    0  0.96250039470E+01  0.36778498034E+01  0.13647164620E+02  0.17100069658E+02  0.00000000000E+00 0.  1.
</event>
<event>
 7    1  0.5992960E-013  0.5052886E+02  0.7816164E-02  0.1300439E+00
        -11   -1    0    0    0    0  0.00000000000E+00  0.00000000000E+00  0.45593999997E+02  0.45594000000E+02  0.51100000000E-03 0.  1.
         11   -1    0    0    0    0 -0.00000000000E+00 -0.00000000000E+00 -0.45593999997E+02  0.45594000000E+02  0.51100000000E-03 0. -1.
    9900012    2    1    2    0    0 -0.68649606421E+01 -0.27285637572E+02 -0.29351864041E+02  0.50528860498E+02  0.30000001970E+02 0.  0.
        -12    1    1    2    0    0  0.68649606421E+01  0.27285637572E+02  0.29351864041E+02  0.40659139502E+02  0.00000000000E+00 0.  1.
         11    1    3    3    0    0 -0.56480307399E+01 -0.21298271999E+02 -0.24227124641E+02  0.32748590962E+02  0.51100000000E-03 0. -1.
        -11    1    3    3    0    0  0.25339274896E+01 -0.38653367372E+01 -0.10154461438E+02  0.11156823203E+02  0.51100000000E-03 0.  1.
         12    1    3    3    0    0 -0.37508573917E+01 -0.21220288363E+01  0.50297220376E+01  0.66234463333E+01  0.00000000000E+00 0. -1.
</event>
<event>
 7    1  0.5992960E-013  0.5052885E+02  0.7816164E-02  0.1300439E+00
        -11   -1    0    0    0    0  0.00000000000E+00  0.00000000000E+00  0.45593999997E+02  0.45594000000E+02  0.51100000000E-03 0.  1.
         11   -1    0    0    0    0 -0.00000000000E+00 -0.00000000000E+00 -0.45593999997E+02  0.45594000000E+02  0.51100000000E-03 0. -1.
    9900012    2    1    2    0    0  0.38738525078E+02  0.10100304619E+02 -0.71046985064E+01  0.50528853187E+02  0.29999979748E+02 0.  0.
        -12    1    1    2    0    0 -0.38738525078E+02 -0.10100304619E+02  0.71046985064E+01  0.40659146813E+02  0.00000000000E+00 0.  1.
         11    1    3    3    0    0  0.34436356517E+02  0.12740514717E+02 -0.13300425538E+02  0.39052332647E+02  0.51100000000E-03 0. -1.
        -11    1    3    3    0    0  0.23702581862E+01  0.20527694084E+01 -0.39264952836E+00  0.31600886105E+01  0.51100000000E-03 0.  1.
        -12    1    3    3    0    0  0.19319103751E+01 -0.46929795056E+01  0.65883765605E+01  0.83164319296E+01  0.00000000000E+00 0.  1.
</event>
<event>
 7    1  0.5992960E-013  0.5052886E+02  0.7816164E-02  0.1300439E+00
        -11   -1    0    0    0    0  0.00000000000E+00  0.00000000000E+00  0.45593999997E+02  0.45594000000E+02  0.51100000000E-03 0.  1.
         11   -1    0    0    0    0 -0.00000000000E+00 -0.00000000000E+00 -0.45593999997E+02  0.45594000000E+02  0.51100000000E-03 0. -1.
    9900012    2    1    2    0    0 -0.47121564375E+01 -0.21428134460E+02 -0.34231514134E+02  0.50528856814E+02  0.29999990772E+02 0.  0.
        -12    1    1    2    0    0  0.47121564375E+01  0.21428134460E+02  0.34231514134E+02  0.40659143186E+02  0.00000000000E+00 0.  1.
         11    1    3    3    0    0 -0.94744771312E+01 -0.16683306688E+02 -0.25622311472E+02  0.32009393689E+02  0.51100000000E-03 0. -1.
        -11    1    3    3    0    0  0.27976724391E+01 -0.95835882952E+01 -0.21487992557E+01  0.10212221805E+02  0.51100000000E-03 0.  1.
        -12    1    3    3    0    0  0.19646482546E+01  0.48387605233E+01 -0.64604034067E+01  0.83072413197E+01  0.00000000000E+00 0.  1.
</event>
<event>
 7    1  0.5992960E-013  0.5052883E+02  0.7816164E-02  0.1300439E+00
        -11   -1    0    0    0    0  0.00000000000E+00  0.00000000000E+00  0.45593999997E+02  0.45594000000E+02  0.51100000000E-03 0.  1.
         11   -1    0    0    0    0 -0.00000000000E+00 -0.00000000000E+00 -0.45593999997E+02  0.45594000000E+02  0.51100000000E-03 0. -1.
    9900012    2    1    2    0    0 -0.22354408883E+02  0.33954141255E+02  0.75153757589E+00  0.50528829896E+02  0.29999908951E+02 0.  0.
        -12    1    1    2    0    0  0.22354408883E+02 -0.33954141255E+02 -0.75153757589E+00  0.40659170104E+02  0.00000000000E+00 0.  1.
         11    1    3    3    0    0 -0.25738171515E+00 -0.67294299701E+00 -0.15617228244E+01  0.17199058305E+01  0.51100000000E-03 0. -1.
        -11    1    3    3    0    0 -0.17324346633E+02  0.14869696866E+02 -0.10129686300E+02  0.24977017755E+02  0.51100000000E-03 0.  1.
        -12    1    3    3    0    0 -0.47726805354E+01  0.19757387385E+02  0.12442946700E+02  0.23831906310E+02  0.00000000000E+00 0.  1.
</event>
<event>
 7    1  0.5992960E-013  0.5052886E+02  0.7816164E-02  0.1300439E+00
        -11   -1    0    0    0    0  0.00000000000E+00  0.00000000000E+00  0.45593999997E+02  0.45594000000E+02  0.51100000000E-03 0.  1.
         11   -1    0    0    0    0 -0.00000000000E+00 -0.00000000000E+00 -0.45593999997E+02  0.45594000000E+02  0.51100000000E-03 0. -1.
    9900012    2    1    2    0    0 -0.38453613160E+02  0.13207561660E+02 -0.21341257357E+00  0.50528860868E+02  0.30000003094E+02 0.  0.
        -12    1    1    2    0    0  0.38453613160E+02 -0.13207561660E+02  0.21341257357E+00  0.40659139132E+02  0.00000000000E+00 0.  1.
         11    1    3    3    0    0  0.47499359002E+00 -0.60116854851E+00 -0.85086055353E+00  0.11449831776E+01  0.51100000000E-03 0. -1.
        -11    1    3    3    0    0 -0.71382180828E+01  0.14102441346E+02  0.64386169116E+01  0.17067184809E+02  0.51100000000E-03 0.  1.
         12    1    3    3    0    0 -0.31790388667E+02 -0.29371113749E+00 -0.58011689316E+01  0.32316692882E+02  0.00000000000E+00 0. -1.
</event>
<event>
 7    1  0.5992960E-013  0.5052886E+02  0.7816164E-02  0.1300439E+00
        -11   -1    0    0    0    0  0.00000000000E+00  0.00000000000E+00  0.45593999997E+02  0.45594000000E+02  0.51100000000E-03 0.  1.
         11   -1    0    0    0    0 -0.00000000000E+00 -0.00000000000E+00 -0.45593999997E+02  0.45594000000E+02  0.51100000000E-03 0. -1.
    9900012    2    1    2    0    0 -0.73663914842E+01 -0.20258135333E+02 -0.34474776230E+02  0.50528856296E+02  0.29999989196E+02 0.  0.
        -12    1    1    2    0    0  0.73663914842E+01  0.20258135333E+02  0.34474776230E+02  0.40659143704E+02  0.00000000000E+00 0.  1.
         11    1    3    3    0    0  0.81305713416E+01 -0.64940716911E+01 -0.28106769722E+01  0.10778639189E+02  0.51100000000E-03 0. -1.
        -11    1    3    3    0    0  0.14768470295E+01  0.78028760083E+00 -0.19593374826E+01  0.25746707596E+01  0.51100000000E-03 0.  1.
        -12    1    3    3    0    0 -0.16973809855E+02 -0.14544351243E+02 -0.29704761775E+02  0.37175546347E+02  0.00000000000E+00 0.  1.
</event>
<event>
 7    1  0.5992960E-013  0.5052898E+02  0.7816164E-02  0.1300438E+00
        -11   -1    0    0    0    0  0.00000000000E+00  0.00000000000E+00  0.45593999997E+02  0.45594000000E+02  0.51100000000E-03 0.  1.
         11   -1    0    0    0    0 -0.00000000000E+00 -0.00000000000E+00 -0.45593999997E+02  0.45594000000E+02  0.51100000000E-03 0. -1.
    9900012    2    1    2    0    0  0.16266226724E+02  0.33304498109E+02 -0.16714556472E+02  0.50528977333E+02  0.30000357100E+02 0.  0.
        -12    1    1    2    0    0 -0.16266226724E+02 -0.33304498109E+02  0.16714556472E+02  0.40659022667E+02  0.00000000000E+00 0.  1.
         11    1    3    3    0    0  0.87339626041E+01  0.18290257180E+02 -0.10817467449E+02  0.22974621058E+02  0.51100000000E-03 0. -1.
        -11    1    3    3    0    0  0.10705948121E+01  0.11665924349E+02 -0.12920245515E+02  0.17440547829E+02  0.51100000000E-03 0.  1.
         12    1    3    3    0    0  0.64616693082E+01  0.33483165801E+01  0.70231564916E+01  0.10113808446E+02  0.00000000000E+00 0. -1.
</event>
<event>
 7    1  0.5992960E-013  0.5052887E+02  0.7816164E-02  0.1300439E+00
        -11   -1    0    0    0    0  0.00000000000E+00  0.00000000000E+00  0.45593999997E+02  0.45594000000E+02  0.51100000000E-03 0. -1.
         11   -1    0    0    0    0 -0.00000000000E+00 -0.00000000000E+00 -0.45593999997E+02  0.45594000000E+02  0.51100000000E-03 0.  1.
    9900012    2    1    2    0    0  0.15331172434E+02 -0.36930961722E+02 -0.73637192669E+01  0.50528866422E+02  0.30000019975E+02 0.  0.
        -12    1    1    2    0    0 -0.15331172434E+02  0.36930961722E+02  0.73637192669E+01  0.40659133578E+02  0.00000000000E+00 0.  1.
         11    1    3    3    0    0  0.69500500338E+01 -0.35981110474E+02 -0.49094350017E+01  0.36973585960E+02  0.51100000000E-03 0. -1.
        -11    1    3    3    0    0 -0.21188532419E+01  0.99538070821E+00  0.65912314271E+00  0.24320290692E+01  0.51100000000E-03 0.  1.
        -12    1    3    3    0    0  0.10499975642E+02 -0.19452319557E+01 -0.31134074079E+01  0.11123251392E+02  0.00000000000E+00 0.  1.
</event>
<event>
 7    1  0.5992960E-013  0.5052887E+02  0.7816164E-02  0.1300439E+00
        -11   -1    0    0    0    0  0.00000000000E+00  0.00000000000E+00  0.45593999997E+02  0.45594000000E+02  0.51100000000E-03 0.  1.
         11   -1    0    0    0    0 -0.00000000000E+00 -0.00000000000E+00 -0.45593999997E+02  0.45594000000E+02  0.51100000000E-03 0. -1.
    9900012    2    1    2    0    0 -0.25582604525E+01  0.31509765667E+01 -0.40456043163E+02  0.50528870911E+02  0.30000033622E+02 0.  0.
        -12    1    1    2    0    0  0.25582604525E+01 -0.31509765667E+01  0.40456043163E+02  0.40659129089E+02  0.00000000000E+00 0.  1.
         11    1    3    3    0    0 -0.10806434481E+02 -0.30111379297E+01 -0.11679950355E+02  0.16194666356E+02  0.51100000000E-03 0. -1.
        -11    1    3    3    0    0 -0.76229495811E+00  0.86611775995E+00  0.17344524980E+01  0.20831656934E+01  0.51100000000E-03 0.  1.
         12    1    3    3    0    0  0.90104689867E+01  0.52959967364E+01 -0.30510545306E+02  0.32251038862E+02  0.00000000000E+00 0. -1.
</event>
<event>
 7    1  0.5992960E-013  0.5052886E+02  0.7816164E-02  0.1300439E+00
        -11   -1    0    0    0    0  0.00000000000E+00  0.00000000000E+00  0.45593999997E+02  0.45594000000E+02  0.51100000000E-03 0. -1.
         11   -1    0    0    0    0 -0.00000000000E+00 -0.00000000000E+00 -0.45593999997E+02  0.45594000000E+02  0.51100000000E-03 0.  1.
    9900012    2    1    2    0    0 -0.21260290704E+02 -0.34625881303E+02  0.14880147153E+01  0.50528858289E+02  0.29999995257E+02 0.  0.
        -12    1    1    2    0    0  0.21260290704E+02  0.34625881303E+02 -0.14880147153E+01  0.40659141711E+02  0.00000000000E+00 0.  1.
         11    1    3    3    0    0 -0.46268322314E+01  0.33051623726E+01 -0.22174355472E+01  0.61031709360E+01  0.51100000000E-03 0. -1.
        -11    1    3    3    0    0 -0.27980637715E+00  0.12386099882E+01 -0.11362416825E+01  0.17039635365E+01  0.51100000000E-03 0.  1.
        -12    1    3    3    0    0 -0.16353652096E+02 -0.39169653664E+02  0.48416919450E+01  0.42721723817E+02  0.00000000000E+00 0.  1.
</event>
<event>
 7    1  0.5992960E-013  0.5052885E+02  0.7816164E-02  0.1300439E+00
        -11   -1    0    0    0    0  0.00000000000E+00  0.00000000000E+00  0.45593999997E+02  0.45594000000E+02  0.51100000000E-03 0.  1.
         11   -1    0    0    0    0 -0.00000000000E+00 -0.00000000000E+00 -0.45593999997E+02  0.45594000000E+02  0.51100000000E-03 0. -1.
    9900012    2    1    2    0    0  0.30935358107E+02 -0.18809577232E+02 -0.18503238216E+02  0.50528850952E+02  0.29999972953E+02 0.  0.
        -12    1    1    2    0    0 -0.30935358107E+02  0.18809577232E+02  0.18503238216E+02  0.40659149048E+02  0.00000000000E+00 0.  1.
         11    1    3    3    0    0  0.31760040695E+01 -0.60954280698E+01 -0.33552872714E+01  0.76484768508E+01  0.51100000000E-03 0. -1.
        -11    1    3    3    0    0  0.18779878697E+02 -0.63566185363E+01 -0.22236903948E+02  0.29792118765E+02  0.51100000000E-03 0.  1.
         12    1    3    3    0    0  0.89794753412E+01 -0.63575306254E+01  0.70889530029E+01  0.13088255336E+02  0.00000000000E+00 0. -1.
</event>
<event>
 7    1  0.5992960E-013  0.5052886E+02  0.7816164E-02  0.1300439E+00
        -11   -1    0    0    0    0  0.00000000000E+00  0.00000000000E+00  0.45593999997E+02  0.45594000000E+02  0.51100000000E-03 0. -1.
         11   -1    0    0    0    0 -0.00000000000E+00 -0.00000000000E+00 -0.45593999997E+02  0.45594000000E+02  0.51100000000E-03 0.  1.
    9900012    2    1    2    0    0 -0.15165670460E+02 -0.32897632507E+02 -0.18463855499E+02  0.50528859023E+02  0.29999997487E+02 0.  0.
        -12    1    1    2    0    0  0.15165670460E+02  0.32897632507E+02  0.18463855499E+02  0.40659140977E+02  0.00000000000E+00 0.  1.
         11    1    3    3    0    0 -0.95700254609E+01 -0.27836549789E+02 -0.60796292394E+01  0.30056958985E+02  0.51100000000E-03 0. -1.
        -11    1    3    3    0    0 -0.49350718173E+01 -0.87336045766E+01 -0.31534844106E+01  0.10515476543E+02  0.51100000000E-03 0.  1.
        -12    1    3    3    0    0 -0.66057318182E+00  0.36725218584E+01 -0.92307418492E+01  0.99564234951E+01  0.00000000000E+00 0.  1.
</event>
<event>
 7    1  0.5992960E-013  0.5052886E+02  0.7816164E-02  0.1300439E+00
        -11   -1    0    0    0    0  0.00000000000E+00  0.00000000000E+00  0.45593999997E+02  0.45594000000E+02  0.51100000000E-03 0.  1.
         11   -1    0    0    0    0 -0.00000000000E+00 -0.00000000000E+00 -0.45593999997E+02  0.45594000000E+02  0.51100000000E-03 0. -1.
    9900012    2    1    2    0    0  0.21681870527E+02 -0.28092350650E+02 -0.19846459127E+02  0.50528860628E+02  0.30000002364E+02 0.  0.
        -12    1    1    2    0    0 -0.21681870527E+02  0.28092350650E+02  0.19846459127E+02  0.40659139372E+02  0.00000000000E+00 0.  1.
         11    1    3    3    0    0  0.10310044912E+01 -0.11553916250E-01  0.53456456323E+00  0.11614057376E+01  0.51100000000E-03 0. -1.
        -11    1    3    3    0    0  0.62394789251E+01 -0.29660259087E+02 -0.15689981023E+02  0.34129716833E+02  0.51100000000E-03 0.  1.
         12    1    3    3    0    0  0.14411387111E+02  0.15794623528E+01 -0.46910426672E+01  0.15237738057E+02  0.00000000000E+00 0. -1.
</event>
<event>
 7    1  0.5992960E-013  0.5052886E+02  0.7816164E-02  0.1300439E+00
        -11   -1    0    0    0    0  0.00000000000E+00  0.00000000000E+00  0.45593999997E+02  0.45594000000E+02  0.51100000000E-03 0.  1.
         11   -1    0    0    0    0 -0.00000000000E+00 -0.00000000000E+00 -0.45593999997E+02  0.45594000000E+02  0.51100000000E-03 0. -1.
    9900012    2    1    2    0    0  0.37172703363E+02 -0.14923253805E+02  0.69751334265E+01  0.50528857538E+02  0.29999992972E+02 0.  0.
        -12    1    1    2    0    0 -0.37172703363E+02  0.14923253805E+02 -0.69751334265E+01  0.40659142462E+02  0.00000000000E+00 0.  1.
         11    1    3    3    0    0  0.11677420124E+02 -0.92336822629E+01 -0.52788396037E+01  0.15795226390E+02  0.51100000000E-03 0.  1.
        -11    1    3    3    0    0 -0.23786909192E+00 -0.53098863047E+01 -0.15403754453E+01  0.55339164294E+01  0.51100000000E-03 0. -1.
         12    1    3    3    0    0  0.25733152332E+02 -0.37968523717E+00  0.13794348476E+02  0.29199714719E+02  0.00000000000E+00 0. -1.
</event>
<event>
 7    1  0.5992960E-013  0.5052886E+02  0.7816164E-02  0.1300439E+00
        -11   -1    0    0    0    0  0.00000000000E+00  0.00000000000E+00  0.45593999997E+02  0.45594000000E+02  0.51100000000E-03 0.  1.
         11   -1    0    0    0    0 -0.00000000000E+00 -0.00000000000E+00 -0.45593999997E+02  0.45594000000E+02  0.51100000000E-03 0. -1.
    9900012    2    1    2    0    0 -0.39469673510E+02 -0.88958194366E+01 -0.40218459326E+01  0.50528856193E+02  0.29999988884E+02 0.  0.
        -12    1    1    2    0    0  0.39469673510E+02  0.88958194366E+01  0.40218459326E+01  0.40659143807E+02  0.00000000000E+00 0.  1.
         11    1    3    3    0    0 -0.10188816866E+02  0.29700675120E+01 -0.23788842893E+01  0.10876230085E+02  0.51100000000E-03 0. -1.
        -11    1    3    3    0    0 -0.31377192598E+02 -0.42211441078E+01 -0.19487243064E+01  0.31719769854E+02  0.51100000000E-03 0.  1.
        -12    1    3    3    0    0  0.20963359540E+01 -0.76447428408E+01  0.30576266305E+00  0.79328562536E+01  0.00000000000E+00 0.  1.
</event>
<event>
 7    1  0.5992960E-013  0.5052886E+02  0.7816164E-02  0.1300439E+00
        -11   -1    0    0    0    0  0.00000000000E+00  0.00000000000E+00  0.45593999997E+02  0.45594000000E+02  0.51100000000E-03 0.  1.
         11   -1    0    0    0    0 -0.00000000000E+00 -0.00000000000E+00 -0.45593999997E+02  0.45594000000E+02  0.51100000000E-03 0. -1.
    9900012    2    1    2    0    0  0.34903850402E+01  0.21714382208E+02 -0.34197486630E+02  0.50528864813E+02  0.30000015084E+02 0.  0.
        -12    1    1    2    0    0 -0.34903850402E+01 -0.21714382208E+02  0.34197486630E+02  0.40659135187E+02  0.00000000000E+00 0.  1.
         11    1    3    3    0    0  0.37570588210E+01 -0.47556200559E+01 -0.58553393508E+01  0.84271236062E+01  0.51100000000E-03 0. -1.
        -11    1    3    3    0    0  0.81411150328E+00  0.31503754947E+01 -0.14715694969E+02  0.15071142026E+02  0.51100000000E-03 0.  1.
        -12    1    3    3    0    0 -0.10807852841E+01  0.23319626769E+02 -0.13626452310E+02  0.27030599180E+02  0.00000000000E+00 0.  1.
</event>
<event>
 7    1  0.5992960E-013  0.5052885E+02  0.7816164E-02  0.1300439E+00
        -11   -1    0    0    0    0  0.00000000000E+00  0.00000000000E+00  0.45593999997E+02  0.45594000000E+02  0.51100000000E-03 0. -1.
         11   -1    0    0    0    0 -0.00000000000E+00 -0.00000000000E+00 -0.45593999997E+02  0.45594000000E+02  0.51100000000E-03 0.  1.
    9900012    2    1    2    0    0  0.77911513328E+01 -0.26023329841E+01  0.39820751352E+02  0.50528850793E+02  0.29999972469E+02 0.  0.
        -12    1    1    2    0    0 -0.77911513328E+01  0.26023329841E+01 -0.39820751352E+02  0.40659149207E+02  0.00000000000E+00 0.  1.
         11    1    3    3    0    0  0.13054059060E+02 -0.76437168673E+00  0.18331246598E+02  0.22517267243E+02  0.51100000000E-03 0. -1.
        -11    1    3    3    0    0 -0.39692208208E+01 -0.24106503880E+01  0.24366742984E+02  0.24805324290E+02  0.51100000000E-03 0.  1.
        -12    1    3    3    0    0 -0.12936869061E+01  0.57268909058E+00 -0.28772382302E+01  0.32062592595E+01  0.00000000000E+00 0.  1.
</event>
<event>
 7    1  0.5992960E-013  0.5052888E+02  0.7816164E-02  0.1300439E+00
        -11   -1    0    0    0    0  0.00000000000E+00  0.00000000000E+00  0.45593999997E+02  0.45594000000E+02  0.51100000000E-03 0.  1.
         11   -1    0    0    0    0 -0.00000000000E+00 -0.00000000000E+00 -0.45593999997E+02  0.45594000000E+02  0.51100000000E-03 0. -1.
    9900012    2    1    2    0    0  0.37425953203E+02 -0.10972846502E+02 -0.11491694384E+02  0.50528875891E+02  0.30000048757E+02 0.  0.
        -12    1    1    2    0    0 -0.37425953203E+02  0.10972846502E+02  0.11491694384E+02  0.40659124109E+02  0.00000000000E+00 0.  1.
         11    1    3    3    0    0  0.54420163165E+00  0.10943328743E+01 -0.31452131818E+01  0.33743274998E+01  0.51100000000E-03 0. -1.
        -11    1    3    3    0    0  0.14009647897E+02  0.33087657348E+01 -0.12768628868E+02  0.19242038569E+02  0.51100000000E-03 0.  1.
         12    1    3    3    0    0  0.22872103675E+02 -0.15375945111E+02  0.44221476657E+01  0.27912509822E+02  0.00000000000E+00 0. -1.
</event>
<event>
 7    1  0.5992960E-013  0.5052886E+02  0.7816164E-02  0.1300439E+00
        -11   -1    0    0    0    0  0.00000000000E+00  0.00000000000E+00  0.45593999997E+02  0.45594000000E+02  0.51100000000E-03 0.  1.
         11   -1    0    0    0    0 -0.00000000000E+00 -0.00000000000E+00 -0.45593999997E+02  0.45594000000E+02  0.51100000000E-03 0. -1.
    9900012    2    1    2    0    0  0.39806413340E+02  0.81358456365E+01  0.15566597515E+01  0.50528859370E+02  0.29999998541E+02 0.  0.
        -12    1    1    2    0    0 -0.39806413340E+02 -0.81358456365E+01 -0.15566597515E+01  0.40659140630E+02  0.00000000000E+00 0.  1.
         11    1    3    3    0    0 -0.92428259409E+00 -0.22740000661E+01  0.34614677072E+01  0.42434813024E+01  0.51100000000E-03 0. -1.
        -11    1    3    3    0    0 -0.77274562960E+00 -0.15536173484E+01  0.23075745179E+01  0.28871721614E+01  0.51100000000E-03 0.  1.
         12    1    3    3    0    0  0.41503441563E+02  0.11963463051E+02 -0.42123824736E+01  0.43398205906E+02  0.00000000000E+00 0. -1.
</event>
<event>
 7    1  0.5992960E-013  0.5052886E+02  0.7816164E-02  0.1300439E+00
        -11   -1    0    0    0    0  0.00000000000E+00  0.00000000000E+00  0.45593999997E+02  0.45594000000E+02  0.51100000000E-03 0.  1.
         11   -1    0    0    0    0 -0.00000000000E+00 -0.00000000000E+00 -0.45593999997E+02  0.45594000000E+02  0.51100000000E-03 0. -1.
    9900012    2    1    2    0    0  0.55774014985E+01  0.39631244874E+02 -0.71709541224E+01  0.50528861288E+02  0.30000004372E+02 0.  0.
        -12    1    1    2    0    0 -0.55774014985E+01 -0.39631244874E+02  0.71709541224E+01  0.40659138712E+02  0.00000000000E+00 0.  1.
         11    1    3    3    0    0  0.36520907516E+01  0.24134875057E+01 -0.64276400151E+01  0.77767117230E+01  0.51100000000E-03 0. -1.
        -11    1    3    3    0    0  0.30399797858E+01  0.78642653072E+01 -0.89064886294E+01  0.12264325741E+02  0.51100000000E-03 0.  1.
        -12    1    3    3    0    0 -0.11146690390E+01  0.29353492061E+02  0.81631745221E+01  0.30487823824E+02  0.00000000000E+00 0.  1.
</event>
<event>
 7    1  0.5992960E-013  0.5052886E+02  0.7816164E-02  0.1300439E+00
        -11   -1    0    0    0    0  0.00000000000E+00  0.00000000000E+00  0.45593999997E+02  0.45594000000E+02  0.51100000000E-03 0.  1.
         11   -1    0    0    0    0 -0.00000000000E+00 -0.00000000000E+00 -0.45593999997E+02  0.45594000000E+02  0.51100000000E-03 0. -1.
    9900012    2    1    2    0    0  0.18832762298E+02  0.12751889100E+02 -0.33702847028E+02  0.50528861922E+02  0.30000006299E+02 0.  0.
        -12    1    1    2    0    0 -0.18832762298E+02 -0.12751889100E+02  0.33702847028E+02  0.40659138078E+02  0.00000000000E+00 0.  1.
         11    1    3    3    0    0  0.32497413040E+01 -0.37302977834E+01 -0.12426529979E+02  0.13375148137E+02  0.51100000000E-03 0. -1.
        -11    1    3    3    0    0 -0.46901996443E+01  0.21109863971E+01 -0.13950564864E+01  0.53292043621E+01  0.51100000000E-03 0.  1.
        -12    1    3    3    0    0  0.20273220638E+02  0.14371200486E+02 -0.19881260563E+02  0.31824509424E+02  0.00000000000E+00 0.  1.
</event>
<event>
 7    1  0.5992960E-013  0.5052887E+02  0.7816164E-02  0.1300439E+00
        -11   -1    0    0    0    0  0.00000000000E+00  0.00000000000E+00  0.45593999997E+02  0.45594000000E+02  0.51100000000E-03 0. -1.
         11   -1    0    0    0    0 -0.00000000000E+00 -0.00000000000E+00 -0.45593999997E+02  0.45594000000E+02  0.51100000000E-03 0.  1.
    9900012    2    1    2    0    0  0.35132227137E+02 -0.16463608556E+02  0.12159000799E+02  0.50528867069E+02  0.30000021943E+02 0.  0.
        -12    1    1    2    0    0 -0.35132227137E+02  0.16463608556E+02 -0.12159000799E+02  0.40659132931E+02  0.00000000000E+00 0.  1.
         11    1    3    3    0    0  0.27382321052E+02 -0.20019701046E+02  0.40759289281E+01  0.34164208363E+02  0.51100000000E-03 0. -1.
        -11    1    3    3    0    0  0.63018262166E+01 -0.22840213445E+01  0.55278408631E+00  0.67257220931E+01  0.51100000000E-03 0.  1.
        -12    1    3    3    0    0  0.14480798674E+01  0.58401138347E+01  0.75302877846E+01  0.96389366127E+01  0.00000000000E+00 0.  1.
</event>
<event>
 7    1  0.5992960E-013  0.5052886E+02  0.7816164E-02  0.1300439E+00
        -11   -1    0    0    0    0  0.00000000000E+00  0.00000000000E+00  0.45593999997E+02  0.45594000000E+02  0.51100000000E-03 0. -1.
         11   -1    0    0    0    0 -0.00000000000E+00 -0.00000000000E+00 -0.45593999997E+02  0.45594000000E+02  0.51100000000E-03 0.  1.
    9900012    2    1    2    0    0 -0.25908813248E+02  0.31121279922E+02  0.36558146334E+01  0.50528860209E+02  0.30000001091E+02 0.  0.
        -12    1    1    2    0    0  0.25908813248E+02 -0.31121279922E+02 -0.36558146334E+01  0.40659139791E+02  0.00000000000E+00 0.  1.
         11    1    3    3    0    0 -0.78496125717E+01  0.96317370194E+01 -0.57563650158E+01  0.13693886008E+02  0.51100000000E-03 0. -1.
        -11    1    3    3    0    0 -0.15683889957E+02  0.17928849541E+02 -0.27146516269E+01  0.23974932404E+02  0.51100000000E-03 0.  1.
         12    1    3    3    0    0 -0.23753107194E+01  0.35606933619E+01  0.12126831276E+02  0.12860041797E+02  0.00000000000E+00 0. -1.
</event>
<event>
 7    1  0.5992960E-013  0.5052886E+02  0.7816164E-02  0.1300439E+00
        -11   -1    0    0    0    0  0.00000000000E+00  0.00000000000E+00  0.45593999997E+02  0.45594000000E+02  0.51100000000E-03 0. -1.
         11   -1    0    0    0    0 -0.00000000000E+00 -0.00000000000E+00 -0.45593999997E+02  0.45594000000E+02  0.51100000000E-03 0.  1.
    9900012    2    1    2    0    0 -0.17668166653E+02  0.32402802627E+02  0.17060478970E+02  0.50528859900E+02  0.30000000152E+02 0.  0.
        -12    1    1    2    0    0  0.17668166653E+02 -0.32402802627E+02 -0.17060478970E+02  0.40659140100E+02  0.00000000000E+00 0.  1.
         11    1    3    3    0    0  0.79860113126E-01  0.22370383312E+02  0.10076016381E+02  0.24535006288E+02  0.51100000000E-03 0. -1.
        -11    1    3    3    0    0  0.55257163024E+00  0.51183977381E+01 -0.13052675304E+01  0.53110313875E+01  0.51100000000E-03 0.  1.
        -12    1    3    3    0    0 -0.18300598397E+02  0.49140215771E+01  0.82897301197E+01  0.20682822225E+02  0.00000000000E+00 0.  1.
</event>
<event>
 7    1  0.5992960E-013  0.5052885E+02  0.7816164E-02  0.1300439E+00
        -11   -1    0    0    0    0  0.00000000000E+00  0.00000000000E+00  0.45593999997E+02  0.45594000000E+02  0.51100000000E-03 0. -1.
         11   -1    0    0    0    0 -0.00000000000E+00 -0.00000000000E+00 -0.45593999997E+02  0.45594000000E+02  0.51100000000E-03 0.  1.
    9900012    2    1    2    0    0 -0.22069739116E+02 -0.77241492406E+01  0.33263055425E+02  0.50528847004E+02  0.29999960954E+02 0.  0.
        -12    1    1    2    0    0  0.22069739116E+02  0.77241492406E+01 -0.33263055425E+02  0.40659152996E+02  0.00000000000E+00 0.  1.
         11    1    3    3    0    0 -0.15426477103E+02  0.64916722758E+01  0.27568906196E+02  0.32251551806E+02  0.51100000000E-03 0. -1.
        -11    1    3    3    0    0 -0.55396240734E+00  0.65185339467E+00 -0.57545039361E+00  0.10309852635E+01  0.51100000000E-03 0.  1.
        -12    1    3    3    0    0 -0.60892996052E+01 -0.14867674911E+02  0.62695996222E+01  0.17246309935E+02  0.00000000000E+00 0.  1.
</event>
<event>
 7    1  0.5992960E-013  0.5052886E+02  0.7816164E-02  0.1300439E+00
        -11   -1    0    0    0    0  0.00000000000E+00  0.00000000000E+00  0.45593999997E+02  0.45594000000E+02  0.51100000000E-03 0.  1.
         11   -1    0    0    0    0 -0.00000000000E+00 -0.00000000000E+00 -0.45593999997E+02  0.45594000000E+02  0.51100000000E-03 0. -1.
    9900012    2    1    2    0    0  0.19515819983E+02 -0.20589009941E+02 -0.29127159195E+02  0.50528856346E+02  0.29999989348E+02 0.  0.
        -12    1    1    2    0    0 -0.19515819983E+02  0.20589009941E+02  0.29127159195E+02  0.40659143654E+02  0.00000000000E+00 0.  1.
         11    1    3    3    0    0  0.74455379410E+01  0.16247177087E+01 -0.95360746601E+01  0.12207066111E+02  0.51100000000E-03 0. -1.
        -11    1    3    3    0    0 -0.32908758051E+00  0.39554400063E+01 -0.26464249212E+01  0.47704684680E+01  0.51100000000E-03 0.  1.
         12    1    3    3    0    0  0.12399369622E+02 -0.26169167656E+02 -0.16944659613E+02  0.33551321766E+02  0.00000000000E+00 0. -1.
</event>
<event>
 7    1  0.5992960E-013  0.5052884E+02  0.7816164E-02  0.1300439E+00
        -11   -1    0    0    0    0  0.00000000000E+00  0.00000000000E+00  0.45593999997E+02  0.45594000000E+02  0.51100000000E-03 0.  1.
         11   -1    0    0    0    0 -0.00000000000E+00 -0.00000000000E+00 -0.45593999997E+02  0.45594000000E+02  0.51100000000E-03 0. -1.
    9900012    2    1    2    0    0 -0.75268787903E+01 -0.29360523143E+02 -0.27101164239E+02  0.50528839573E+02  0.29999938366E+02 0.  0.
        -12    1    1    2    0    0  0.75268787903E+01  0.29360523143E+02  0.27101164239E+02  0.40659160427E+02  0.00000000000E+00 0.  1.
         11    1    3    3    0    0 -0.23249674692E+00 -0.32229364095E+01  0.11706313513E+01  0.34368229309E+01  0.51100000000E-03 0. -1.
        -11    1    3    3    0    0 -0.43287014554E-02  0.34723836881E+01  0.20960503239E+01  0.40559702213E+01  0.51100000000E-03 0.  1.
         12    1    3    3    0    0 -0.72900533419E+01 -0.29609970421E+02 -0.30367845914E+02  0.43036046421E+02  0.00000000000E+00 0. -1.
</event>
<event>
 7    1  0.5992960E-013  0.5052886E+02  0.7816164E-02  0.1300439E+00
        -11   -1    0    0    0    0  0.00000000000E+00  0.00000000000E+00  0.45593999997E+02  0.45594000000E+02  0.51100000000E-03 0. -1.
         11   -1    0    0    0    0 -0.00000000000E+00 -0.00000000000E+00 -0.45593999997E+02  0.45594000000E+02  0.51100000000E-03 0.  1.
    9900012    2    1    2    0    0 -0.39839740736E+01 -0.37242730215E+02 -0.15820010737E+02  0.50528859048E+02  0.29999997561E+02 0.  0.
        -12    1    1    2    0    0  0.39839740736E+01  0.37242730215E+02  0.15820010737E+02  0.40659140952E+02  0.00000000000E+00 0.  1.
         11    1    3    3    0    0 -0.96003003637E+01 -0.27045444118E+02 -0.16300146874E+02  0.33004796666E+02  0.51100000000E-03 0. -1.
        -11    1    3    3    0    0  0.15597484111E+01 -0.67570148041E+01 -0.59792977113E+01  0.91565313056E+01  0.51100000000E-03 0.  1.
        -12    1    3    3    0    0  0.40565778791E+01 -0.34402712927E+01  0.64594338484E+01  0.83675310755E+01  0.00000000000E+00 0.  1.
</event>
<event>
 7    1  0.5992960E-013  0.5052886E+02  0.7816164E-02  0.1300439E+00
        -11   -1    0    0    0    0  0.00000000000E+00  0.00000000000E+00  0.45593999997E+02  0.45594000000E+02  0.51100000000E-03 0. -1.
         11   -1    0    0    0    0 -0.00000000000E+00 -0.00000000000E+00 -0.45593999997E+02  0.45594000000E+02  0.51100000000E-03 0.  1.
    9900012    2    1    2    0    0  0.36230412058E+02 -0.15308213161E+02  0.10304428633E+02  0.50528863296E+02  0.30000010473E+02 0.  0.
        -12    1    1    2    0    0 -0.36230412058E+02  0.15308213161E+02 -0.10304428633E+02  0.40659136704E+02  0.00000000000E+00 0.  1.
         11    1    3    3    0    0  0.77422937636E+01 -0.30754033679E+01  0.68899518539E+01  0.10810765718E+02  0.51100000000E-03 0. -1.
        -11    1    3    3    0    0  0.49022646918E+01  0.11562878478E+01  0.10535515742E+02  0.11677597908E+02  0.51100000000E-03 0.  1.
         12    1    3    3    0    0  0.23585853603E+02 -0.13389097641E+02 -0.71210389629E+01  0.28040499670E+02  0.00000000000E+00 0. -1.
</event>
<event>
 7    1  0.5992960E-013  0.5052887E+02  0.7816164E-02  0.1300439E+00
        -11   -1    0    0    0    0  0.00000000000E+00  0.00000000000E+00  0.45593999997E+02  0.45594000000E+02  0.51100000000E-03 0. -1.
         11   -1    0    0    0    0 -0.00000000000E+00 -0.00000000000E+00 -0.45593999997E+02  0.45594000000E+02  0.51100000000E-03 0.  1.
    9900012    2    1    2    0    0  0.12219485059E+02  0.38401866729E+02 -0.53986812600E+01  0.50528868889E+02  0.30000027474E+02 0.  0.
        -12    1    1    2    0    0 -0.12219485059E+02 -0.38401866729E+02  0.53986812600E+01  0.40659131111E+02  0.00000000000E+00 0.  1.
         11    1    3    3    0    0  0.12150633784E+02  0.36077641020E+02 -0.19662261633E+01  0.38119550476E+02  0.51100000000E-03 0. -1.
        -11    1    3    3    0    0 -0.12859014019E+01  0.32619930507E+01 -0.73587052260E+01  0.81513608645E+01  0.51100000000E-03 0.  1.
        -12    1    3    3    0    0  0.13547526769E+01 -0.93776734175E+00  0.39262501293E+01  0.42579575480E+01  0.00000000000E+00 0.  1.
</event>
<event>
 7    1  0.5992960E-013  0.5052885E+02  0.7816164E-02  0.1300439E+00
        -11   -1    0    0    0    0  0.00000000000E+00  0.00000000000E+00  0.45593999997E+02  0.45594000000E+02  0.51100000000E-03 0.  1.
         11   -1    0    0    0    0 -0.00000000000E+00 -0.00000000000E+00 -0.45593999997E+02  0.45594000000E+02  0.51100000000E-03 0. -1.
    9900012    2    1    2    0    0  0.13035699830E+02  0.12663112407E+02 -0.36371449974E+02  0.50528852701E+02  0.29999978271E+02 0.  0.
        -12    1    1    2    0    0 -0.13035699830E+02 -0.12663112407E+02  0.36371449974E+02  0.40659147299E+02  0.00000000000E+00 0.  1.
         11    1    3    3    0    0  0.11439957700E+02  0.21643633425E+01 -0.22154524227E+02  0.25027585678E+02  0.51100000000E-03 0. -1.
        -11    1    3    3    0    0  0.30377324867E+01  0.14021624844E+02 -0.15832623951E+02  0.21365995492E+02  0.51100000000E-03 0.  1.
        -12    1    3    3    0    0 -0.14419903576E+01 -0.35228757796E+01  0.16156982050E+01  0.41352715316E+01  0.00000000000E+00 0.  1.
</event>
<event>
 7    1  0.6168955E-013  0.5052887E+02  0.7816164E-02  0.1300439E+00
        -11   -1    0    0    0    0  0.00000000000E+00  0.00000000000E+00  0.45593999997E+02  0.45594000000E+02  0.51100000000E-03 0. -1.
         11   -1    0    0    0    0 -0.00000000000E+00 -0.00000000000E+00 -0.45593999997E+02  0.45594000000E+02  0.51100000000E-03 0.  1.
    9900012    2    1    2    0    0 -0.36279056424E+02  0.13980498941E+02  0.11897083235E+02  0.50528869719E+02  0.30000029999E+02 0.  0.
        -12    1    1    2    0    0  0.36279056424E+02 -0.13980498941E+02 -0.11897083235E+02  0.40659130281E+02  0.00000000000E+00 0.  1.
         11    1    3    3    0    0 -0.83150015099E+01  0.99581397601E+01  0.33743972310E+00  0.12977583112E+02  0.51100000000E-03 0. -1.
        -11    1    3    3    0    0  0.78993429499E+00  0.58202612435E+01  0.56323360959E+01  0.81377298610E+01  0.51100000000E-03 0.  1.
         12    1    3    3    0    0 -0.28753989209E+02 -0.17979020626E+01  0.59273074163E+01  0.29413556747E+02  0.00000000000E+00 0. -1.
</event>
<event>
 7    1  0.5992960E-013  0.5052886E+02  0.7816164E-02  0.1300439E+00
        -11   -1    0    0    0    0  0.00000000000E+00  0.00000000000E+00  0.45593999997E+02  0.45594000000E+02  0.51100000000E-03 0. -1.
         11   -1    0    0    0    0 -0.00000000000E+00 -0.00000000000E+00 -0.45593999997E+02  0.45594000000E+02  0.51100000000E-03 0.  1.
    9900012    2    1    2    0    0 -0.34720447089E+02  0.18006556390E+02  0.11109464995E+02  0.50528859188E+02  0.29999997987E+02 0.  0.
        -12    1    1    2    0    0  0.34720447089E+02 -0.18006556390E+02 -0.11109464995E+02  0.40659140812E+02  0.00000000000E+00 0.  1.
         11    1    3    3    0    0 -0.36826674361E+01 -0.52956909428E+00 -0.53088076081E+01  0.64827402656E+01  0.51100000000E-03 0. -1.
        -11    1    3    3    0    0 -0.38973804178E+01 -0.21421226387E+01  0.75986650003E+01  0.88044292017E+01  0.51100000000E-03 0.  1.
         12    1    3    3    0    0 -0.27140399235E+02  0.20678248123E+02  0.88196076028E+01  0.35241689721E+02  0.00000000000E+00 0. -1.
</event>
<event>
 7    1  0.5992960E-013  0.5052886E+02  0.7816164E-02  0.1300439E+00
        -11   -1    0    0    0    0  0.00000000000E+00  0.00000000000E+00  0.45593999997E+02  0.45594000000E+02  0.51100000000E-03 0. -1.
         11   -1    0    0    0    0 -0.00000000000E+00 -0.00000000000E+00 -0.45593999997E+02  0.45594000000E+02  0.51100000000E-03 0.  1.
    9900012    2    1    2    0    0 -0.37355826295E+02 -0.13580054097E+02  0.85609688372E+01  0.50528858164E+02  0.29999994874E+02 0.  0.
        -12    1    1    2    0    0  0.37355826295E+02  0.13580054097E+02 -0.85609688372E+01  0.40659141836E+02  0.00000000000E+00 0.  1.
         11    1    3    3    0    0 -0.14385548219E+02 -0.57597989018E+01  0.16779841268E+01  0.15586369428E+02  0.51100000000E-03 0. -1.
        -11    1    3    3    0    0 -0.14952979364E+02 -0.15615976911E+02  0.92431744221E+01  0.23513540788E+02  0.51100000000E-03 0.  1.
        -12    1    3    3    0    0 -0.80172987125E+01  0.77957217160E+01 -0.23601897117E+01  0.11428947948E+02  0.00000000000E+00 0.  1.
</event>
<event>
 7    1  0.5992960E-013  0.5052886E+02  0.7816164E-02  0.1300439E+00
        -11   -1    0    0    0    0  0.00000000000E+00  0.00000000000E+00  0.45593999997E+02  0.45594000000E+02  0.51100000000E-03 0.  1.
         11   -1    0    0    0    0 -0.00000000000E+00 -0.00000000000E+00 -0.45593999997E+02  0.45594000000E+02  0.51100000000E-03 0. -1.
    9900012    2    1    2    0    0  0.22412986373E+02  0.20979678193E+02 -0.26658524639E+02  0.50528858455E+02  0.29999995761E+02 0.  0.
        -12    1    1    2    0    0 -0.22412986373E+02 -0.20979678193E+02  0.26658524639E+02  0.40659141545E+02  0.00000000000E+00 0.  1.
         11    1    3    3    0    0  0.85254491766E+01  0.47996952963E+01 -0.39489578825E+01  0.10550574734E+02  0.51100000000E-03 0. -1.
        -11    1    3    3    0    0  0.20159627204E+02  0.10745183083E+02 -0.10323322167E+02  0.25068715750E+02  0.51100000000E-03 0.  1.
         12    1    3    3    0    0 -0.62720900079E+01  0.54347998138E+01 -0.12386244589E+02  0.14909567971E+02  0.00000000000E+00 0. -1.
</event>
<event>
 7    1  0.5992960E-013  0.5052887E+02  0.7816164E-02  0.1300439E+00
        -11   -1    0    0    0    0  0.00000000000E+00  0.00000000000E+00  0.45593999997E+02  0.45594000000E+02  0.51100000000E-03 0. -1.
         11   -1    0    0    0    0 -0.00000000000E+00 -0.00000000000E+00 -0.45593999997E+02  0.45594000000E+02  0.51100000000E-03 0.  1.
    9900012    2    1    2    0    0 -0.38643778832E+01  0.94278909210E+01  0.39361738549E+02  0.50528868120E+02  0.30000025138E+02 0.  0.
        -12    1    1    2    0    0  0.38643778832E+01 -0.94278909210E+01 -0.39361738549E+02  0.40659131880E+02  0.00000000000E+00 0.  1.
         11    1    3    3    0    0 -0.15453648584E+01  0.46305305105E+01 -0.32342180671E+01  0.58557776701E+01  0.51100000000E-03 0. -1.
        -11    1    3    3    0    0 -0.22490517715E+01  0.21161555001E+01  0.14012170518E+01  0.33911292306E+01  0.51100000000E-03 0.  1.
         12    1    3    3    0    0 -0.69961253238E-01  0.26812049103E+01  0.41194739564E+02  0.41281961219E+02  0.00000000000E+00 0. -1.
</event>
<event>
 7    1  0.5992960E-013  0.5052883E+02  0.7816164E-02  0.1300439E+00
        -11   -1    0    0    0    0  0.00000000000E+00  0.00000000000E+00  0.45593999997E+02  0.45594000000E+02  0.51100000000E-03 0. -1.
         11   -1    0    0    0    0 -0.00000000000E+00 -0.00000000000E+00 -0.45593999997E+02  0.45594000000E+02  0.51100000000E-03 0.  1.
    9900012    2    1    2    0    0 -0.10172284503E+02  0.14024167520E+02  0.36783362236E+02  0.50528826570E+02  0.29999898841E+02 0.  0.
        -12    1    1    2    0    0  0.10172284503E+02 -0.14024167520E+02 -0.36783362236E+02  0.40659173430E+02  0.00000000000E+00 0.  1.
         11    1    3    3    0    0 -0.10870550099E+02  0.34009806041E+01  0.32384402194E+01  0.11841580293E+02  0.51100000000E-03 0.  1.
        -11    1    3    3    0    0  0.64389532182E+01 -0.77869745590E+00  0.12175632428E+02  0.13795380153E+02  0.51100000000E-03 0. -1.
        -12    1    3    3    0    0 -0.57406876226E+01  0.11401884372E+02  0.21369289588E+02  0.24891866124E+02  0.00000000000E+00 0.  1.
</event>
<event>
 7    1  0.5992960E-013  0.5052886E+02  0.7816164E-02  0.1300439E+00
        -11   -1    0    0    0    0  0.00000000000E+00  0.00000000000E+00  0.45593999997E+02  0.45594000000E+02  0.51100000000E-03 0. -1.
         11   -1    0    0    0    0 -0.00000000000E+00 -0.00000000000E+00 -0.45593999997E+02  0.45594000000E+02  0.51100000000E-03 0.  1.
    9900012    2    1    2    0    0  0.83761083420E+01 -0.24781600773E+02  0.31126813325E+02  0.50528862827E+02  0.30000009050E+02 0.  0.
        -12    1    1    2    0    0 -0.83761083420E+01  0.24781600773E+02 -0.31126813325E+02  0.40659137173E+02  0.00000000000E+00 0.  1.
         11    1    3    3    0    0 -0.12922522740E+01  0.18819902275E+01  0.15293237831E+01  0.27478418169E+01  0.51100000000E-03 0. -1.
        -11    1    3    3    0    0 -0.21841110312E+01 -0.66528399873E+01 -0.30983908236E+01  0.76570651591E+01  0.51100000000E-03 0.  1.
         12    1    3    3    0    0  0.11852471647E+02 -0.20010751013E+02  0.32695880366E+02  0.40123955851E+02  0.00000000000E+00 0. -1.
</event>
<event>
 7    1  0.5992960E-013  0.5052886E+02  0.7816164E-02  0.1300439E+00
        -11   -1    0    0    0    0  0.00000000000E+00  0.00000000000E+00  0.45593999997E+02  0.45594000000E+02  0.51100000000E-03 0.  1.
         11   -1    0    0    0    0 -0.00000000000E+00 -0.00000000000E+00 -0.45593999997E+02  0.45594000000E+02  0.51100000000E-03 0. -1.
    9900012    2    1    2    0    0 -0.14812560140E+02 -0.13675547266E+02 -0.35309104970E+02  0.50528862962E+02  0.30000009458E+02 0.  0.
        -12    1    1    2    0    0  0.14812560140E+02  0.13675547266E+02  0.35309104970E+02  0.40659137038E+02  0.00000000000E+00 0.  1.
         11    1    3    3    0    0 -0.78070441215E+01 -0.14564757890E+02 -0.13195477895E+02  0.21147168781E+02  0.51100000000E-03 0. -1.
        -11    1    3    3    0    0 -0.24376018394E+01 -0.80367731473E+01 -0.14632944198E+02  0.16871712465E+02  0.51100000000E-03 0.  1.
        -12    1    3    3    0    0 -0.45679141787E+01  0.89259837707E+01 -0.74806828767E+01  0.12509981715E+02  0.00000000000E+00 0.  1.
</event>
<event>
 7    1  0.5992960E-013  0.5052886E+02  0.7816164E-02  0.1300439E+00
        -11   -1    0    0    0    0  0.00000000000E+00  0.00000000000E+00  0.45593999997E+02  0.45594000000E+02  0.51100000000E-03 0.  1.
         11   -1    0    0    0    0 -0.00000000000E+00 -0.00000000000E+00 -0.45593999997E+02  0.45594000000E+02  0.51100000000E-03 0. -1.
    9900012    2    1    2    0    0  0.62436040481E+01 -0.23190058427E+02 -0.32808601267E+02  0.50528859350E+02  0.29999998479E+02 0.  0.
        -12    1    1    2    0    0 -0.62436040481E+01  0.23190058427E+02  0.32808601267E+02  0.40659140650E+02  0.00000000000E+00 0.  1.
         11    1    3    3    0    0 -0.52656976288E+01  0.17570666457E+00 -0.15595797182E+02  0.16461692937E+02  0.51100000000E-03 0. -1.
        -11    1    3    3    0    0  0.33532942835E+00  0.38670021394E+00 -0.51556100150E+01  0.51809552950E+01  0.51100000000E-03 0.  1.
         12    1    3    3    0    0  0.11173972249E+02 -0.23752465305E+02 -0.12057194070E+02  0.28886211117E+02  0.00000000000E+00 0. -1.
</event>
<event>
 7    1  0.5992960E-013  0.5052886E+02  0.7816164E-02  0.1300439E+00
        -11   -1    0    0    0    0  0.00000000000E+00  0.00000000000E+00  0.45593999997E+02  0.45594000000E+02  0.51100000000E-03 0. -1.
         11   -1    0    0    0    0 -0.00000000000E+00 -0.00000000000E+00 -0.45593999997E+02  0.45594000000E+02  0.51100000000E-03 0.  1.
    9900012    2    1    2    0    0  0.39886669419E+02 -0.71316703189E+01  0.33702637488E+01  0.50528858388E+02  0.29999995555E+02 0.  0.
        -12    1    1    2    0    0 -0.39886669419E+02  0.71316703189E+01 -0.33702637488E+01  0.40659141612E+02  0.00000000000E+00 0.  1.
         11    1    3    3    0    0  0.28640848993E+02 -0.10195178154E+02  0.93296693232E+01  0.31800670096E+02  0.51100000000E-03 0. -1.
        -11    1    3    3    0    0  0.77638521108E+00 -0.20565047379E+01  0.32159540525E+01  0.38954263518E+01  0.51100000000E-03 0.  1.
        -12    1    3    3    0    0  0.10469435216E+02  0.51200125729E+01 -0.91753596270E+01  0.14832761940E+02  0.00000000000E+00 0.  1.
</event>
<event>
 7    1  0.5992960E-013  0.5052886E+02  0.7816164E-02  0.1300439E+00
        -11   -1    0    0    0    0  0.00000000000E+00  0.00000000000E+00  0.45593999997E+02  0.45594000000E+02  0.51100000000E-03 0.  1.
         11   -1    0    0    0    0 -0.00000000000E+00 -0.00000000000E+00 -0.45593999997E+02  0.45594000000E+02  0.51100000000E-03 0. -1.
    9900012    2    1    2    0    0  0.33868528991E+02 -0.20158465444E+02 -0.99862212834E+01  0.50528860799E+02  0.30000002884E+02 0.  0.
        -12    1    1    2    0    0 -0.33868528991E+02  0.20158465444E+02  0.99862212834E+01  0.40659139201E+02  0.00000000000E+00 0.  1.
         11    1    3    3    0    0  0.33845167442E+01  0.13672720122E-01  0.43339741618E+00  0.34121802585E+01  0.51100000000E-03 0. -1.
        -11    1    3    3    0    0  0.13450833887E+02 -0.39891960670E+01  0.89714470984E+01  0.16653092230E+02  0.51100000000E-03 0.  1.
         12    1    3    3    0    0  0.17033178360E+02 -0.16182942097E+02 -0.19391065798E+02  0.30463588311E+02  0.00000000000E+00 0. -1.
</event>
<event>
 7    1  0.5992960E-013  0.5052886E+02  0.7816164E-02  0.1300439E+00
        -11   -1    0    0    0    0  0.00000000000E+00  0.00000000000E+00  0.45593999997E+02  0.45594000000E+02  0.51100000000E-03 0. -1.
         11   -1    0    0    0    0 -0.00000000000E+00 -0.00000000000E+00 -0.45593999997E+02  0.45594000000E+02  0.51100000000E-03 0.  1.
    9900012    2    1    2    0    0 -0.15678027676E+02  0.31351305066E+02  0.20602448716E+02  0.50528858663E+02  0.29999996393E+02 0.  0.
        -12    1    1    2    0    0  0.15678027676E+02 -0.31351305066E+02 -0.20602448716E+02  0.40659141337E+02  0.00000000000E+00 0.  1.
         11    1    3    3    0    0  0.20740888533E+00 -0.27599126167E+01  0.21876906880E+01  0.35279068731E+01  0.51100000000E-03 0.  1.
        -11    1    3    3    0    0 -0.18909045937E+02  0.15731900247E+02  0.11173781976E+02  0.27016626502E+02  0.51100000000E-03 0. -1.
         12    1    3    3    0    0  0.30236093758E+01  0.18379317436E+02  0.72409760519E+01  0.19984325289E+02  0.00000000000E+00 0. -1.
</event>
<event>
 7    1  0.5992960E-013  0.5052886E+02  0.7816164E-02  0.1300439E+00
        -11   -1    0    0    0    0  0.00000000000E+00  0.00000000000E+00  0.45593999997E+02  0.45594000000E+02  0.51100000000E-03 0.  1.
         11   -1    0    0    0    0 -0.00000000000E+00 -0.00000000000E+00 -0.45593999997E+02  0.45594000000E+02  0.51100000000E-03 0. -1.
    9900012    2    1    2    0    0  0.32363652010E+02 -0.54737044964E+01 -0.23995801925E+02  0.50528856842E+02  0.29999990857E+02 0.  0.
        -12    1    1    2    0    0 -0.32363652010E+02  0.54737044964E+01  0.23995801925E+02  0.40659143158E+02  0.00000000000E+00 0.  1.
         11    1    3    3    0    0  0.15211303337E+02 -0.66534993737E+01 -0.12862250987E+02  0.21002149981E+02  0.51100000000E-03 0. -1.
        -11    1    3    3    0    0  0.22019336218E+01  0.67556592694E+01 -0.11554918400E+02  0.13564792049E+02  0.51100000000E-03 0.  1.
         12    1    3    3    0    0  0.14950415051E+02 -0.55758643921E+01  0.42136746182E+00  0.15961914812E+02  0.00000000000E+00 0. -1.
</event>
<event>
 7    1  0.5992960E-013  0.5052886E+02  0.7816164E-02  0.1300439E+00
        -11   -1    0    0    0    0  0.00000000000E+00  0.00000000000E+00  0.45593999997E+02  0.45594000000E+02  0.51100000000E-03 0.  1.
         11   -1    0    0    0    0 -0.00000000000E+00 -0.00000000000E+00 -0.45593999997E+02  0.45594000000E+02  0.51100000000E-03 0. -1.
    9900012    2    1    2    0    0 -0.11973932498E+02  0.21890749384E+02 -0.32102734146E+02  0.50528861941E+02  0.30000006356E+02 0.  0.
        -12    1    1    2    0    0  0.11973932498E+02 -0.21890749384E+02  0.32102734146E+02  0.40659138059E+02  0.00000000000E+00 0.  1.
         11    1    3    3    0    0 -0.30925346578E+01  0.80879131768E+01 -0.67877278679E+01  0.11002334299E+02  0.51100000000E-03 0. -1.
        -11    1    3    3    0    0 -0.15059438406E+02  0.14312071713E+02 -0.26009919459E+02  0.33288706679E+02  0.51100000000E-03 0.  1.
        -12    1    3    3    0    0  0.61780405661E+01 -0.50923550625E+00  0.69491318066E+00  0.62378209630E+01  0.00000000000E+00 0.  1.
</event>
<event>
 7    1  0.5992960E-013  0.5052886E+02  0.7816164E-02  0.1300439E+00
        -11   -1    0    0    0    0  0.00000000000E+00  0.00000000000E+00  0.45593999997E+02  0.45594000000E+02  0.51100000000E-03 0. -1.
         11   -1    0    0    0    0 -0.00000000000E+00 -0.00000000000E+00 -0.45593999997E+02  0.45594000000E+02  0.51100000000E-03 0.  1.
    9900012    2    1    2    0    0 -0.13209858650E+02  0.31086442032E+02  0.22634016129E+02  0.50528856749E+02  0.29999990575E+02 0.  0.
        -12    1    1    2    0    0  0.13209858650E+02 -0.31086442032E+02 -0.22634016129E+02  0.40659143251E+02  0.00000000000E+00 0.  1.
         11    1    3    3    0    0 -0.14485026702E+02  0.16159926168E+02  0.88900698241E+01  0.23451920051E+02  0.51100000000E-03 0. -1.
        -11    1    3    3    0    0  0.39715584344E+01  0.16609951924E+02  0.15820630863E+02  0.23279951471E+02  0.51100000000E-03 0.  1.
        -12    1    3    3    0    0 -0.26963903824E+01 -0.16834360602E+01 -0.20766845585E+01  0.37969852276E+01  0.00000000000E+00 0.  1.
</event>
<event>
 7    1  0.5992960E-013  0.5052886E+02  0.7816164E-02  0.1300439E+00
        -11   -1    0    0    0    0  0.00000000000E+00  0.00000000000E+00  0.45593999997E+02  0.45594000000E+02  0.51100000000E-03 0.  1.
         11   -1    0    0    0    0 -0.00000000000E+00 -0.00000000000E+00 -0.45593999997E+02  0.45594000000E+02  0.51100000000E-03 0. -1.
    9900012    2    1    2    0    0 -0.19373982836E+02  0.35546809832E+02 -0.37734422853E+01  0.50528858754E+02  0.29999996670E+02 0.  0.
        -12    1    1    2    0    0  0.19373982836E+02 -0.35546809832E+02  0.37734422853E+01  0.40659141246E+02  0.00000000000E+00 0.  1.
         11    1    3    3    0    0 -0.55744670679E+01  0.83209878776E+01 -0.29675890386E+01  0.10446057022E+02  0.51100000000E-03 0. -1.
        -11    1    3    3    0    0 -0.16101533338E+02  0.89577954525E+01 -0.82935368648E+01  0.20206044373E+02  0.51100000000E-03 0.  1.
        -12    1    3    3    0    0  0.23020175698E+01  0.18268026502E+02  0.74876836182E+01  0.19876757359E+02  0.00000000000E+00 0.  1.
</event>
<event>
 7    1  0.5992960E-013  0.5052886E+02  0.7816164E-02  0.1300439E+00
        -11   -1    0    0    0    0  0.00000000000E+00  0.00000000000E+00  0.45593999997E+02  0.45594000000E+02  0.51100000000E-03 0. -1.
         11   -1    0    0    0    0 -0.00000000000E+00 -0.00000000000E+00 -0.45593999997E+02  0.45594000000E+02  0.51100000000E-03 0.  1.
    9900012    2    1    2    0    0 -0.14614541358E+02 -0.37233464435E+02  0.72972344769E+01  0.50528864201E+02  0.30000013225E+02 0.  0.
        -12    1    1    2    0    0  0.14614541358E+02  0.37233464435E+02 -0.72972344769E+01  0.40659135799E+02  0.00000000000E+00 0.  1.
         11    1    3    3    0    0  0.30105597798E+01 -0.84296956881E+01  0.21113597083E+01  0.91967972501E+01  0.51100000000E-03 0.  1.
        -11    1    3    3    0    0 -0.46990411475E+01 -0.20395049694E+02  0.12379262547E+02  0.24316356248E+02  0.51100000000E-03 0. -1.
         12    1    3    3    0    0 -0.12926059990E+02 -0.84087190528E+01 -0.71933877784E+01  0.17015710702E+02  0.00000000000E+00 0. -1.
</event>
<event>
 7    1  0.5992960E-013  0.5052886E+02  0.7816164E-02  0.1300439E+00
        -11   -1    0    0    0    0  0.00000000000E+00  0.00000000000E+00  0.45593999997E+02  0.45594000000E+02  0.51100000000E-03 0.  1.
         11   -1    0    0    0    0 -0.00000000000E+00 -0.00000000000E+00 -0.45593999997E+02  0.45594000000E+02  0.51100000000E-03 0. -1.
    9900012    2    1    2    0    0 -0.18278195105E+02 -0.32238498062E+02  0.16725804702E+02  0.50528859373E+02  0.29999998550E+02 0.  0.
        -12    1    1    2    0    0  0.18278195105E+02  0.32238498062E+02 -0.16725804702E+02  0.40659140627E+02  0.00000000000E+00 0.  1.
         11    1    3    3    0    0 -0.44005489046E+01 -0.11754954941E+02 -0.59624811019E+01  0.13895861883E+02  0.51100000000E-03 0. -1.
        -11    1    3    3    0    0  0.30114424229E+01 -0.16377927855E+01  0.32401027259E+01  0.47169287264E+01  0.51100000000E-03 0.  1.
        -12    1    3    3    0    0 -0.16889088624E+02 -0.18845750335E+02  0.19448183078E+02  0.31916068763E+02  0.00000000000E+00 0.  1.
</event>
<event>
 7    1  0.5992960E-013  0.5052887E+02  0.7816164E-02  0.1300439E+00
        -11   -1    0    0    0    0  0.00000000000E+00  0.00000000000E+00  0.45593999997E+02  0.45594000000E+02  0.51100000000E-03 0.  1.
         11   -1    0    0    0    0 -0.00000000000E+00 -0.00000000000E+00 -0.45593999997E+02  0.45594000000E+02  0.51100000000E-03 0. -1.
    9900012    2    1    2    0    0  0.34249959537E+02  0.20523407031E+02 -0.76743110245E+01  0.50528868010E+02  0.30000024805E+02 0.  0.
        -12    1    1    2    0    0 -0.34249959537E+02 -0.20523407031E+02  0.76743110245E+01  0.40659131990E+02  0.00000000000E+00 0.  1.
         11    1    3    3    0    0  0.10509473699E+00 -0.12309165541E+01 -0.17274769396E+01  0.21237648893E+01  0.51100000000E-03 0. -1.
        -11    1    3    3    0    0  0.32552987832E+01 -0.44733889722E+01 -0.56132422192E+01  0.78814127881E+01  0.51100000000E-03 0.  1.
         12    1    3    3    0    0  0.30889566017E+02  0.26227712557E+02 -0.33359186568E+00  0.40523690333E+02  0.00000000000E+00 0. -1.
</event>
<event>
 7    1  0.5992960E-013  0.5052887E+02  0.7816164E-02  0.1300439E+00
        -11   -1    0    0    0    0  0.00000000000E+00  0.00000000000E+00  0.45593999997E+02  0.45594000000E+02  0.51100000000E-03 0.  1.
         11   -1    0    0    0    0 -0.00000000000E+00 -0.00000000000E+00 -0.45593999997E+02  0.45594000000E+02  0.51100000000E-03 0. -1.
    9900012    2    1    2    0    0  0.14309137833E+02  0.26424987286E+02 -0.27388570095E+02  0.50528866335E+02  0.30000019710E+02 0.  0.
        -12    1    1    2    0    0 -0.14309137833E+02 -0.26424987286E+02  0.27388570095E+02  0.40659133665E+02  0.00000000000E+00 0.  1.
         11    1    3    3    0    0  0.11093897706E+01  0.29354907411E+01  0.70477520720E+00  0.32162959919E+01  0.51100000000E-03 0. -1.
        -11    1    3    3    0    0  0.18186078794E+02  0.26555466486E+02 -0.23081608590E+02  0.39606652440E+02  0.51100000000E-03 0.  1.
        -12    1    3    3    0    0 -0.49863307314E+01 -0.30659699411E+01 -0.50117367127E+01  0.77059179025E+01  0.00000000000E+00 0.  1.
</event>
<event>
 7    1  0.5992960E-013  0.5052886E+02  0.7816164E-02  0.1300439E+00
        -11   -1    0    0    0    0  0.00000000000E+00  0.00000000000E+00  0.45593999997E+02  0.45594000000E+02  0.51100000000E-03 0.  1.
         11   -1    0    0    0    0 -0.00000000000E+00 -0.00000000000E+00 -0.45593999997E+02  0.45594000000E+02  0.51100000000E-03 0. -1.
    9900012    2    1    2    0    0 -0.57093202673E+01  0.10075493551E+02 -0.38975038923E+02  0.50528861208E+02  0.30000004129E+02 0.  0.
        -12    1    1    2    0    0  0.57093202673E+01 -0.10075493551E+02  0.38975038923E+02  0.40659138792E+02  0.00000000000E+00 0.  1.
         11    1    3    3    0    0 -0.62804333474E+01  0.27047847697E+01 -0.44750967442E+01  0.81722821055E+01  0.51100000000E-03 0. -1.
        -11    1    3    3    0    0 -0.41778588817E+01  0.11213496832E+02 -0.63412512940E+01  0.13542838856E+02  0.51100000000E-03 0.  1.
        -12    1    3    3    0    0  0.47489719617E+01 -0.38427880504E+01 -0.28158690885E+02  0.28813740247E+02  0.00000000000E+00 0.  1.
</event>
<event>
 7    1  0.5992960E-013  0.5052885E+02  0.7816164E-02  0.1300439E+00
        -11   -1    0    0    0    0  0.00000000000E+00  0.00000000000E+00  0.45593999997E+02  0.45594000000E+02  0.51100000000E-03 0.  1.
         11   -1    0    0    0    0 -0.00000000000E+00 -0.00000000000E+00 -0.45593999997E+02  0.45594000000E+02  0.51100000000E-03 0. -1.
    9900012    2    1    2    0    0  0.10956931269E+02 -0.27969366547E+02 -0.27401217608E+02  0.50528849317E+02  0.29999967984E+02 0.  0.
        -12    1    1    2    0    0 -0.10956931269E+02  0.27969366547E+02  0.27401217608E+02  0.40659150683E+02  0.00000000000E+00 0.  1.
         11    1    3    3    0    0  0.11934867913E+02 -0.11505940631E+02 -0.10536750824E+02  0.19643086827E+02  0.51100000000E-03 0. -1.
        -11    1    3    3    0    0  0.57733157101E+01 -0.15064811358E+02 -0.45332705730E+01  0.16757990867E+02  0.51100000000E-03 0.  1.
        -12    1    3    3    0    0 -0.67512523545E+01 -0.13986145574E+01 -0.12331196211E+02  0.14127771622E+02  0.00000000000E+00 0.  1.
</event>
<event>
 7    1  0.6774783E-013  0.5052884E+02  0.7816164E-02  0.1300439E+00
        -11   -1    0    0    0    0  0.00000000000E+00  0.00000000000E+00  0.45593999997E+02  0.45594000000E+02  0.51100000000E-03 0. -1.
         11   -1    0    0    0    0 -0.00000000000E+00 -0.00000000000E+00 -0.45593999997E+02  0.45594000000E+02  0.51100000000E-03 0.  1.
    9900012    2    1    2    0    0 -0.12380963738E+02  0.35521353522E+02  0.15430887810E+02  0.50528842142E+02  0.29999946176E+02 0.  0.
        -12    1    1    2    0    0  0.12380963738E+02 -0.35521353522E+02 -0.15430887810E+02  0.40659157858E+02  0.00000000000E+00 0.  1.
         11    1    3    3    0    0 -0.87275532889E+00  0.20369866839E+02  0.97305590967E+01  0.22591524019E+02  0.51100000000E-03 0. -1.
        -11    1    3    3    0    0  0.39451924686E+01 -0.44553364326E+00  0.44236274138E+01  0.59440326041E+01  0.51100000000E-03 0.  1.
         12    1    3    3    0    0 -0.15453400877E+02  0.15597020326E+02  0.12767012992E+01  0.21993285519E+02  0.00000000000E+00 0. -1.
</event>
<event>
 7    1  0.5992960E-013  0.5052886E+02  0.7816164E-02  0.1300439E+00
        -11   -1    0    0    0    0  0.00000000000E+00  0.00000000000E+00  0.45593999997E+02  0.45594000000E+02  0.51100000000E-03 0. -1.
         11   -1    0    0    0    0 -0.00000000000E+00 -0.00000000000E+00 -0.45593999997E+02  0.45594000000E+02  0.51100000000E-03 0.  1.
    9900012    2    1    2    0    0  0.37063185803E+02  0.16147405704E+02  0.43298355327E+01  0.50528856765E+02  0.29999990623E+02 0.  0.
        -12    1    1    2    0    0 -0.37063185803E+02 -0.16147405704E+02 -0.43298355327E+01  0.40659143235E+02  0.00000000000E+00 0.  1.
         11    1    3    3    0    0  0.19330796105E+02  0.11656442266E+01  0.99556544358E+01  0.21775065098E+02  0.51100000000E-03 0. -1.
        -11    1    3    3    0    0 -0.15403037147E+01 -0.13602611621E+01  0.14479116176E+01  0.25138206531E+01  0.51100000000E-03 0.  1.
         12    1    3    3    0    0  0.19272693413E+02  0.16342022639E+02 -0.70737305207E+01  0.26239971014E+02  0.00000000000E+00 0. -1.
</event>
<event>
 7    1  0.5992960E-013  0.5052885E+02  0.7816164E-02  0.1300439E+00
        -11   -1    0    0    0    0  0.00000000000E+00  0.00000000000E+00  0.45593999997E+02  0.45594000000E+02  0.51100000000E-03 0.  1.
         11   -1    0    0    0    0 -0.00000000000E+00 -0.00000000000E+00 -0.45593999997E+02  0.45594000000E+02  0.51100000000E-03 0. -1.
    9900012    2    1    2    0    0  0.48631329725E+01  0.32085839721E+02 -0.24495216987E+02  0.50528845703E+02  0.29999956998E+02 0.  0.
        -12    1    1    2    0    0 -0.48631329725E+01 -0.32085839721E+02  0.24495216987E+02  0.40659154297E+02  0.00000000000E+00 0.  1.
         11    1    3    3    0    0  0.45820635669E+00  0.12710697739E+02 -0.20374274957E+02  0.24018386090E+02  0.51100000000E-03 0. -1.
        -11    1    3    3    0    0  0.48656954154E+01  0.57049565816E+01 -0.92457040062E+01  0.11903972627E+02  0.51100000000E-03 0.  1.
         12    1    3    3    0    0 -0.46076879956E+00  0.13670185400E+02  0.51247619758E+01  0.14606486986E+02  0.00000000000E+00 0. -1.
</event>
<event>
 7    1  0.5992960E-013  0.5052886E+02  0.7816164E-02  0.1300439E+00
        -11   -1    0    0    0    0  0.00000000000E+00  0.00000000000E+00  0.45593999997E+02  0.45594000000E+02  0.51100000000E-03 0.  1.
         11   -1    0    0    0    0 -0.00000000000E+00 -0.00000000000E+00 -0.45593999997E+02  0.45594000000E+02  0.51100000000E-03 0. -1.
    9900012    2    1    2    0    0 -0.31325665403E+02  0.24211911500E+02 -0.92548034248E+01  0.50528863784E+02  0.30000011957E+02 0.  0.
        -12    1    1    2    0    0  0.31325665403E+02 -0.24211911500E+02  0.92548034248E+01  0.40659136216E+02  0.00000000000E+00 0.  1.
         11    1    3    3    0    0 -0.21218967222E+02  0.18080942543E+02 -0.11183391476E+02  0.30037198577E+02  0.51100000000E-03 0.  1.
        -11    1    3    3    0    0 -0.12621474890E+02  0.32324838234E+01 -0.38223982473E+01  0.13577971449E+02  0.51100000000E-03 0. -1.
        -12    1    3    3    0    0  0.25147767081E+01  0.28984851332E+01  0.57509862984E+01  0.69136937568E+01  0.00000000000E+00 0.  1.
</event>
<event>
 7    1  0.5992960E-013  0.5052885E+02  0.7816164E-02  0.1300439E+00
        -11   -1    0    0    0    0  0.00000000000E+00  0.00000000000E+00  0.45593999997E+02  0.45594000000E+02  0.51100000000E-03 0.  1.
         11   -1    0    0    0    0 -0.00000000000E+00 -0.00000000000E+00 -0.45593999997E+02  0.45594000000E+02  0.51100000000E-03 0. -1.
    9900012    2    1    2    0    0 -0.14890496262E+02 -0.36639256345E+02 -0.94342091066E+01  0.50528852371E+02  0.29999977267E+02 0.  0.
        -12    1    1    2    0    0  0.14890496262E+02  0.36639256345E+02  0.94342091066E+01  0.40659147629E+02  0.00000000000E+00 0.  1.
         11    1    3    3    0    0 -0.74085349622E+01 -0.86501082970E+01  0.11555342696E+01  0.11447533514E+02  0.51100000000E-03 0. -1.
        -11    1    3    3    0    0 -0.14952634596E+02 -0.12562617167E+02 -0.12689703086E+01  0.19570664714E+02  0.51100000000E-03 0.  1.
         12    1    3    3    0    0  0.74706732961E+01 -0.15426530882E+02 -0.93207730676E+01  0.19510654144E+02  0.00000000000E+00 0. -1.
</event>
<event>
 7    1  0.5992960E-013  0.5052885E+02  0.7816164E-02  0.1300439E+00
        -11   -1    0    0    0    0  0.00000000000E+00  0.00000000000E+00  0.45593999997E+02  0.45594000000E+02  0.51100000000E-03 0.  1.
         11   -1    0    0    0    0 -0.00000000000E+00 -0.00000000000E+00 -0.45593999997E+02  0.45594000000E+02  0.51100000000E-03 0. -1.
    9900012    2    1    2    0    0 -0.17993692346E+00  0.93148046516E+01 -0.39577371307E+02  0.50528852412E+02  0.29999977391E+02 0.  0.
        -12    1    1    2    0    0  0.17993692346E+00 -0.93148046516E+01  0.39577371307E+02  0.40659147588E+02  0.00000000000E+00 0.  1.
         11    1    3    3    0    0  0.58978108965E+01  0.65601982995E+01 -0.42519541321E+01  0.97928284628E+01  0.51100000000E-03 0. -1.
        -11    1    3    3    0    0  0.39616538086E+01  0.67548213739E-01 -0.51094344999E-01  0.39625590915E+01  0.51100000000E-03 0.  1.
         12    1    3    3    0    0 -0.10039401629E+02  0.26870581384E+01 -0.35274322830E+02  0.36773464858E+02  0.00000000000E+00 0. -1.
</event>
<event>
 7    1  0.5992960E-013  0.5052886E+02  0.7816164E-02  0.1300439E+00
        -11   -1    0    0    0    0  0.00000000000E+00  0.00000000000E+00  0.45593999997E+02  0.45594000000E+02  0.51100000000E-03 0. -1.
         11   -1    0    0    0    0 -0.00000000000E+00 -0.00000000000E+00 -0.45593999997E+02  0.45594000000E+02  0.51100000000E-03 0.  1.
    9900012    2    1    2    0    0 -0.24937448845E+01  0.23312255773E+02  0.33218755716E+02  0.50528858788E+02  0.29999996771E+02 0.  0.
        -12    1    1    2    0    0  0.24937448845E+01 -0.23312255773E+02 -0.33218755716E+02  0.40659141212E+02  0.00000000000E+00 0.  1.
         11    1    3    3    0    0  0.77295113602E+00  0.19010321561E+02  0.20056343525E+02  0.27645012121E+02  0.51100000000E-03 0. -1.
        -11    1    3    3    0    0  0.44146579862E+01  0.87613212156E+01  0.75193530393E+01  0.12360850495E+02  0.51100000000E-03 0.  1.
        -12    1    3    3    0    0 -0.76813540067E+01 -0.44593870038E+01  0.56430591518E+01  0.10522996171E+02  0.00000000000E+00 0.  1.
</event>
<event>
 7    1  0.5992960E-013  0.5052886E+02  0.7816164E-02  0.1300439E+00
        -11   -1    0    0    0    0  0.00000000000E+00  0.00000000000E+00  0.45593999997E+02  0.45594000000E+02  0.51100000000E-03 0.  1.
         11   -1    0    0    0    0 -0.00000000000E+00 -0.00000000000E+00 -0.45593999997E+02  0.45594000000E+02  0.51100000000E-03 0. -1.
    9900012    2    1    2    0    0  0.32117178411E+02  0.24477364313E+01 -0.24812520878E+02  0.50528858900E+02  0.29999997111E+02 0.  0.
        -12    1    1    2    0    0 -0.32117178411E+02 -0.24477364313E+01  0.24812520878E+02  0.40659141100E+02  0.00000000000E+00 0.  1.
         11    1    3    3    0    0  0.11893578449E+02 -0.25133894576E+01 -0.11133329046E+02  0.16484093872E+02  0.51100000000E-03 0. -1.
        -11    1    3    3    0    0  0.10920109603E+02 -0.30822763031E+01  0.44076227325E+01  0.12172771227E+02  0.51100000000E-03 0.  1.
         12    1    3    3    0    0  0.93034903592E+01  0.80434021920E+01 -0.18086814565E+02  0.21871993800E+02  0.00000000000E+00 0. -1.
</event>
<event>
 7    1  0.5992960E-013  0.5052885E+02  0.7816164E-02  0.1300439E+00
        -11   -1    0    0    0    0  0.00000000000E+00  0.00000000000E+00  0.45593999997E+02  0.45594000000E+02  0.51100000000E-03 0.  1.
         11   -1    0    0    0    0 -0.00000000000E+00 -0.00000000000E+00 -0.45593999997E+02  0.45594000000E+02  0.51100000000E-03 0. -1.
    9900012    2    1    2    0    0 -0.85520242727E+01 -0.39114431467E+02 -0.70774841235E+01  0.50528847898E+02  0.29999963672E+02 0.  0.
        -12    1    1    2    0    0  0.85520242727E+01  0.39114431467E+02  0.70774841235E+01  0.40659152102E+02  0.00000000000E+00 0.  1.
         11    1    3    3    0    0 -0.53225439849E+01 -0.91177923562E+01 -0.10993525888E+00  0.10558205243E+02  0.51100000000E-03 0. -1.
        -11    1    3    3    0    0 -0.95748408734E+01 -0.31397197467E+02 -0.51777127002E+01  0.33230562673E+02  0.51100000000E-03 0.  1.
        -12    1    3    3    0    0  0.63453605856E+01  0.14005583566E+01 -0.17898361645E+01  0.67400799823E+01  0.00000000000E+00 0.  1.
</event>
<event>
 7    1  0.5992960E-013  0.5052886E+02  0.7816164E-02  0.1300439E+00
        -11   -1    0    0    0    0  0.00000000000E+00  0.00000000000E+00  0.45593999997E+02  0.45594000000E+02  0.51100000000E-03 0.  1.
         11   -1    0    0    0    0 -0.00000000000E+00 -0.00000000000E+00 -0.45593999997E+02  0.45594000000E+02  0.51100000000E-03 0. -1.
    9900012    2    1    2    0    0 -0.73920206943E+01 -0.55163072785E+01 -0.39599168619E+02  0.50528858700E+02  0.29999996504E+02 0.  0.
        -12    1    1    2    0    0  0.73920206943E+01  0.55163072785E+01  0.39599168619E+02  0.40659141300E+02  0.00000000000E+00 0.  1.
         11    1    3    3    0    0 -0.11411886465E+01  0.96068652423E+01 -0.12049578773E+02  0.15452718860E+02  0.51100000000E-03 0. -1.
        -11    1    3    3    0    0 -0.16173932475E+01 -0.21484218794E+00  0.14230770214E+01  0.21650095964E+01  0.51100000000E-03 0.  1.
        -12    1    3    3    0    0 -0.46334388003E+01 -0.14908330333E+02 -0.28972666868E+02  0.32911130243E+02  0.00000000000E+00 0.  1.
</event>
<event>
 7    1  0.5992960E-013  0.5052886E+02  0.7816164E-02  0.1300439E+00
        -11   -1    0    0    0    0  0.00000000000E+00  0.00000000000E+00  0.45593999997E+02  0.45594000000E+02  0.51100000000E-03 0.  1.
         11   -1    0    0    0    0 -0.00000000000E+00 -0.00000000000E+00 -0.45593999997E+02  0.45594000000E+02  0.51100000000E-03 0. -1.
    9900012    2    1    2    0    0  0.41282218825E+01 -0.39513109656E+02 -0.86508803566E+01  0.50528858574E+02  0.29999996121E+02 0.  0.
        -12    1    1    2    0    0 -0.41282218825E+01  0.39513109656E+02  0.86508803566E+01  0.40659141426E+02  0.00000000000E+00 0.  1.
         11    1    3    3    0    0  0.76686913439E+00 -0.10345055661E+00  0.48987913590E+01  0.49595309583E+01  0.51100000000E-03 0. -1.
        -11    1    3    3    0    0  0.36273724899E+01 -0.10201956997E+02  0.39426919636E+01  0.11523132297E+02  0.51100000000E-03 0.  1.
         12    1    3    3    0    0 -0.26601974179E+00 -0.29207702102E+02 -0.17492363679E+02  0.34046195319E+02  0.00000000000E+00 0. -1.
</event>
<event>
 7    1  0.5992960E-013  0.5052886E+02  0.7816164E-02  0.1300439E+00
        -11   -1    0    0    0    0  0.00000000000E+00  0.00000000000E+00  0.45593999997E+02  0.45594000000E+02  0.51100000000E-03 0. -1.
         11   -1    0    0    0    0 -0.00000000000E+00 -0.00000000000E+00 -0.45593999997E+02  0.45594000000E+02  0.51100000000E-03 0.  1.
    9900012    2    1    2    0    0 -0.36578492807E+02  0.10674904326E+02  0.14185423602E+02  0.50528856364E+02  0.29999989405E+02 0.  0.
        -12    1    1    2    0    0  0.36578492807E+02 -0.10674904326E+02 -0.14185423602E+02  0.40659143636E+02  0.00000000000E+00 0.  1.
         11    1    3    3    0    0 -0.27589016456E+01  0.57350487546E+01 -0.56664213178E+01  0.85211884922E+01  0.51100000000E-03 0. -1.
        -11    1    3    3    0    0 -0.70548191579E+00 -0.28550719257E+01  0.95322166063E+00  0.30915646896E+01  0.51100000000E-03 0.  1.
         12    1    3    3    0    0 -0.33114109246E+02  0.77949274970E+01  0.18898623259E+02  0.38916103183E+02  0.00000000000E+00 0. -1.
</event>
<event>
 7    1  0.5992960E-013  0.5052886E+02  0.7816164E-02  0.1300439E+00
        -11   -1    0    0    0    0  0.00000000000E+00  0.00000000000E+00  0.45593999997E+02  0.45594000000E+02  0.51100000000E-03 0.  1.
         11   -1    0    0    0    0 -0.00000000000E+00 -0.00000000000E+00 -0.45593999997E+02  0.45594000000E+02  0.51100000000E-03 0. -1.
    9900012    2    1    2    0    0  0.53973163627E+01  0.85101225866E+01 -0.39390510114E+02  0.50528862068E+02  0.30000006742E+02 0.  0.
        -12    1    1    2    0    0 -0.53973163627E+01 -0.85101225866E+01  0.39390510114E+02  0.40659137932E+02  0.00000000000E+00 0.  1.
         11    1    3    3    0    0  0.52021712051E+01  0.97839740552E+00 -0.14250108530E+02  0.15201494667E+02  0.51100000000E-03 0. -1.
        -11    1    3    3    0    0  0.60987349236E+01  0.12320609740E+02 -0.23975082238E+02  0.27636869587E+02  0.51100000000E-03 0.  1.
        -12    1    3    3    0    0 -0.59035897661E+01 -0.47888845587E+01 -0.11653193459E+01  0.76904978135E+01  0.00000000000E+00 0.  1.
</event>
<event>
 7    1  0.5992960E-013  0.5052886E+02  0.7816164E-02  0.1300439E+00
        -11   -1    0    0    0    0  0.00000000000E+00  0.00000000000E+00  0.45593999997E+02  0.45594000000E+02  0.51100000000E-03 0.  1.
         11   -1    0    0    0    0 -0.00000000000E+00 -0.00000000000E+00 -0.45593999997E+02  0.45594000000E+02  0.51100000000E-03 0. -1.
    9900012    2    1    2    0    0 -0.15185870198E+02 -0.17048107002E+02 -0.33643977372E+02  0.50528858107E+02  0.29999994703E+02 0.  0.
        -12    1    1    2    0    0  0.15185870198E+02  0.17048107002E+02  0.33643977372E+02  0.40659141893E+02  0.00000000000E+00 0.  1.
         11    1    3    3    0    0 -0.10341062473E+02 -0.17780669329E+02 -0.23485176735E+02  0.31219277721E+02  0.51100000000E-03 0. -1.
        -11    1    3    3    0    0 -0.10241927816E+02 -0.18632617189E+01 -0.69297927333E+01  0.12505633019E+02  0.51100000000E-03 0.  1.
        -12    1    3    3    0    0  0.53971200903E+01  0.25958240456E+01 -0.32290079035E+01  0.68039473680E+01  0.00000000000E+00 0.  1.
</event>
<event>
 7    1  0.5992960E-013  0.5052887E+02  0.7816164E-02  0.1300439E+00
        -11   -1    0    0    0    0  0.00000000000E+00  0.00000000000E+00  0.45593999997E+02  0.45594000000E+02  0.51100000000E-03 0. -1.
         11   -1    0    0    0    0 -0.00000000000E+00 -0.00000000000E+00 -0.45593999997E+02  0.45594000000E+02  0.51100000000E-03 0.  1.
    9900012    2    1    2    0    0  0.29859434268E+02  0.27548827039E+02  0.16252839058E+01  0.50528865309E+02  0.30000016594E+02 0.  0.
        -12    1    1    2    0    0 -0.29859434268E+02 -0.27548827039E+02 -0.16252839058E+01  0.40659134691E+02  0.00000000000E+00 0.  1.
         11    1    3    3    0    0  0.25595396154E+02  0.24692718269E+02  0.15570362605E+01  0.35598862369E+02  0.51100000000E-03 0. -1.
        -11    1    3    3    0    0  0.61138670017E+01  0.71999899421E+01  0.22790831456E+01  0.97166581254E+01  0.51100000000E-03 0.  1.
        -12    1    3    3    0    0 -0.18498288872E+01 -0.43438811724E+01 -0.22108355002E+01  0.52133448151E+01  0.00000000000E+00 0.  1.
</event>
<event>
 7    1  0.5992960E-013  0.5052886E+02  0.7816164E-02  0.1300439E+00
        -11   -1    0    0    0    0  0.00000000000E+00  0.00000000000E+00  0.45593999997E+02  0.45594000000E+02  0.51100000000E-03 0. -1.
         11   -1    0    0    0    0 -0.00000000000E+00 -0.00000000000E+00 -0.45593999997E+02  0.45594000000E+02  0.51100000000E-03 0.  1.
    9900012    2    1    2    0    0 -0.28442220863E+02 -0.27690892309E+02  0.87988738483E+01  0.50528860493E+02  0.30000001955E+02 0.  0.
        -12    1    1    2    0    0  0.28442220863E+02  0.27690892309E+02 -0.87988738483E+01  0.40659139507E+02  0.00000000000E+00 0.  1.
         11    1    3    3    0    0 -0.64814412364E+01 -0.13844237381E+02  0.67485902267E+01  0.16709741454E+02  0.51100000000E-03 0. -1.
        -11    1    3    3    0    0 -0.47379676373E+01 -0.12205782706E+02 -0.63900979312E+01  0.14569242281E+02  0.51100000000E-03 0.  1.
         12    1    3    3    0    0 -0.17222811989E+02 -0.16408722215E+01  0.84403815528E+01  0.19249876758E+02  0.00000000000E+00 0. -1.
</event>
<event>
 7    1  0.5992960E-013  0.5052885E+02  0.7816164E-02  0.1300439E+00
        -11   -1    0    0    0    0  0.00000000000E+00  0.00000000000E+00  0.45593999997E+02  0.45594000000E+02  0.51100000000E-03 0. -1.
         11   -1    0    0    0    0 -0.00000000000E+00 -0.00000000000E+00 -0.45593999997E+02  0.45594000000E+02  0.51100000000E-03 0.  1.
    9900012    2    1    2    0    0  0.32215677348E+02  0.14884795323E+02  0.19843366010E+02  0.50528853755E+02  0.29999981474E+02 0.  0.
        -12    1    1    2    0    0 -0.32215677348E+02 -0.14884795323E+02 -0.19843366010E+02  0.40659146245E+02  0.00000000000E+00 0.  1.
         11    1    3    3    0    0  0.11756182380E+02 -0.12211965014E+01  0.29678749300E+01  0.12186362333E+02  0.51100000000E-03 0. -1.
        -11    1    3    3    0    0  0.93657481811E+01 -0.23968180250E+01  0.13349628714E+02  0.16482553282E+02  0.51100000000E-03 0.  1.
        -12    1    3    3    0    0  0.11093746787E+02  0.18502809849E+02  0.35258623655E+01  0.21859938140E+02  0.00000000000E+00 0.  1.
</event>
<event>
 7    1  0.5992960E-013  0.5052876E+02  0.7816164E-02  0.1300439E+00
        -11   -1    0    0    0    0  0.00000000000E+00  0.00000000000E+00  0.45593999997E+02  0.45594000000E+02  0.51100000000E-03 0.  1.
         11   -1    0    0    0    0 -0.00000000000E+00 -0.00000000000E+00 -0.45593999997E+02  0.45594000000E+02  0.51100000000E-03 0. -1.
    9900012    2    1    2    0    0 -0.31292678557E+02  0.10287658740E+02 -0.23834970534E+02  0.50528763977E+02  0.29999708584E+02 0.  0.
        -12    1    1    2    0    0  0.31292678557E+02 -0.10287658740E+02  0.23834970534E+02  0.40659236023E+02  0.00000000000E+00 0.  1.
         11    1    3    3    0    0 -0.24511289261E+01  0.25758055917E+01 -0.43882080755E+01  0.56479357144E+01  0.51100000000E-03 0. -1.
        -11    1    3    3    0    0  0.18414429559E+01  0.30321848874E+01 -0.12609274982E+02  0.13098811900E+02  0.51100000000E-03 0.  1.
        -12    1    3    3    0    0 -0.30682992587E+02  0.46796682604E+01 -0.68374874762E+01  0.31782016363E+02  0.00000000000E+00 0.  1.
</event>
<event>
 7    1  0.5992960E-013  0.5052882E+02  0.7816164E-02  0.1300439E+00
        -11   -1    0    0    0    0  0.00000000000E+00  0.00000000000E+00  0.45593999997E+02  0.45594000000E+02  0.51100000000E-03 0. -1.
         11   -1    0    0    0    0 -0.00000000000E+00 -0.00000000000E+00 -0.45593999997E+02  0.45594000000E+02  0.51100000000E-03 0.  1.
    9900012    2    1    2    0    0 -0.22090733483E+01 -0.16154386025E+02  0.37246804046E+02  0.50528823858E+02  0.29999890597E+02 0.  0.
        -12    1    1    2    0    0  0.22090733483E+01  0.16154386025E+02 -0.37246804046E+02  0.40659176142E+02  0.00000000000E+00 0.  1.
         11    1    3    3    0    0 -0.79381609397E+01 -0.51551216638E+01  0.55025300733E+01  0.10948402438E+02  0.51100000000E-03 0. -1.
        -11    1    3    3    0    0 -0.53847659809E+01 -0.51308780596E+01  0.26640831505E+01  0.79005666648E+01  0.51100000000E-03 0.  1.
         12    1    3    3    0    0  0.11113853572E+02 -0.58683863016E+01  0.29080190823E+02  0.31679854755E+02  0.00000000000E+00 0. -1.
</event>
<event>
 7    1  0.5992960E-013  0.5052888E+02  0.7816164E-02  0.1300439E+00
        -11   -1    0    0    0    0  0.00000000000E+00  0.00000000000E+00  0.45593999997E+02  0.45594000000E+02  0.51100000000E-03 0. -1.
         11   -1    0    0    0    0 -0.00000000000E+00 -0.00000000000E+00 -0.45593999997E+02  0.45594000000E+02  0.51100000000E-03 0.  1.
    9900012    2    1    2    0    0  0.33670310723E+02  0.20366404637E+02 -0.10231511427E+02  0.50528879398E+02  0.30000059419E+02 0.  0.
        -12    1    1    2    0    0 -0.33670310723E+02 -0.20366404637E+02  0.10231511427E+02  0.40659120602E+02  0.00000000000E+00 0.  1.
         11    1    3    3    0    0 -0.36377494255E+00  0.15556832325E+01 -0.28327883589E+01  0.32522565514E+01  0.51100000000E-03 0. -1.
        -11    1    3    3    0    0  0.42769161811E+01 -0.35571814516E+01 -0.83553905172E+01  0.10037833574E+02  0.51100000000E-03 0.  1.
         12    1    3    3    0    0  0.29757169484E+02  0.22367902856E+02  0.95666744874E+00  0.37238789273E+02  0.00000000000E+00 0. -1.
</event>
<event>
 7    1  0.5992960E-013  0.5052884E+02  0.7816164E-02  0.1300439E+00
        -11   -1    0    0    0    0  0.00000000000E+00  0.00000000000E+00  0.45593999997E+02  0.45594000000E+02  0.51100000000E-03 0.  1.
         11   -1    0    0    0    0 -0.00000000000E+00 -0.00000000000E+00 -0.45593999997E+02  0.45594000000E+02  0.51100000000E-03 0. -1.
    9900012    2    1    2    0    0 -0.37311177199E+02 -0.16141542256E+02 -0.70254455443E+00  0.50528844829E+02  0.29999954343E+02 0.  0.
        -12    1    1    2    0    0  0.37311177199E+02  0.16141542256E+02  0.70254455443E+00  0.40659155171E+02  0.00000000000E+00 0.  1.
         11    1    3    3    0    0 -0.80579690121E+01 -0.99122820838E+01 -0.96892065498E+01  0.16033244355E+02  0.51100000000E-03 0. -1.
        -11    1    3    3    0    0  0.64784161575E+00 -0.29330842337E+01 -0.28435195475E+00  0.30172070159E+01  0.51100000000E-03 0.  1.
        -12    1    3    3    0    0 -0.29901049802E+02 -0.32961759384E+01  0.92710139501E+01  0.31478393459E+02  0.00000000000E+00 0.  1.
</event>
<event>
 7    1  0.5992960E-013  0.5052886E+02  0.7816164E-02  0.1300439E+00
        -11   -1    0    0    0    0  0.00000000000E+00  0.00000000000E+00  0.45593999997E+02  0.45594000000E+02  0.51100000000E-03 0. -1.
         11   -1    0    0    0    0 -0.00000000000E+00 -0.00000000000E+00 -0.45593999997E+02  0.45594000000E+02  0.51100000000E-03 0.  1.
    9900012    2    1    2    0    0  0.38548063333E+02 -0.86432464204E+00  0.12902150501E+02  0.50528859191E+02  0.29999997997E+02 0.  0.
        -12    1    1    2    0    0 -0.38548063333E+02  0.86432464204E+00 -0.12902150501E+02  0.40659140809E+02  0.00000000000E+00 0.  1.
         11    1    3    3    0    0  0.13350091342E+02  0.14879736487E+01 -0.31459140385E+01  0.13796223389E+02  0.51100000000E-03 0. -1.
        -11    1    3    3    0    0  0.18760189510E+02 -0.45932033821E+00 -0.60800409531E+00  0.18775658573E+02  0.51100000000E-03 0.  1.
         12    1    3    3    0    0  0.64377824811E+01 -0.18929779525E+01  0.16656068635E+02  0.17956977228E+02  0.00000000000E+00 0. -1.
</event>
<event>
 7    1  0.5992960E-013  0.5052886E+02  0.7816164E-02  0.1300439E+00
        -11   -1    0    0    0    0  0.00000000000E+00  0.00000000000E+00  0.45593999997E+02  0.45594000000E+02  0.51100000000E-03 0. -1.
         11   -1    0    0    0    0 -0.00000000000E+00 -0.00000000000E+00 -0.45593999997E+02  0.45594000000E+02  0.51100000000E-03 0.  1.
    9900012    2    1    2    0    0 -0.34160207398E+02  0.61238621709E+01  0.21183581051E+02  0.50528861255E+02  0.30000004271E+02 0.  0.
        -12    1    1    2    0    0  0.34160207398E+02 -0.61238621709E+01 -0.21183581051E+02  0.40659138745E+02  0.00000000000E+00 0.  1.
         11    1    3    3    0    0 -0.12223326048E+02  0.53502648931E+01  0.14420775530E+02  0.19646724950E+02  0.51100000000E-03 0. -1.
        -11    1    3    3    0    0 -0.49606979083E+01  0.51671983949E+01  0.10732122925E+02  0.12902981273E+02  0.51100000000E-03 0.  1.
         12    1    3    3    0    0 -0.16976183441E+02 -0.43936011171E+01 -0.39693174045E+01  0.17979155032E+02  0.00000000000E+00 0. -1.
</event>
<event>
 7    1  0.5992960E-013  0.5052886E+02  0.7816164E-02  0.1300439E+00
        -11   -1    0    0    0    0  0.00000000000E+00  0.00000000000E+00  0.45593999997E+02  0.45594000000E+02  0.51100000000E-03 0. -1.
         11   -1    0    0    0    0 -0.00000000000E+00 -0.00000000000E+00 -0.45593999997E+02  0.45594000000E+02  0.51100000000E-03 0.  1.
    9900012    2    1    2    0    0  0.28514792983E+02 -0.26242524348E+02 -0.12304571333E+02  0.50528856149E+02  0.29999988751E+02 0.  0.
        -12    1    1    2    0    0 -0.28514792983E+02  0.26242524348E+02  0.12304571333E+02  0.40659143851E+02  0.00000000000E+00 0.  1.
         11    1    3    3    0    0  0.15865664187E+02 -0.22414979586E+02 -0.66544275052E+01  0.28256539343E+02  0.51100000000E-03 0. -1.
        -11    1    3    3    0    0 -0.22632765937E+01 -0.34271904153E+01 -0.60929923616E+01  0.73479664712E+01  0.51100000000E-03 0.  1.
         12    1    3    3    0    0  0.14912405389E+02 -0.40035434596E+00  0.44284853330E+00  0.14924350335E+02  0.00000000000E+00 0. -1.
</event>
<event>
 7    1  0.5992960E-013  0.5052892E+02  0.7816164E-02  0.1300439E+00
        -11   -1    0    0    0    0  0.00000000000E+00  0.00000000000E+00  0.45593999997E+02  0.45594000000E+02  0.51100000000E-03 0.  1.
         11   -1    0    0    0    0 -0.00000000000E+00 -0.00000000000E+00 -0.45593999997E+02  0.45594000000E+02  0.51100000000E-03 0. -1.
    9900012    2    1    2    0    0 -0.10948185031E+02 -0.33295921777E+02  0.20607750260E+02  0.50528923113E+02  0.30000192294E+02 0.  0.
        -12    1    1    2    0    0  0.10948185031E+02  0.33295921777E+02 -0.20607750260E+02  0.40659076887E+02  0.00000000000E+00 0.  1.
         11    1    3    3    0    0 -0.80015923962E+01 -0.24679694321E+02  0.17686604672E+02  0.31399502827E+02  0.51100000000E-03 0. -1.
        -11    1    3    3    0    0 -0.79063058234E+01 -0.73424832764E+01  0.67573188964E+01  0.12731185780E+02  0.51100000000E-03 0.  1.
         12    1    3    3    0    0  0.49597131885E+01 -0.12737441798E+01 -0.38361733084E+01  0.63982345065E+01  0.00000000000E+00 0. -1.
</event>
<event>
 7    1  0.5992960E-013  0.5052872E+02  0.7816164E-02  0.1300439E+00
        -11   -1    0    0    0    0  0.00000000000E+00  0.00000000000E+00  0.45593999997E+02  0.45594000000E+02  0.51100000000E-03 0.  1.
         11   -1    0    0    0    0 -0.00000000000E+00 -0.00000000000E+00 -0.45593999997E+02  0.45594000000E+02  0.51100000000E-03 0. -1.
    9900012    2    1    2    0    0  0.30484488688E+02  0.27503498945E+00 -0.26903478876E+02  0.50528722210E+02  0.29999581626E+02 0.  0.
        -12    1    1    2    0    0 -0.30484488688E+02 -0.27503498945E+00  0.26903478876E+02  0.40659277790E+02  0.00000000000E+00 0.  1.
         11    1    3    3    0    0  0.31264021155E+01  0.19038954381E+01 -0.17560633825E+02  0.17938089882E+02  0.51100000000E-03 0. -1.
        -11    1    3    3    0    0  0.11584673624E+02 -0.72592834832E+01 -0.78777026911E+01  0.15778468228E+02  0.51100000000E-03 0.  1.
        -12    1    3    3    0    0  0.15773412948E+02  0.56304230345E+01 -0.14651423599E+01  0.16812164100E+02  0.00000000000E+00 0.  1.
</event>
<event>
 7    1  0.5992960E-013  0.5052885E+02  0.7816164E-02  0.1300439E+00
        -11   -1    0    0    0    0  0.00000000000E+00  0.00000000000E+00  0.45593999997E+02  0.45594000000E+02  0.51100000000E-03 0.  1.
         11   -1    0    0    0    0 -0.00000000000E+00 -0.00000000000E+00 -0.45593999997E+02  0.45594000000E+02  0.51100000000E-03 0. -1.
    9900012    2    1    2    0    0 -0.57091829457E+01 -0.48487469473E+01 -0.39963245090E+02  0.50528854965E+02  0.29999985150E+02 0.  0.
        -12    1    1    2    0    0  0.57091829457E+01  0.48487469473E+01  0.39963245090E+02  0.40659145035E+02  0.00000000000E+00 0.  1.
         11    1    3    3    0    0 -0.64739789052E+01  0.61706911618E+01 -0.97094114162E+01  0.13200852343E+02  0.51100000000E-03 0. -1.
        -11    1    3    3    0    0 -0.72042730941E+01 -0.14785825167E+01 -0.42216607373E+01  0.84799868346E+01  0.51100000000E-03 0.  1.
        -12    1    3    3    0    0  0.79690690536E+01 -0.95408555924E+01 -0.26032172937E+02  0.28848015787E+02  0.00000000000E+00 0.  1.
</event>
<event>
 7    1  0.5992960E-013  0.5052881E+02  0.7816164E-02  0.1300439E+00
        -11   -1    0    0    0    0  0.00000000000E+00  0.00000000000E+00  0.45593999997E+02  0.45594000000E+02  0.51100000000E-03 0.  1.
         11   -1    0    0    0    0 -0.00000000000E+00 -0.00000000000E+00 -0.45593999997E+02  0.45594000000E+02  0.51100000000E-03 0. -1.
    9900012    2    1    2    0    0  0.74630460665E+01 -0.64791083796E+01 -0.39439744578E+02  0.50528814637E+02  0.29999862570E+02 0.  0.
        -12    1    1    2    0    0 -0.74630460665E+01  0.64791083796E+01  0.39439744578E+02  0.40659185363E+02  0.00000000000E+00 0.  1.
         11    1    3    3    0    0 -0.17896091841E+01 -0.63905343427E+01 -0.29163978231E+02  0.29909517829E+02  0.51100000000E-03 0. -1.
        -11    1    3    3    0    0 -0.16314445633E+01 -0.41383179328E+01  0.85911414011E+00  0.45304926931E+01  0.51100000000E-03 0.  1.
        -12    1    3    3    0    0  0.10884099814E+02  0.40497438959E+01 -0.11134880487E+02  0.16088804115E+02  0.00000000000E+00 0.  1.
</event>
<event>
 7    1  0.5992960E-013  0.5052879E+02  0.7816164E-02  0.1300439E+00
        -11   -1    0    0    0    0  0.00000000000E+00  0.00000000000E+00  0.45593999997E+02  0.45594000000E+02  0.51100000000E-03 0.  1.
         11   -1    0    0    0    0 -0.00000000000E+00 -0.00000000000E+00 -0.45593999997E+02  0.45594000000E+02  0.51100000000E-03 0. -1.
    9900012    2    1    2    0    0  0.15119451500E+02 -0.35827610604E+02  0.11872472754E+02  0.50528793115E+02  0.29999797151E+02 0.  0.
        -12    1    1    2    0    0 -0.15119451500E+02  0.35827610604E+02 -0.11872472754E+02  0.40659206885E+02  0.00000000000E+00 0.  1.
         11    1    3    3    0    0  0.71184470495E+01 -0.25988088568E+02  0.35760428647E+01  0.27181632009E+02  0.51100000000E-03 0. -1.
        -11    1    3    3    0    0  0.12814382538E+01 -0.22689502907E+01 -0.55873004310E+01  0.61650746782E+01  0.51100000000E-03 0.  1.
        -12    1    3    3    0    0  0.67195661972E+01 -0.75705717451E+01  0.13883730320E+02  0.17182086428E+02  0.00000000000E+00 0.  1.
</event>
<event>
 7    1  0.6271632E-013  0.5052887E+02  0.7816164E-02  0.1300439E+00
        -11   -1    0    0    0    0  0.00000000000E+00  0.00000000000E+00  0.45593999997E+02  0.45594000000E+02  0.51100000000E-03 0.  1.
         11   -1    0    0    0    0 -0.00000000000E+00 -0.00000000000E+00 -0.45593999997E+02  0.45594000000E+02  0.51100000000E-03 0. -1.
    9900012    2    1    2    0    0 -0.30913652256E+02 -0.22055977150E+02  0.14527388154E+02  0.50528867811E+02  0.30000024197E+02 0.  0.
        -12    1    1    2    0    0  0.30913652256E+02  0.22055977150E+02 -0.14527388154E+02  0.40659132189E+02  0.00000000000E+00 0.  1.
         11    1    3    3    0    0 -0.11523791818E+02  0.43527291890E+01  0.37537056511E+01  0.12877668098E+02  0.51100000000E-03 0. -1.
        -11    1    3    3    0    0  0.16917751045E+01  0.45074952718E+00 -0.25548064211E+00  0.17693356833E+01  0.51100000000E-03 0.  1.
         12    1    3    3    0    0 -0.21081635542E+02 -0.26859455866E+02  0.11029163145E+02  0.35881864029E+02  0.00000000000E+00 0. -1.
</event>
<event>
 7    1  0.5992960E-013  0.5052886E+02  0.7816164E-02  0.1300439E+00
        -11   -1    0    0    0    0  0.00000000000E+00  0.00000000000E+00  0.45593999997E+02  0.45594000000E+02  0.51100000000E-03 0.  1.
         11   -1    0    0    0    0 -0.00000000000E+00 -0.00000000000E+00 -0.45593999997E+02  0.45594000000E+02  0.51100000000E-03 0. -1.
    9900012    2    1    2    0    0  0.37244083267E+02  0.15767023368E+02 -0.41766881033E+01  0.50528862186E+02  0.30000007099E+02 0.  0.
        -12    1    1    2    0    0 -0.37244083267E+02 -0.15767023368E+02  0.41766881033E+01  0.40659137814E+02  0.00000000000E+00 0.  1.
         11    1    3    3    0    0  0.27071612456E+01 -0.27529408981E+01 -0.76401283286E+01  0.85603134719E+01  0.51100000000E-03 0. -1.
        -11    1    3    3    0    0 -0.63073844718E+00 -0.19389695824E+00 -0.16763209121E+01  0.18015213240E+01  0.51100000000E-03 0.  1.
         12    1    3    3    0    0  0.35167660469E+02  0.18713861225E+02  0.51397611374E+01  0.40167027390E+02  0.00000000000E+00 0. -1.
</event>
<event>
 7    1  0.5992960E-013  0.5052887E+02  0.7816164E-02  0.1300439E+00
        -11   -1    0    0    0    0  0.00000000000E+00  0.00000000000E+00  0.45593999997E+02  0.45594000000E+02  0.51100000000E-03 0. -1.
         11   -1    0    0    0    0 -0.00000000000E+00 -0.00000000000E+00 -0.45593999997E+02  0.45594000000E+02  0.51100000000E-03 0.  1.
    9900012    2    1    2    0    0 -0.28488288795E+02 -0.27670022305E+02  0.87150587109E+01  0.50528868416E+02  0.30000026038E+02 0.  0.
        -12    1    1    2    0    0  0.28488288795E+02  0.27670022305E+02 -0.87150587109E+01  0.40659131584E+02  0.00000000000E+00 0.  1.
         11    1    3    3    0    0 -0.17606346542E+02 -0.13093720711E+02  0.63533851349E+01  0.22842820832E+02  0.51100000000E-03 0. -1.
        -11    1    3    3    0    0 -0.78527730998E+01 -0.15133294713E+02  0.97789107848E+01  0.19654764069E+02  0.51100000000E-03 0.  1.
        -12    1    3    3    0    0 -0.30291691533E+01  0.55699311871E+00 -0.74172372088E+01  0.80312835154E+01  0.00000000000E+00 0.  1.
</event>
<event>
 7    1  0.5992960E-013  0.5052887E+02  0.7816164E-02  0.1300439E+00
        -11   -1    0    0    0    0  0.00000000000E+00  0.00000000000E+00  0.45593999997E+02  0.45594000000E+02  0.51100000000E-03 0.  1.
         11   -1    0    0    0    0 -0.00000000000E+00 -0.00000000000E+00 -0.45593999997E+02  0.45594000000E+02  0.51100000000E-03 0. -1.
    9900012    2    1    2    0    0  0.23565881864E+02  0.10135125845E+02 -0.31545103866E+02  0.50528866440E+02  0.30000020032E+02 0.  0.
        -12    1    1    2    0    0 -0.23565881864E+02 -0.10135125845E+02  0.31545103866E+02  0.40659133560E+02  0.00000000000E+00 0.  1.
         11    1    3    3    0    0  0.16828191030E+01 -0.32864298984E+01 -0.93319504255E+01  0.10035825856E+02  0.51100000000E-03 0.  1.
        -11    1    3    3    0    0  0.17646867343E+02  0.18850683337E+02 -0.12773081363E+02  0.28808189756E+02  0.51100000000E-03 0. -1.
         12    1    3    3    0    0  0.42361954185E+01 -0.54291275929E+01 -0.94400720770E+01  0.11684850828E+02  0.00000000000E+00 0. -1.
</event>
<event>
 7    1  0.5992960E-013  0.5052886E+02  0.7816164E-02  0.1300439E+00
        -11   -1    0    0    0    0  0.00000000000E+00  0.00000000000E+00  0.45593999997E+02  0.45594000000E+02  0.51100000000E-03 0. -1.
         11   -1    0    0    0    0 -0.00000000000E+00 -0.00000000000E+00 -0.45593999997E+02  0.45594000000E+02  0.51100000000E-03 0.  1.
    9900012    2    1    2    0    0  0.88685542997E+01 -0.30802901786E+01  0.39560411753E+02  0.50528860548E+02  0.30000002120E+02 0.  0.
        -12    1    1    2    0    0 -0.88685542997E+01  0.30802901786E+01 -0.39560411753E+02  0.40659139452E+02  0.00000000000E+00 0.  1.
         11    1    3    3    0    0  0.69607067246E-01  0.24315157422E+01  0.63089660137E+01  0.67616689043E+01  0.51100000000E-03 0. -1.
        -11    1    3    3    0    0 -0.88218374336E+01 -0.39194603644E+01  0.17926097073E+02  0.20360057509E+02  0.51100000000E-03 0.  1.
         12    1    3    3    0    0  0.17620784666E+02 -0.15923455564E+01  0.15325348666E+02  0.23407134134E+02  0.00000000000E+00 0. -1.
</event>
<event>
 7    1  0.5992960E-013  0.5052886E+02  0.7816164E-02  0.1300439E+00
        -11   -1    0    0    0    0  0.00000000000E+00  0.00000000000E+00  0.45593999997E+02  0.45594000000E+02  0.51100000000E-03 0.  1.
         11   -1    0    0    0    0 -0.00000000000E+00 -0.00000000000E+00 -0.45593999997E+02  0.45594000000E+02  0.51100000000E-03 0. -1.
    9900012    2    1    2    0    0  0.30955369650E+02  0.24989626352E+02 -0.83934083274E+01  0.50528860330E+02  0.30000001458E+02 0.  0.
        -12    1    1    2    0    0 -0.30955369650E+02 -0.24989626352E+02  0.83934083274E+01  0.40659139670E+02  0.00000000000E+00 0.  1.
         11    1    3    3    0    0  0.32046499154E+02  0.16733583647E+02  0.12303345279E+01  0.36173258811E+02  0.51100000000E-03 0. -1.
        -11    1    3    3    0    0  0.19548286231E+00 -0.96594488024E+00 -0.29653980227E-01  0.98597296149E+00  0.51100000000E-03 0.  1.
        -12    1    3    3    0    0 -0.12866123664E+01  0.92219875852E+01 -0.95940888751E+01  0.13369628557E+02  0.00000000000E+00 0.  1.
</event>
<event>
 7    1  0.5992960E-013  0.5052885E+02  0.7816164E-02  0.1300439E+00
        -11   -1    0    0    0    0  0.00000000000E+00  0.00000000000E+00  0.45593999997E+02  0.45594000000E+02  0.51100000000E-03 0.  1.
         11   -1    0    0    0    0 -0.00000000000E+00 -0.00000000000E+00 -0.45593999997E+02  0.45594000000E+02  0.51100000000E-03 0. -1.
    9900012    2    1    2    0    0 -0.33014771323E+02 -0.23101767843E+02 -0.54313973767E+01  0.50528845060E+02  0.29999955045E+02 0.  0.
        -12    1    1    2    0    0  0.33014771323E+02  0.23101767843E+02  0.54313973767E+01  0.40659154940E+02  0.00000000000E+00 0.  1.
         11    1    3    3    0    0 -0.45131587411E+01 -0.15538762334E+02 -0.92285665493E+01  0.18627618675E+02  0.51100000000E-03 0. -1.
        -11    1    3    3    0    0 -0.14087736726E+02 -0.24016916022E+01 -0.38316385945E+01  0.14795739360E+02  0.51100000000E-03 0.  1.
        -12    1    3    3    0    0 -0.14413875855E+02 -0.51613139071E+01  0.76288077671E+01  0.17105487025E+02  0.00000000000E+00 0.  1.
</event>
<event>
 7    1  0.5992960E-013  0.5052886E+02  0.7816164E-02  0.1300439E+00
        -11   -1    0    0    0    0  0.00000000000E+00  0.00000000000E+00  0.45593999997E+02  0.45594000000E+02  0.51100000000E-03 0.  1.
         11   -1    0    0    0    0 -0.00000000000E+00 -0.00000000000E+00 -0.45593999997E+02  0.45594000000E+02  0.51100000000E-03 0. -1.
    9900012    2    1    2    0    0  0.36254059459E+02 -0.15707381322E+01 -0.18339619543E+02  0.50528859692E+02  0.29999999521E+02 0.  0.
        -12    1    1    2    0    0 -0.36254059459E+02  0.15707381322E+01  0.18339619543E+02  0.40659140308E+02  0.00000000000E+00 0.  1.
         11    1    3    3    0    0  0.20959097400E+02 -0.87666667704E+01 -0.94515599357E+01  0.24606303980E+02  0.51100000000E-03 0. -1.
        -11    1    3    3    0    0  0.14058233931E+02  0.16772846422E+01  0.13542526904E+01  0.14222560446E+02  0.51100000000E-03 0.  1.
        -12    1    3    3    0    0  0.12367281279E+01  0.55186439960E+01 -0.10242312298E+02  0.11699995266E+02  0.00000000000E+00 0.  1.
</event>
<event>
 7    1  0.5992960E-013  0.5052887E+02  0.7816164E-02  0.1300439E+00
        -11   -1    0    0    0    0  0.00000000000E+00  0.00000000000E+00  0.45593999997E+02  0.45594000000E+02  0.51100000000E-03 0.  1.
         11   -1    0    0    0    0 -0.00000000000E+00 -0.00000000000E+00 -0.45593999997E+02  0.45594000000E+02  0.51100000000E-03 0. -1.
    9900012    2    1    2    0    0 -0.20310225411E+02 -0.34679253604E+02  0.61651592356E+01  0.50528867259E+02  0.30000022522E+02 0.  0.
        -12    1    1    2    0    0  0.20310225411E+02  0.34679253604E+02 -0.61651592356E+01  0.40659132741E+02  0.00000000000E+00 0.  1.
         11    1    3    3    0    0 -0.61906632437E+01 -0.12571837841E+02  0.14610097768E+02  0.20244267711E+02  0.51100000000E-03 0. -1.
        -11    1    3    3    0    0 -0.92997503926E+00  0.11598144654E+01 -0.24650225190E+01  0.28786037324E+01  0.51100000000E-03 0.  1.
         12    1    3    3    0    0 -0.13189587128E+02 -0.23267230229E+02 -0.59799160135E+01  0.27405995816E+02  0.00000000000E+00 0. -1.
</event>
<event>
 7    1  0.5992960E-013  0.5052886E+02  0.7816164E-02  0.1300439E+00
        -11   -1    0    0    0    0  0.00000000000E+00  0.00000000000E+00  0.45593999997E+02  0.45594000000E+02  0.51100000000E-03 0.  1.
         11   -1    0    0    0    0 -0.00000000000E+00 -0.00000000000E+00 -0.45593999997E+02  0.45594000000E+02  0.51100000000E-03 0. -1.
    9900012    2    1    2    0    0 -0.37191464564E+02 -0.79454714568E+01  0.14381595621E+02  0.50528857785E+02  0.29999993723E+02 0.  0.
        -12    1    1    2    0    0  0.37191464564E+02  0.79454714568E+01 -0.14381595621E+02  0.40659142215E+02  0.00000000000E+00 0.  1.
         11    1    3    3    0    0 -0.15531295131E+02 -0.94730444206E+01 -0.16382431259E+01  0.18265911963E+02  0.51100000000E-03 0. -1.
        -11    1    3    3    0    0 -0.83358281665E+00  0.64735727353E+00 -0.35301637975E+01  0.36845608218E+01  0.51100000000E-03 0.  1.
        -12    1    3    3    0    0 -0.20826586616E+02  0.88021569028E+00  0.19550002544E+02  0.28578385000E+02  0.00000000000E+00 0.  1.
</event>
<event>
 7    1  0.5992960E-013  0.5052888E+02  0.7816164E-02  0.1300439E+00
        -11   -1    0    0    0    0  0.00000000000E+00  0.00000000000E+00  0.45593999997E+02  0.45594000000E+02  0.51100000000E-03 0.  1.
         11   -1    0    0    0    0 -0.00000000000E+00 -0.00000000000E+00 -0.45593999997E+02  0.45594000000E+02  0.51100000000E-03 0. -1.
    9900012    2    1    2    0    0 -0.48846009157E+01  0.25685229112E+02 -0.31137982496E+02  0.50528877105E+02  0.30000052449E+02 0.  0.
        -12    1    1    2    0    0  0.48846009157E+01 -0.25685229112E+02  0.31137982496E+02  0.40659122895E+02  0.00000000000E+00 0.  1.
         11    1    3    3    0    0 -0.75067395417E+01  0.99397791419E+01 -0.12183656274E+01  0.12515381057E+02  0.51100000000E-03 0.  1.
        -11    1    3    3    0    0 -0.69768687801E+01  0.97776733646E+01 -0.13379862653E+02  0.17980553920E+02  0.51100000000E-03 0. -1.
         12    1    3    3    0    0  0.95990074060E+01  0.59677766054E+01 -0.16539754216E+02  0.20032942128E+02  0.00000000000E+00 0. -1.
</event>
<event>
 7    1  0.5992960E-013  0.5052886E+02  0.7816164E-02  0.1300439E+00
        -11   -1    0    0    0    0  0.00000000000E+00  0.00000000000E+00  0.45593999997E+02  0.45594000000E+02  0.51100000000E-03 0.  1.
         11   -1    0    0    0    0 -0.00000000000E+00 -0.00000000000E+00 -0.45593999997E+02  0.45594000000E+02  0.51100000000E-03 0. -1.
    9900012    2    1    2    0    0 -0.11194931656E+02 -0.13555533203E+02 -0.36661790511E+02  0.50528857625E+02  0.29999993237E+02 0.  0.
        -12    1    1    2    0    0  0.11194931656E+02  0.13555533203E+02  0.36661790511E+02  0.40659142375E+02  0.00000000000E+00 0.  1.
         11    1    3    3    0    0 -0.12218329572E+02 -0.12044093188E+02 -0.17117819742E+02  0.24235666098E+02  0.51100000000E-03 0. -1.
        -11    1    3    3    0    0 -0.65256088855E+01 -0.52043275121E+01 -0.13751653567E+02  0.16086533880E+02  0.51100000000E-03 0.  1.
         12    1    3    3    0    0  0.75490068017E+01  0.36928874969E+01 -0.57923172024E+01  0.10206657647E+02  0.00000000000E+00 0. -1.
</event>
<event>
 7    1  0.5992960E-013  0.5052886E+02  0.7816164E-02  0.1300439E+00
        -11   -1    0    0    0    0  0.00000000000E+00  0.00000000000E+00  0.45593999997E+02  0.45594000000E+02  0.51100000000E-03 0.  1.
         11   -1    0    0    0    0 -0.00000000000E+00 -0.00000000000E+00 -0.45593999997E+02  0.45594000000E+02  0.51100000000E-03 0. -1.
    9900012    2    1    2    0    0 -0.13429138637E+02  0.13516479690E+02 -0.35918360207E+02  0.50528860957E+02  0.30000003366E+02 0.  0.
        -12    1    1    2    0    0  0.13429138637E+02 -0.13516479690E+02  0.35918360207E+02  0.40659139043E+02  0.00000000000E+00 0.  1.
         11    1    3    3    0    0 -0.52588697475E+01 -0.19621118110E+01 -0.17404492734E+01  0.58766280905E+01  0.51100000000E-03 0. -1.
        -11    1    3    3    0    0 -0.13484170302E+02  0.10283023525E+02 -0.10760005523E+02  0.20083354816E+02  0.51100000000E-03 0.  1.
         12    1    3    3    0    0  0.53139014133E+01  0.51955679757E+01 -0.23417905411E+02  0.24568878050E+02  0.00000000000E+00 0. -1.
</event>
<event>
 7    1  0.5992960E-013  0.5052887E+02  0.7816164E-02  0.1300439E+00
        -11   -1    0    0    0    0  0.00000000000E+00  0.00000000000E+00  0.45593999997E+02  0.45594000000E+02  0.51100000000E-03 0. -1.
         11   -1    0    0    0    0 -0.00000000000E+00 -0.00000000000E+00 -0.45593999997E+02  0.45594000000E+02  0.51100000000E-03 0.  1.
    9900012    2    1    2    0    0 -0.38468276183E+02 -0.13024912396E+02 -0.19257535668E+01  0.50528866436E+02  0.30000020018E+02 0.  0.
        -12    1    1    2    0    0  0.38468276183E+02  0.13024912396E+02  0.19257535668E+01  0.40659133564E+02  0.00000000000E+00 0.  1.
         11    1    3    3    0    0 -0.87043256520E+01  0.16046216163E+01 -0.28853824497E+01  0.93094321915E+01  0.51100000000E-03 0. -1.
        -11    1    3    3    0    0 -0.27671261786E+02 -0.41372420477E+01 -0.57868441392E+01  0.28571017937E+02  0.51100000000E-03 0.  1.
        -12    1    3    3    0    0 -0.20926887446E+01 -0.10492291964E+02  0.67464730221E+01  0.12648416307E+02  0.00000000000E+00 0.  1.
</event>
<event>
 7    1  0.5992960E-013  0.5052885E+02  0.7816164E-02  0.1300439E+00
        -11   -1    0    0    0    0  0.00000000000E+00  0.00000000000E+00  0.45593999997E+02  0.45594000000E+02  0.51100000000E-03 0.  1.
         11   -1    0    0    0    0 -0.00000000000E+00 -0.00000000000E+00 -0.45593999997E+02  0.45594000000E+02  0.51100000000E-03 0. -1.
    9900012    2    1    2    0    0 -0.25212464832E+02  0.19106183384E+02 -0.25543132497E+02  0.50528852884E+02  0.29999978827E+02 0.  0.
        -12    1    1    2    0    0  0.25212464832E+02 -0.19106183384E+02  0.25543132497E+02  0.40659147116E+02  0.00000000000E+00 0.  1.
         11    1    3    3    0    0 -0.80216479055E+01 -0.49834912194E+01 -0.16364426059E+02  0.18893820692E+02  0.51100000000E-03 0. -1.
        -11    1    3    3    0    0 -0.15874761365E+01  0.74300442353E+00  0.67110806776E+00  0.18768383939E+01  0.51100000000E-03 0.  1.
         12    1    3    3    0    0 -0.15603340790E+02  0.23346670180E+02 -0.98498145062E+01  0.29758193798E+02  0.00000000000E+00 0. -1.
</event>
<event>
 7    1  0.5992960E-013  0.5052887E+02  0.7816164E-02  0.1300439E+00
        -11   -1    0    0    0    0  0.00000000000E+00  0.00000000000E+00  0.45593999997E+02  0.45594000000E+02  0.51100000000E-03 0. -1.
         11   -1    0    0    0    0 -0.00000000000E+00 -0.00000000000E+00 -0.45593999997E+02  0.45594000000E+02  0.51100000000E-03 0.  1.
    9900012    2    1    2    0    0 -0.36445359457E+02  0.94540484941E+01  0.15346722948E+02  0.50528866166E+02  0.30000019197E+02 0.  0.
        -12    1    1    2    0    0  0.36445359457E+02 -0.94540484941E+01 -0.15346722948E+02  0.40659133834E+02  0.00000000000E+00 0.  1.
         11    1    3    3    0    0 -0.24137255019E+02 -0.70638042934E+01  0.35867351725E+01  0.25404115423E+02  0.51100000000E-03 0. -1.
        -11    1    3    3    0    0 -0.21115880310E+01  0.17113949108E+00  0.36520988252E+01  0.42220751803E+01  0.51100000000E-03 0.  1.
         12    1    3    3    0    0 -0.10196516407E+02  0.16346713296E+02  0.81078889507E+01  0.20902675563E+02  0.00000000000E+00 0. -1.
</event>
<event>
 7    1  0.5992960E-013  0.5052885E+02  0.7816164E-02  0.1300439E+00
        -11   -1    0    0    0    0  0.00000000000E+00  0.00000000000E+00  0.45593999997E+02  0.45594000000E+02  0.51100000000E-03 0. -1.
         11   -1    0    0    0    0 -0.00000000000E+00 -0.00000000000E+00 -0.45593999997E+02  0.45594000000E+02  0.51100000000E-03 0.  1.
    9900012    2    1    2    0    0  0.63835163958E+01  0.25508767191E+01  0.40073811367E+02  0.50528848372E+02  0.29999965112E+02 0.  0.
        -12    1    1    2    0    0 -0.63835163958E+01 -0.25508767191E+01 -0.40073811367E+02  0.40659151628E+02  0.00000000000E+00 0.  1.
         11    1    3    3    0    0  0.29899500941E+01 -0.37321510386E+00  0.44395928179E+01  0.53655452406E+01  0.51100000000E-03 0. -1.
        -11    1    3    3    0    0  0.66418861087E+01 -0.11092615213E+02  0.12938739992E+02  0.18291302748E+02  0.51100000000E-03 0.  1.
         12    1    3    3    0    0 -0.32483198071E+01  0.14016707036E+02  0.22695478557E+02  0.26872000384E+02  0.00000000000E+00 0. -1.
</event>
<event>
 7    1  0.5992960E-013  0.5052886E+02  0.7816164E-02  0.1300439E+00
        -11   -1    0    0    0    0  0.00000000000E+00  0.00000000000E+00  0.45593999997E+02  0.45594000000E+02  0.51100000000E-03 0.  1.
         11   -1    0    0    0    0 -0.00000000000E+00 -0.00000000000E+00 -0.45593999997E+02  0.45594000000E+02  0.51100000000E-03 0. -1.
    9900012    2    1    2    0    0  0.28171362440E+02  0.17947093685E+02 -0.23182786922E+02  0.50528862737E+02  0.30000008776E+02 0.  0.
        -12    1    1    2    0    0 -0.28171362440E+02 -0.17947093685E+02  0.23182786922E+02  0.40659137263E+02  0.00000000000E+00 0.  1.
         11    1    3    3    0    0  0.16166651877E+02  0.10887026203E+02 -0.13689559484E+02  0.23817892677E+02  0.51100000000E-03 0. -1.
        -11    1    3    3    0    0  0.13895562762E+02  0.10979482086E+01  0.15445409006E+01  0.14024184882E+02  0.51100000000E-03 0.  1.
        -12    1    3    3    0    0 -0.18908521988E+01  0.59621192740E+01 -0.11037768338E+02  0.12686785178E+02  0.00000000000E+00 0.  1.
</event>
<event>
 7    1  0.5992960E-013  0.5052887E+02  0.7816164E-02  0.1300439E+00
        -11   -1    0    0    0    0  0.00000000000E+00  0.00000000000E+00  0.45593999997E+02  0.45594000000E+02  0.51100000000E-03 0.  1.
         11   -1    0    0    0    0 -0.00000000000E+00 -0.00000000000E+00 -0.45593999997E+02  0.45594000000E+02  0.51100000000E-03 0. -1.
    9900012    2    1    2    0    0 -0.15869816297E+02  0.37220542269E+02 -0.39931637526E+01  0.50528865813E+02  0.30000018126E+02 0.  0.
        -12    1    1    2    0    0  0.15869816297E+02 -0.37220542269E+02  0.39931637526E+01  0.40659134187E+02  0.00000000000E+00 0.  1.
         11    1    3    3    0    0 -0.59456471654E+00  0.10616812933E+01 -0.22431914617E+01  0.25519762078E+01  0.51100000000E-03 0. -1.
        -11    1    3    3    0    0 -0.13480043024E+02  0.47607426777E+01  0.61307395798E+01  0.15555134163E+02  0.51100000000E-03 0.  1.
        -12    1    3    3    0    0 -0.17952085569E+01  0.31398118298E+02 -0.78807118707E+01  0.32421755443E+02  0.00000000000E+00 0.  1.
</event>
<event>
 7    1  0.5992960E-013  0.5052888E+02  0.7816164E-02  0.1300439E+00
        -11   -1    0    0    0    0  0.00000000000E+00  0.00000000000E+00  0.45593999997E+02  0.45594000000E+02  0.51100000000E-03 0.  1.
         11   -1    0    0    0    0 -0.00000000000E+00 -0.00000000000E+00 -0.45593999997E+02  0.45594000000E+02  0.51100000000E-03 0. -1.
    9900012    2    1    2    0    0 -0.22987222625E+02  0.21186909392E+02 -0.25997439645E+02  0.50528875542E+02  0.30000047697E+02 0.  0.
        -12    1    1    2    0    0  0.22987222625E+02 -0.21186909392E+02  0.25997439645E+02  0.40659124458E+02  0.00000000000E+00 0.  1.
         11    1    3    3    0    0 -0.36007642855E+01  0.66916456780E+01 -0.27621283974E+01  0.80853558279E+01  0.51100000000E-03 0. -1.
        -11    1    3    3    0    0  0.20145592417E+01  0.13953056552E+02 -0.97893214399E+01  0.17163247088E+02  0.51100000000E-03 0.  1.
        -12    1    3    3    0    0 -0.21401017581E+02  0.54220716157E+00 -0.13445989808E+02  0.25280272626E+02  0.00000000000E+00 0.  1.
</event>
<event>
 7    1  0.5992960E-013  0.5052886E+02  0.7816164E-02  0.1300439E+00
        -11   -1    0    0    0    0  0.00000000000E+00  0.00000000000E+00  0.45593999997E+02  0.45594000000E+02  0.51100000000E-03 0.  1.
         11   -1    0    0    0    0 -0.00000000000E+00 -0.00000000000E+00 -0.45593999997E+02  0.45594000000E+02  0.51100000000E-03 0. -1.
    9900012    2    1    2    0    0  0.22178544105E+02 -0.21648646495E+02 -0.26317555703E+02  0.50528862628E+02  0.30000008444E+02 0.  0.
        -12    1    1    2    0    0 -0.22178544105E+02  0.21648646495E+02  0.26317555703E+02  0.40659137372E+02  0.00000000000E+00 0.  1.
         11    1    3    3    0    0 -0.31454225039E+01 -0.46265131010E+00 -0.54998181613E+01  0.63526159204E+01  0.51100000000E-03 0. -1.
        -11    1    3    3    0    0  0.75013485028E+01  0.33140505225E+01 -0.73818706608E+01  0.11033819599E+02  0.51100000000E-03 0.  1.
         12    1    3    3    0    0  0.17822618106E+02 -0.24500045707E+02 -0.13435866881E+02  0.33142427109E+02  0.00000000000E+00 0. -1.
</event>
<event>
 7    1  0.5992960E-013  0.5052886E+02  0.7816164E-02  0.1300439E+00
        -11   -1    0    0    0    0  0.00000000000E+00  0.00000000000E+00  0.45593999997E+02  0.45594000000E+02  0.51100000000E-03 0. -1.
         11   -1    0    0    0    0 -0.00000000000E+00 -0.00000000000E+00 -0.45593999997E+02  0.45594000000E+02  0.51100000000E-03 0.  1.
    9900012    2    1    2    0    0 -0.15367577028E+02  0.95059209918E+00  0.37631102443E+02  0.50528856870E+02  0.29999990941E+02 0.  0.
        -12    1    1    2    0    0  0.15367577028E+02 -0.95059209918E+00 -0.37631102443E+02  0.40659143130E+02  0.00000000000E+00 0.  1.
         11    1    3    3    0    0  0.72102766766E+00  0.29274171536E+01  0.33142798904E+01  0.44804133227E+01  0.51100000000E-03 0. -1.
        -11    1    3    3    0    0  0.64546089398E+01 -0.39875994804E+01  0.53284764619E+01  0.92712236435E+01  0.51100000000E-03 0.  1.
         12    1    3    3    0    0 -0.22543213635E+02  0.20107744260E+01  0.28988346090E+02  0.36777219904E+02  0.00000000000E+00 0. -1.
</event>
<event>
 7    1  0.5992960E-013  0.5052887E+02  0.7816164E-02  0.1300439E+00
        -11   -1    0    0    0    0  0.00000000000E+00  0.00000000000E+00  0.45593999997E+02  0.45594000000E+02  0.51100000000E-03 0. -1.
         11   -1    0    0    0    0 -0.00000000000E+00 -0.00000000000E+00 -0.45593999997E+02  0.45594000000E+02  0.51100000000E-03 0.  1.
    9900012    2    1    2    0    0 -0.28230054324E+02  0.25681534921E+02 -0.14024529264E+02  0.50528872807E+02  0.30000039384E+02 0.  0.
        -12    1    1    2    0    0  0.28230054324E+02 -0.25681534921E+02  0.14024529264E+02  0.40659127193E+02  0.00000000000E+00 0.  1.
         11    1    3    3    0    0  0.12719714855E+01  0.63854808348E+01  0.13982010841E+01  0.66593726044E+01  0.51100000000E-03 0. -1.
        -11    1    3    3    0    0  0.19488724301E+01  0.53300812049E+01  0.96112839466E+00  0.57560088127E+01  0.51100000000E-03 0.  1.
         12    1    3    3    0    0 -0.31450898240E+02  0.13965972881E+02 -0.16383858743E+02  0.38113491390E+02  0.00000000000E+00 0. -1.
</event>
<event>
 7    1  0.5992960E-013  0.5052886E+02  0.7816164E-02  0.1300439E+00
        -11   -1    0    0    0    0  0.00000000000E+00  0.00000000000E+00  0.45593999997E+02  0.45594000000E+02  0.51100000000E-03 0.  1.
         11   -1    0    0    0    0 -0.00000000000E+00 -0.00000000000E+00 -0.45593999997E+02  0.45594000000E+02  0.51100000000E-03 0. -1.
    9900012    2    1    2    0    0  0.12142633505E+02  0.45225833111E+00 -0.38801001107E+02  0.50528858680E+02  0.29999996443E+02 0.  0.
        -12    1    1    2    0    0 -0.12142633505E+02 -0.45225833111E+00  0.38801001107E+02  0.40659141320E+02  0.00000000000E+00 0.  1.
         11    1    3    3    0    0 -0.33522318798E+01  0.29897138670E+01 -0.96185772577E+01  0.10615690100E+02  0.51100000000E-03 0. -1.
        -11    1    3    3    0    0  0.33576758817E+01  0.84360367295E+01 -0.17797067364E+02  0.19979397139E+02  0.51100000000E-03 0.  1.
        -12    1    3    3    0    0  0.12137189504E+02 -0.10973492265E+02 -0.11385356485E+02  0.19933771440E+02  0.00000000000E+00 0.  1.
</event>
<event>
 7    1  0.5992960E-013  0.5052886E+02  0.7816164E-02  0.1300439E+00
        -11   -1    0    0    0    0  0.00000000000E+00  0.00000000000E+00  0.45593999997E+02  0.45594000000E+02  0.51100000000E-03 0.  1.
         11   -1    0    0    0    0 -0.00000000000E+00 -0.00000000000E+00 -0.45593999997E+02  0.45594000000E+02  0.51100000000E-03 0. -1.
    9900012    2    1    2    0    0 -0.20344396307E+02 -0.10784421631E+02 -0.33510709286E+02  0.50528857758E+02  0.29999993641E+02 0.  0.
        -12    1    1    2    0    0  0.20344396307E+02  0.10784421631E+02  0.33510709286E+02  0.40659142242E+02  0.00000000000E+00 0.  1.
         11    1    3    3    0    0  0.31120640836E+01 -0.37904292989E+01 -0.75081959277E+01  0.89680155821E+01  0.51100000000E-03 0. -1.
        -11    1    3    3    0    0  0.16563197236E+01  0.32614872405E+01 -0.85650956774E+01  0.93135148183E+01  0.51100000000E-03 0.  1.
        -12    1    3    3    0    0 -0.25112780114E+02 -0.10255479572E+02 -0.17437417681E+02  0.32247327357E+02  0.00000000000E+00 0.  1.
</event>
<event>
 7    1  0.5992960E-013  0.5052886E+02  0.7816164E-02  0.1300439E+00
        -11   -1    0    0    0    0  0.00000000000E+00  0.00000000000E+00  0.45593999997E+02  0.45594000000E+02  0.51100000000E-03 0.  1.
         11   -1    0    0    0    0 -0.00000000000E+00 -0.00000000000E+00 -0.45593999997E+02  0.45594000000E+02  0.51100000000E-03 0. -1.
    9900012    2    1    2    0    0 -0.23491461858E+02 -0.85156209477E+01 -0.32074931105E+02  0.50528858522E+02  0.29999995962E+02 0.  0.
        -12    1    1    2    0    0  0.23491461858E+02  0.85156209477E+01  0.32074931105E+02  0.40659141478E+02  0.00000000000E+00 0.  1.
         11    1    3    3    0    0 -0.43678480309E+00 -0.33042784758E+01 -0.68740146450E+01  0.76394446663E+01  0.51100000000E-03 0. -1.
        -11    1    3    3    0    0 -0.37375491678E+01 -0.56452927121E+01 -0.22356476258E+02  0.23359165964E+02  0.51100000000E-03 0.  1.
        -12    1    3    3    0    0 -0.19317127887E+02  0.43395024016E+00 -0.28444402018E+01  0.19530247891E+02  0.00000000000E+00 0.  1.
</event>
<event>
 7    1  0.5992960E-013  0.5052885E+02  0.7816164E-02  0.1300439E+00
        -11   -1    0    0    0    0  0.00000000000E+00  0.00000000000E+00  0.45593999997E+02  0.45594000000E+02  0.51100000000E-03 0.  1.
         11   -1    0    0    0    0 -0.00000000000E+00 -0.00000000000E+00 -0.45593999997E+02  0.45594000000E+02  0.51100000000E-03 0. -1.
    9900012    2    1    2    0    0 -0.15179561246E+02 -0.37695103038E+02  0.13514105302E+01  0.50528853635E+02  0.29999981110E+02 0.  0.
        -12    1    1    2    0    0  0.15179561246E+02  0.37695103038E+02 -0.13514105302E+01  0.40659146365E+02  0.00000000000E+00 0.  1.
         11    1    3    3    0    0  0.28057123466E+01 -0.56844521196E+00  0.43811184391E+00  0.28960479934E+01  0.51100000000E-03 0.  1.
        -11    1    3    3    0    0  0.38473021873E+01 -0.17787607226E+02 -0.20619803747E+01  0.18315361538E+02  0.51100000000E-03 0. -1.
         12    1    3    3    0    0 -0.21832575780E+02 -0.19339050600E+02  0.29752790610E+01  0.29317444104E+02  0.00000000000E+00 0. -1.
</event>
<event>
 7    1  0.5992960E-013  0.5052886E+02  0.7816164E-02  0.1300439E+00
        -11   -1    0    0    0    0  0.00000000000E+00  0.00000000000E+00  0.45593999997E+02  0.45594000000E+02  0.51100000000E-03 0.  1.
         11   -1    0    0    0    0 -0.00000000000E+00 -0.00000000000E+00 -0.45593999997E+02  0.45594000000E+02  0.51100000000E-03 0. -1.
    9900012    2    1    2    0    0 -0.26037497752E+02  0.22085613065E+02 -0.22078042170E+02  0.50528861547E+02  0.30000005159E+02 0.  0.
        -12    1    1    2    0    0  0.26037497752E+02 -0.22085613065E+02  0.22078042170E+02  0.40659138453E+02  0.00000000000E+00 0.  1.
         11    1    3    3    0    0  0.24205085992E+01  0.64915615638E+01 -0.15306687043E+01  0.70952223615E+01  0.51100000000E-03 0. -1.
        -11    1    3    3    0    0  0.18425980936E+01  0.84967982299E+00  0.20312874858E+01  0.28711065196E+01  0.51100000000E-03 0.  1.
         12    1    3    3    0    0 -0.30300604445E+02  0.14744371678E+02 -0.22578660952E+02  0.40562532666E+02  0.00000000000E+00 0. -1.
</event>
<event>
 7    1  0.5992960E-013  0.5052886E+02  0.7816164E-02  0.1300439E+00
        -11   -1    0    0    0    0  0.00000000000E+00  0.00000000000E+00  0.45593999997E+02  0.45594000000E+02  0.51100000000E-03 0.  1.
         11   -1    0    0    0    0 -0.00000000000E+00 -0.00000000000E+00 -0.45593999997E+02  0.45594000000E+02  0.51100000000E-03 0. -1.
    9900012    2    1    2    0    0 -0.32206981315E+02 -0.45721527120E+01 -0.24392040290E+02  0.50528857666E+02  0.29999993361E+02 0.  0.
        -12    1    1    2    0    0  0.32206981315E+02  0.45721527120E+01  0.24392040290E+02  0.40659142334E+02  0.00000000000E+00 0.  1.
         11    1    3    3    0    0 -0.12766002226E+02 -0.50454083968E+01 -0.21233435886E+01  0.13890124081E+02  0.51100000000E-03 0. -1.
        -11    1    3    3    0    0 -0.64299887044E+01  0.18489732102E+01  0.36380319873E+01  0.76156899670E+01  0.51100000000E-03 0.  1.
        -12    1    3    3    0    0 -0.13010990384E+02 -0.13757175254E+01 -0.25906728689E+02  0.29023043618E+02  0.00000000000E+00 0.  1.
</event>
<event>
 7    1  0.5992960E-013  0.5052892E+02  0.7816164E-02  0.1300439E+00
        -11   -1    0    0    0    0  0.00000000000E+00  0.00000000000E+00  0.45593999997E+02  0.45594000000E+02  0.51100000000E-03 0. -1.
         11   -1    0    0    0    0 -0.00000000000E+00 -0.00000000000E+00 -0.45593999997E+02  0.45594000000E+02  0.51100000000E-03 0.  1.
    9900012    2    1    2    0    0 -0.22419377207E+02  0.32668841502E+02  0.91257495223E+01  0.50528917573E+02  0.30000175456E+02 0.  0.
        -12    1    1    2    0    0  0.22419377207E+02 -0.32668841502E+02 -0.91257495223E+01  0.40659082427E+02  0.00000000000E+00 0.  1.
         11    1    3    3    0    0 -0.17747776168E+02  0.19655610606E+02  0.12922427945E+02  0.29467197550E+02  0.51100000000E-03 0. -1.
        -11    1    3    3    0    0 -0.37346341169E+01  0.12852629278E+02  0.33945030652E+01  0.13807976777E+02  0.51100000000E-03 0.  1.
        -12    1    3    3    0    0 -0.93696692246E+00  0.16060161700E+00 -0.71911814877E+01  0.72537432462E+01  0.00000000000E+00 0.  1.
</event>
<event>
 7    1  0.5992960E-013  0.5052886E+02  0.7816164E-02  0.1300439E+00
        -11   -1    0    0    0    0  0.00000000000E+00  0.00000000000E+00  0.45593999997E+02  0.45594000000E+02  0.51100000000E-03 0.  1.
         11   -1    0    0    0    0 -0.00000000000E+00 -0.00000000000E+00 -0.45593999997E+02  0.45594000000E+02  0.51100000000E-03 0. -1.
    9900012    2    1    2    0    0  0.13135082206E+02  0.12332348977E+02 -0.36449262049E+02  0.50528856874E+02  0.29999990954E+02 0.  0.
        -12    1    1    2    0    0 -0.13135082206E+02 -0.12332348977E+02  0.36449262049E+02  0.40659143126E+02  0.00000000000E+00 0.  1.
         11    1    3    3    0    0  0.79828773503E+01  0.13601428163E+02 -0.13692035130E+02  0.20885329902E+02  0.51100000000E-03 0. -1.
        -11    1    3    3    0    0 -0.60512029450E+01  0.25238935554E+01 -0.11906372971E+02  0.13592233567E+02  0.51100000000E-03 0.  1.
        -12    1    3    3    0    0  0.11203407800E+02 -0.37929727412E+01 -0.10850853949E+02  0.16051293405E+02  0.00000000000E+00 0.  1.
</event>
<event>
 7    1  0.5992960E-013  0.5052885E+02  0.7816164E-02  0.1300439E+00
        -11   -1    0    0    0    0  0.00000000000E+00  0.00000000000E+00  0.45593999997E+02  0.45594000000E+02  0.51100000000E-03 0. -1.
         11   -1    0    0    0    0 -0.00000000000E+00 -0.00000000000E+00 -0.45593999997E+02  0.45594000000E+02  0.51100000000E-03 0.  1.
    9900012    2    1    2    0    0 -0.37421159914E+02  0.12047242273E+02  0.10377244388E+02  0.50528850270E+02  0.29999970881E+02 0.  0.
        -12    1    1    2    0    0  0.37421159914E+02 -0.12047242273E+02 -0.10377244388E+02  0.40659149730E+02  0.00000000000E+00 0.  1.
         11    1    3    3    0    0 -0.89911151646E+01  0.52537537230E+01  0.10429017656E+02  0.14737926910E+02  0.51100000000E-03 0. -1.
        -11    1    3    3    0    0 -0.21876604431E+02  0.13695552510E+02  0.25178306420E+01  0.25932478697E+02  0.51100000000E-03 0.  1.
         12    1    3    3    0    0 -0.65534403180E+01 -0.69020639599E+01 -0.25696039096E+01  0.98584446624E+01  0.00000000000E+00 0. -1.
</event>
<event>
 7    1  0.5992960E-013  0.5052885E+02  0.7816164E-02  0.1300439E+00
        -11   -1    0    0    0    0  0.00000000000E+00  0.00000000000E+00  0.45593999997E+02  0.45594000000E+02  0.51100000000E-03 0.  1.
         11   -1    0    0    0    0 -0.00000000000E+00 -0.00000000000E+00 -0.45593999997E+02  0.45594000000E+02  0.51100000000E-03 0. -1.
    9900012    2    1    2    0    0 -0.30411203503E+02  0.32835437617E+01 -0.26787001503E+02  0.50528850874E+02  0.29999972715E+02 0.  0.
        -12    1    1    2    0    0  0.30411203503E+02 -0.32835437617E+01  0.26787001503E+02  0.40659149126E+02  0.00000000000E+00 0.  1.
         11    1    3    3    0    0 -0.73064243013E+01 -0.50884861520E+01 -0.74537887827E+00  0.89348820543E+01  0.51100000000E-03 0. -1.
        -11    1    3    3    0    0 -0.15319097300E+02 -0.33899069482E+01 -0.21810864192E+02  0.26867824778E+02  0.51100000000E-03 0.  1.
        -12    1    3    3    0    0 -0.77856819020E+01  0.11761936862E+02 -0.42307584328E+01  0.14726144042E+02  0.00000000000E+00 0.  1.
</event>
<event>
 7    1  0.5992960E-013  0.5052886E+02  0.7816164E-02  0.1300439E+00
        -11   -1    0    0    0    0  0.00000000000E+00  0.00000000000E+00  0.45593999997E+02  0.45594000000E+02  0.51100000000E-03 0. -1.
         11   -1    0    0    0    0 -0.00000000000E+00 -0.00000000000E+00 -0.45593999997E+02  0.45594000000E+02  0.51100000000E-03 0.  1.
    9900012    2    1    2    0    0 -0.89607895913E+01  0.37494230913E+02  0.12924874018E+02  0.50528862401E+02  0.30000007755E+02 0.  0.
        -12    1    1    2    0    0  0.89607895913E+01 -0.37494230913E+02 -0.12924874018E+02  0.40659137599E+02  0.00000000000E+00 0.  1.
         11    1    3    3    0    0 -0.87151882905E+01  0.18284674911E+02  0.18785809917E+02  0.27625902665E+02  0.51100000000E-03 0. -1.
        -11    1    3    3    0    0 -0.17654875313E+01  0.25812722611E+01 -0.53506910719E+01  0.61975646764E+01  0.51100000000E-03 0.  1.
        -12    1    3    3    0    0  0.15198862305E+01  0.16628283741E+02 -0.51024482721E+00  0.16705395060E+02  0.00000000000E+00 0.  1.
</event>
<event>
 7    1  0.5992960E-013  0.5052887E+02  0.7816164E-02  0.1300439E+00
        -11   -1    0    0    0    0  0.00000000000E+00  0.00000000000E+00  0.45593999997E+02  0.45594000000E+02  0.51100000000E-03 0. -1.
         11   -1    0    0    0    0 -0.00000000000E+00 -0.00000000000E+00 -0.45593999997E+02  0.45594000000E+02  0.51100000000E-03 0.  1.
    9900012    2    1    2    0    0  0.76816027967E+00 -0.38551840562E+02  0.12896928015E+02  0.50528865317E+02  0.30000016619E+02 0.  0.
        -12    1    1    2    0    0 -0.76816027967E+00  0.38551840562E+02 -0.12896928015E+02  0.40659134683E+02  0.00000000000E+00 0.  1.
         11    1    3    3    0    0  0.96622131320E+01 -0.28415073560E+02  0.49667668860E+01  0.30421103556E+02  0.51100000000E-03 0.  1.
        -11    1    3    3    0    0  0.80746640388E+00 -0.46549197715E+01 -0.20487472353E+01  0.51495286744E+01  0.51100000000E-03 0. -1.
         12    1    3    3    0    0 -0.97015192562E+01 -0.54818472304E+01  0.99789083644E+01  0.14958233087E+02  0.00000000000E+00 0. -1.
</event>
<event>
 7    1  0.5992960E-013  0.5052886E+02  0.7816164E-02  0.1300439E+00
        -11   -1    0    0    0    0  0.00000000000E+00  0.00000000000E+00  0.45593999997E+02  0.45594000000E+02  0.51100000000E-03 0.  1.
         11   -1    0    0    0    0 -0.00000000000E+00 -0.00000000000E+00 -0.45593999997E+02  0.45594000000E+02  0.51100000000E-03 0. -1.
    9900012    2    1    2    0    0  0.26311937272E+02 -0.19601067646E+02 -0.24013450099E+02  0.50528859804E+02  0.29999999859E+02 0.  0.
        -12    1    1    2    0    0 -0.26311937272E+02  0.19601067646E+02  0.24013450099E+02  0.40659140196E+02  0.00000000000E+00 0.  1.
         11    1    3    3    0    0  0.10505652414E+02 -0.94001114425E+01 -0.45857900135E+01  0.14824314422E+02  0.51100000000E-03 0. -1.
        -11    1    3    3    0    0  0.59326201138E+01 -0.16799488041E+02 -0.13943093012E+02  0.22623629745E+02  0.51100000000E-03 0.  1.
         12    1    3    3    0    0  0.98736647443E+01  0.65985318378E+01 -0.54845670740E+01  0.13080915636E+02  0.00000000000E+00 0. -1.
</event>
<event>
 7    1  0.5992960E-013  0.5052888E+02  0.7816164E-02  0.1300439E+00
        -11   -1    0    0    0    0  0.00000000000E+00  0.00000000000E+00  0.45593999997E+02  0.45594000000E+02  0.51100000000E-03 0.  1.
         11   -1    0    0    0    0 -0.00000000000E+00 -0.00000000000E+00 -0.45593999997E+02  0.45594000000E+02  0.51100000000E-03 0. -1.
    9900012    2    1    2    0    0  0.31867106236E+00  0.35933623011E+02 -0.19022017077E+02  0.50528881126E+02  0.30000064672E+02 0.  0.
        -12    1    1    2    0    0 -0.31867106236E+00 -0.35933623011E+02  0.19022017077E+02  0.40659118874E+02  0.00000000000E+00 0.  1.
         11    1    3    3    0    0 -0.14509806056E+01  0.15065114108E+02 -0.14620964907E+02  0.21043659921E+02  0.51100000000E-03 0. -1.
        -11    1    3    3    0    0 -0.81725453472E+01  0.10179625544E+02 -0.67553908071E+01  0.14698659084E+02  0.51100000000E-03 0.  1.
        -12    1    3    3    0    0  0.99421970151E+01  0.10688883359E+02  0.23543386367E+01  0.14786562121E+02  0.00000000000E+00 0.  1.
</event>
<event>
 7    1  0.5992960E-013  0.5052886E+02  0.7816164E-02  0.1300439E+00
        -11   -1    0    0    0    0  0.00000000000E+00  0.00000000000E+00  0.45593999997E+02  0.45594000000E+02  0.51100000000E-03 0. -1.
         11   -1    0    0    0    0 -0.00000000000E+00 -0.00000000000E+00 -0.45593999997E+02  0.45594000000E+02  0.51100000000E-03 0.  1.
    9900012    2    1    2    0    0  0.21154406607E+02 -0.33967591325E+02  0.72013739913E+01  0.50528856296E+02  0.29999989199E+02 0.  0.
        -12    1    1    2    0    0 -0.21154406607E+02  0.33967591325E+02 -0.72013739913E+01  0.40659143704E+02  0.00000000000E+00 0.  1.
         11    1    3    3    0    0  0.83042871266E+01 -0.16724957134E+02  0.13871863323E+02  0.23261856506E+02  0.51100000000E-03 0. -1.
        -11    1    3    3    0    0  0.97687286803E+01 -0.99914872431E+01  0.34967893612E+01  0.14404353976E+02  0.51100000000E-03 0.  1.
        -12    1    3    3    0    0  0.30813908001E+01 -0.72511469485E+01 -0.10167278693E+02  0.12862645814E+02  0.00000000000E+00 0.  1.
</event>
<event>
 7    1  0.5992960E-013  0.5052886E+02  0.7816164E-02  0.1300439E+00
        -11   -1    0    0    0    0  0.00000000000E+00  0.00000000000E+00  0.45593999997E+02  0.45594000000E+02  0.51100000000E-03 0.  1.
         11   -1    0    0    0    0 -0.00000000000E+00 -0.00000000000E+00 -0.45593999997E+02  0.45594000000E+02  0.51100000000E-03 0. -1.
    9900012    2    1    2    0    0 -0.38396579701E+02  0.13215764119E+02  0.20523452366E+01  0.50528857425E+02  0.29999992629E+02 0.  0.
        -12    1    1    2    0    0  0.38396579701E+02 -0.13215764119E+02 -0.20523452366E+01  0.40659142575E+02  0.00000000000E+00 0.  1.
         11    1    3    3    0    0 -0.43562407228E+01 -0.23081216104E+01 -0.11403456541E+01  0.50601034649E+01  0.51100000000E-03 0. -1.
        -11    1    3    3    0    0  0.33916779184E+01  0.22687024860E+00  0.37054614264E+01  0.50284583975E+01  0.51100000000E-03 0.  1.
         12    1    3    3    0    0 -0.37432016897E+02  0.15297015480E+02 -0.51277053574E+00  0.40440295562E+02  0.00000000000E+00 0. -1.
</event>
<event>
 7    1  0.5992960E-013  0.5052887E+02  0.7816164E-02  0.1300439E+00
        -11   -1    0    0    0    0  0.00000000000E+00  0.00000000000E+00  0.45593999997E+02  0.45594000000E+02  0.51100000000E-03 0.  1.
         11   -1    0    0    0    0 -0.00000000000E+00 -0.00000000000E+00 -0.45593999997E+02  0.45594000000E+02  0.51100000000E-03 0. -1.
    9900012    2    1    2    0    0 -0.22346367685E+02  0.16314444734E+02 -0.29793353877E+02  0.50528865836E+02  0.30000018196E+02 0.  0.
        -12    1    1    2    0    0  0.22346367685E+02 -0.16314444734E+02  0.29793353877E+02  0.40659134164E+02  0.00000000000E+00 0.  1.
         11    1    3    3    0    0 -0.23726386974E+02  0.95172413614E+01 -0.21888708895E+02  0.33654641572E+02  0.51100000000E-03 0. -1.
        -11    1    3    3    0    0 -0.37375281955E+01 -0.11688020831E+00 -0.73595004644E+01  0.82550000207E+01  0.51100000000E-03 0.  1.
        -12    1    3    3    0    0  0.51175474841E+01  0.69140835813E+01 -0.54514451725E+00  0.86192242439E+01  0.00000000000E+00 0.  1.
</event>
<event>
 7    1  0.5992960E-013  0.5052886E+02  0.7816164E-02  0.1300439E+00
        -11   -1    0    0    0    0  0.00000000000E+00  0.00000000000E+00  0.45593999997E+02  0.45594000000E+02  0.51100000000E-03 0.  1.
         11   -1    0    0    0    0 -0.00000000000E+00 -0.00000000000E+00 -0.45593999997E+02  0.45594000000E+02  0.51100000000E-03 0. -1.
    9900012    2    1    2    0    0  0.28539808236E+02  0.29503896916E+01 -0.28808686736E+02  0.50528857302E+02  0.29999992257E+02 0.  0.
        -12    1    1    2    0    0 -0.28539808236E+02 -0.29503896916E+01  0.28808686736E+02  0.40659142698E+02  0.00000000000E+00 0.  1.
         11    1    3    3    0    0  0.51354718040E+01  0.83692419462E+01 -0.16932364919E+02  0.19573509226E+02  0.51100000000E-03 0. -1.
        -11    1    3    3    0    0  0.18787056943E+01 -0.15578051955E+01 -0.84797700792E+01  0.88239896288E+01  0.51100000000E-03 0.  1.
        -12    1    3    3    0    0  0.21525630737E+02 -0.38610470590E+01 -0.33965517373E+01  0.22131358448E+02  0.00000000000E+00 0.  1.
</event>
<event>
 7    1  0.5992960E-013  0.5052886E+02  0.7816164E-02  0.1300439E+00
        -11   -1    0    0    0    0  0.00000000000E+00  0.00000000000E+00  0.45593999997E+02  0.45594000000E+02  0.51100000000E-03 0.  1.
         11   -1    0    0    0    0 -0.00000000000E+00 -0.00000000000E+00 -0.45593999997E+02  0.45594000000E+02  0.51100000000E-03 0. -1.
    9900012    2    1    2    0    0 -0.31122151155E+02 -0.25606076094E+02 -0.53764697030E+01  0.50528857708E+02  0.29999993489E+02 0.  0.
        -12    1    1    2    0    0  0.31122151155E+02  0.25606076094E+02  0.53764697030E+01  0.40659142292E+02  0.00000000000E+00 0.  1.
         11    1    3    3    0    0 -0.21873425971E+01 -0.41825223552E+00 -0.28548751000E+01  0.36207339957E+01  0.51100000000E-03 0. -1.
        -11    1    3    3    0    0 -0.83726700135E+01 -0.19354827332E+02 -0.11155111208E+02  0.23856811407E+02  0.51100000000E-03 0.  1.
        -12    1    3    3    0    0 -0.20562138545E+02 -0.58329965266E+01  0.86335166051E+01  0.23051312305E+02  0.00000000000E+00 0.  1.
</event>
<event>
 7    1  0.5992960E-013  0.5052886E+02  0.7816164E-02  0.1300439E+00
        -11   -1    0    0    0    0  0.00000000000E+00  0.00000000000E+00  0.45593999997E+02  0.45594000000E+02  0.51100000000E-03 0.  1.
         11   -1    0    0    0    0 -0.00000000000E+00 -0.00000000000E+00 -0.45593999997E+02  0.45594000000E+02  0.51100000000E-03 0. -1.
    9900012    2    1    2    0    0  0.29538999633E+02  0.38693929856E+01 -0.27670220013E+02  0.50528858630E+02  0.29999996293E+02 0.  0.
        -12    1    1    2    0    0 -0.29538999633E+02 -0.38693929856E+01  0.27670220013E+02  0.40659141370E+02  0.00000000000E+00 0.  1.
         11    1    3    3    0    0  0.90718951922E+00 -0.12431232399E+01 -0.11636556793E+02  0.11737878960E+02  0.51100000000E-03 0. -1.
        -11    1    3    3    0    0  0.90679966557E+01 -0.60656830883E+01 -0.11415801192E+02  0.15790553878E+02  0.51100000000E-03 0.  1.
        -12    1    3    3    0    0  0.19563813458E+02  0.11178199314E+02 -0.46178620277E+01  0.23000425792E+02  0.00000000000E+00 0.  1.
</event>
<event>
 7    1  0.5992960E-013  0.5052886E+02  0.7816164E-02  0.1300439E+00
        -11   -1    0    0    0    0  0.00000000000E+00  0.00000000000E+00  0.45593999997E+02  0.45594000000E+02  0.51100000000E-03 0.  1.
         11   -1    0    0    0    0 -0.00000000000E+00 -0.00000000000E+00 -0.45593999997E+02  0.45594000000E+02  0.51100000000E-03 0. -1.
    9900012    2    1    2    0    0 -0.29436768422E+02  0.16974018726E+02 -0.22327669618E+02  0.50528862313E+02  0.30000007487E+02 0.  0.
        -12    1    1    2    0    0  0.29436768422E+02 -0.16974018726E+02  0.22327669618E+02  0.40659137687E+02  0.00000000000E+00 0.  1.
         11    1    3    3    0    0 -0.17053718095E+02  0.12196853205E+02 -0.14846909935E+02  0.25690917926E+02  0.51100000000E-03 0. -1.
        -11    1    3    3    0    0 -0.12133776478E+02  0.11332088188E+02 -0.29421687744E+01  0.16861231025E+02  0.51100000000E-03 0.  1.
         12    1    3    3    0    0 -0.24927384918E+00 -0.65549226676E+01 -0.45385909085E+01  0.79767133623E+01  0.00000000000E+00 0. -1.
</event>
<event>
 7    1  0.6187545E-013  0.5052885E+02  0.7816164E-02  0.1300439E+00
        -11   -1    0    0    0    0  0.00000000000E+00  0.00000000000E+00  0.45593999997E+02  0.45594000000E+02  0.51100000000E-03 0. -1.
         11   -1    0    0    0    0 -0.00000000000E+00 -0.00000000000E+00 -0.45593999997E+02  0.45594000000E+02  0.51100000000E-03 0.  1.
    9900012    2    1    2    0    0 -0.33483200246E+02  0.15887901500E+02  0.16721724411E+02  0.50528853672E+02  0.29999981223E+02 0.  0.
        -12    1    1    2    0    0  0.33483200246E+02 -0.15887901500E+02 -0.16721724411E+02  0.40659146328E+02  0.00000000000E+00 0.  1.
         11    1    3    3    0    0  0.75112877328E+00 -0.20908656812E+01 -0.11855512253E+01  0.25182227264E+01  0.51100000000E-03 0. -1.
        -11    1    3    3    0    0 -0.42741976455E+01  0.99766383650E+01 -0.21696867663E+01  0.11068406367E+02  0.51100000000E-03 0.  1.
         12    1    3    3    0    0 -0.29960131374E+02  0.80021288163E+01  0.20076962402E+02  0.36942224579E+02  0.00000000000E+00 0. -1.
</event>
<event>
 7    1  0.5992960E-013  0.5052886E+02  0.7816164E-02  0.1300439E+00
        -11   -1    0    0    0    0  0.00000000000E+00  0.00000000000E+00  0.45593999997E+02  0.45594000000E+02  0.51100000000E-03 0. -1.
         11   -1    0    0    0    0 -0.00000000000E+00 -0.00000000000E+00 -0.45593999997E+02  0.45594000000E+02  0.51100000000E-03 0.  1.
    9900012    2    1    2    0    0 -0.26322844863E+02 -0.19028576320E+02  0.24457862381E+02  0.50528856985E+02  0.29999991292E+02 0.  0.
        -12    1    1    2    0    0  0.26322844863E+02  0.19028576320E+02 -0.24457862381E+02  0.40659143015E+02  0.00000000000E+00 0.  1.
         11    1    3    3    0    0  0.43898028568E-01 -0.88805135085E+01  0.13783451150E+02  0.16396614683E+02  0.51100000000E-03 0. -1.
        -11    1    3    3    0    0 -0.82036806793E+01 -0.65807329179E+01  0.11525421422E+02  0.15602620346E+02  0.51100000000E-03 0.  1.
        -12    1    3    3    0    0 -0.18163062212E+02 -0.35673298931E+01 -0.85101019082E+00  0.18529621956E+02  0.00000000000E+00 0.  1.
</event>
<event>
 7    1  0.5992960E-013  0.5052886E+02  0.7816164E-02  0.1300439E+00
        -11   -1    0    0    0    0  0.00000000000E+00  0.00000000000E+00  0.45593999997E+02  0.45594000000E+02  0.51100000000E-03 0. -1.
         11   -1    0    0    0    0 -0.00000000000E+00 -0.00000000000E+00 -0.45593999997E+02  0.45594000000E+02  0.51100000000E-03 0.  1.
    9900012    2    1    2    0    0  0.38771900801E+01  0.39159951609E+02 -0.10228943177E+02  0.50528859682E+02  0.29999999488E+02 0.  0.
        -12    1    1    2    0    0 -0.38771900801E+01 -0.39159951609E+02  0.10228943177E+02  0.40659140318E+02  0.00000000000E+00 0.  1.
         11    1    3    3    0    0 -0.55870411482E+01  0.55648223873E+01 -0.19837208984E+01  0.81312622549E+01  0.51100000000E-03 0. -1.
        -11    1    3    3    0    0 -0.40138697044E+00  0.95504716662E+01 -0.12837133463E+02  0.16005143435E+02  0.51100000000E-03 0.  1.
        -12    1    3    3    0    0  0.98656181988E+01  0.24044657555E+02  0.45919111850E+01  0.26392453992E+02  0.00000000000E+00 0.  1.
</event>
<event>
 7    1  0.5992960E-013  0.5052886E+02  0.7816164E-02  0.1300439E+00
        -11   -1    0    0    0    0  0.00000000000E+00  0.00000000000E+00  0.45593999997E+02  0.45594000000E+02  0.51100000000E-03 0.  1.
         11   -1    0    0    0    0 -0.00000000000E+00 -0.00000000000E+00 -0.45593999997E+02  0.45594000000E+02  0.51100000000E-03 0. -1.
    9900012    2    1    2    0    0 -0.15358513567E+01  0.39450172339E+02 -0.97206289436E+01  0.50528861248E+02  0.30000004249E+02 0.  0.
        -12    1    1    2    0    0  0.15358513567E+01 -0.39450172339E+02  0.97206289436E+01  0.40659138752E+02  0.00000000000E+00 0.  1.
         11    1    3    3    0    0 -0.52294552199E+00  0.10589833169E+02 -0.18648989520E+01  0.10765495202E+02  0.51100000000E-03 0. -1.
        -11    1    3    3    0    0 -0.13571407645E+02  0.15550216372E+02 -0.32593673680E+01  0.20895353804E+02  0.51100000000E-03 0.  1.
        -12    1    3    3    0    0  0.12558501810E+02  0.13310122798E+02 -0.45963626236E+01  0.18868012242E+02  0.00000000000E+00 0.  1.
</event>
<event>
 7    1  0.5992960E-013  0.5052886E+02  0.7816164E-02  0.1300439E+00
        -11   -1    0    0    0    0  0.00000000000E+00  0.00000000000E+00  0.45593999997E+02  0.45594000000E+02  0.51100000000E-03 0. -1.
         11   -1    0    0    0    0 -0.00000000000E+00 -0.00000000000E+00 -0.45593999997E+02  0.45594000000E+02  0.51100000000E-03 0.  1.
    9900012    2    1    2    0    0 -0.38214493010E+02 -0.70233091891E+00  0.13868117475E+02  0.50528862933E+02  0.30000009372E+02 0.  0.
        -12    1    1    2    0    0  0.38214493010E+02  0.70233091891E+00 -0.13868117475E+02  0.40659137067E+02  0.00000000000E+00 0.  1.
         11    1    3    3    0    0 -0.40775236257E+01 -0.43053250082E+01 -0.65586735386E-01  0.59301200852E+01  0.51100000000E-03 0. -1.
        -11    1    3    3    0    0  0.11137106991E+01 -0.16967254454E+01 -0.41556030352E+01  0.46247449233E+01  0.51100000000E-03 0.  1.
         12    1    3    3    0    0 -0.35250680083E+02  0.52997195348E+01  0.18089307245E+02  0.39973997925E+02  0.00000000000E+00 0. -1.
</event>
<event>
 7    1  0.5992960E-013  0.5052886E+02  0.7816164E-02  0.1300439E+00
        -11   -1    0    0    0    0  0.00000000000E+00  0.00000000000E+00  0.45593999997E+02  0.45594000000E+02  0.51100000000E-03 0. -1.
         11   -1    0    0    0    0 -0.00000000000E+00 -0.00000000000E+00 -0.45593999997E+02  0.45594000000E+02  0.51100000000E-03 0.  1.
    9900012    2    1    2    0    0 -0.39753223861E+01 -0.31532565931E+02 -0.25358628917E+02  0.50528856344E+02  0.29999989344E+02 0.  0.
        -12    1    1    2    0    0  0.39753223861E+01  0.31532565931E+02  0.25358628917E+02  0.40659143656E+02  0.00000000000E+00 0.  1.
         11    1    3    3    0    0 -0.16785247714E+01 -0.47761783997E+01  0.60647132453E+01  0.79000045901E+01  0.51100000000E-03 0. -1.
        -11    1    3    3    0    0 -0.27752468976E+01 -0.13820636464E+01 -0.16683061093E+01  0.35207017483E+01  0.51100000000E-03 0.  1.
        -12    1    3    3    0    0  0.47844928292E+00 -0.25374323885E+02 -0.29755036053E+02  0.39108150006E+02  0.00000000000E+00 0.  1.
</event>
<event>
 7    1  0.5992960E-013  0.5052886E+02  0.7816164E-02  0.1300439E+00
        -11   -1    0    0    0    0  0.00000000000E+00  0.00000000000E+00  0.45593999997E+02  0.45594000000E+02  0.51100000000E-03 0. -1.
         11   -1    0    0    0    0 -0.00000000000E+00 -0.00000000000E+00 -0.45593999997E+02  0.45594000000E+02  0.51100000000E-03 0.  1.
    9900012    2    1    2    0    0 -0.38558122094E+02 -0.10782944250E+02 -0.70827139639E+01  0.50528861996E+02  0.30000006524E+02 0.  0.
        -12    1    1    2    0    0  0.38558122094E+02  0.10782944250E+02  0.70827139639E+01  0.40659138004E+02  0.00000000000E+00 0.  1.
         11    1    3    3    0    0 -0.23317642165E+02  0.33270189600E+00  0.62712571417E+01  0.24148536044E+02  0.51100000000E-03 0. -1.
        -11    1    3    3    0    0 -0.40039187286E+00 -0.22127108393E+01  0.21751828958E+01  0.31285497920E+01  0.51100000000E-03 0.  1.
        -12    1    3    3    0    0 -0.14840088056E+02 -0.89029353065E+01 -0.15529154001E+02  0.23251776160E+02  0.00000000000E+00 0.  1.
</event>
<event>
 7    1  0.5992960E-013  0.5052886E+02  0.7816164E-02  0.1300439E+00
        -11   -1    0    0    0    0  0.00000000000E+00  0.00000000000E+00  0.45593999997E+02  0.45594000000E+02  0.51100000000E-03 0. -1.
         11   -1    0    0    0    0 -0.00000000000E+00 -0.00000000000E+00 -0.45593999997E+02  0.45594000000E+02  0.51100000000E-03 0.  1.
    9900012    2    1    2    0    0  0.10104369830E+01  0.40214473819E+02  0.59110783509E+01  0.50528859150E+02  0.29999997872E+02 0.  0.
        -12    1    1    2    0    0 -0.10104369830E+01 -0.40214473819E+02 -0.59110783509E+01  0.40659140850E+02  0.00000000000E+00 0.  1.
         11    1    3    3    0    0  0.54628762013E+01  0.29993167558E+02  0.90926157861E+01  0.31813657109E+02  0.51100000000E-03 0. -1.
        -11    1    3    3    0    0 -0.58796762150E+00  0.96224110274E+01  0.40795487368E+01  0.10468009269E+02  0.51100000000E-03 0.  1.
        -12    1    3    3    0    0 -0.38644715968E+01  0.59889523356E+00 -0.72610861720E+01  0.82471927721E+01  0.00000000000E+00 0.  1.
</event>
<event>
 7    1  0.5992960E-013  0.5052886E+02  0.7816164E-02  0.1300439E+00
        -11   -1    0    0    0    0  0.00000000000E+00  0.00000000000E+00  0.45593999997E+02  0.45594000000E+02  0.51100000000E-03 0.  1.
         11   -1    0    0    0    0 -0.00000000000E+00 -0.00000000000E+00 -0.45593999997E+02  0.45594000000E+02  0.51100000000E-03 0. -1.
    9900012    2    1    2    0    0  0.39936036593E+02  0.93178072377E+00 -0.75769409605E+01  0.50528864884E+02  0.30000015301E+02 0.  0.
        -12    1    1    2    0    0 -0.39936036593E+02 -0.93178072377E+00  0.75769409605E+01  0.40659135116E+02  0.00000000000E+00 0.  1.
         11    1    3    3    0    0  0.23447337106E+02 -0.89144120019E+01 -0.24723916975E+01  0.25206290478E+02  0.51100000000E-03 0. -1.
        -11    1    3    3    0    0 -0.23680237114E+01 -0.11404883324E+01 -0.19480640665E+01  0.32715751256E+01  0.51100000000E-03 0.  1.
         12    1    3    3    0    0  0.18856723198E+02  0.10986681058E+02 -0.31564851965E+01  0.22050999280E+02  0.00000000000E+00 0. -1.
</event>
<event>
 7    1  0.5992960E-013  0.5052878E+02  0.7816164E-02  0.1300439E+00
        -11   -1    0    0    0    0  0.00000000000E+00  0.00000000000E+00  0.45593999997E+02  0.45594000000E+02  0.51100000000E-03 0.  1.
         11   -1    0    0    0    0 -0.00000000000E+00 -0.00000000000E+00 -0.45593999997E+02  0.45594000000E+02  0.51100000000E-03 0. -1.
    9900012    2    1    2    0    0 -0.18499408286E+02  0.22912793491E+02 -0.28034759039E+02  0.50528783002E+02  0.29999766413E+02 0.  0.
        -12    1    1    2    0    0  0.18499408286E+02 -0.22912793491E+02  0.28034759039E+02  0.40659216998E+02  0.00000000000E+00 0.  1.
         11    1    3    3    0    0 -0.34824692174E+01  0.11748070773E+02 -0.39338966940E+01  0.12869355159E+02  0.51100000000E-03 0. -1.
        -11    1    3    3    0    0 -0.39813742941E+01  0.13187407780E+02 -0.35180685181E+01  0.14217449546E+02  0.51100000000E-03 0.  1.
        -12    1    3    3    0    0 -0.11035564775E+02 -0.20226850632E+01 -0.20582793827E+02  0.23441978297E+02  0.00000000000E+00 0.  1.
</event>
<event>
 7    1  0.5992960E-013  0.5052888E+02  0.7816164E-02  0.1300439E+00
        -11   -1    0    0    0    0  0.00000000000E+00  0.00000000000E+00  0.45593999997E+02  0.45594000000E+02  0.51100000000E-03 0.  1.
         11   -1    0    0    0    0 -0.00000000000E+00 -0.00000000000E+00 -0.45593999997E+02  0.45594000000E+02  0.51100000000E-03 0. -1.
    9900012    2    1    2    0    0  0.15468317005E+00  0.40082167065E+02  0.68234806061E+01  0.50528881329E+02  0.30000065288E+02 0.  0.
        -12    1    1    2    0    0 -0.15468317005E+00 -0.40082167065E+02 -0.68234806061E+01  0.40659118671E+02  0.00000000000E+00 0.  1.
         11    1    3    3    0    0  0.86805784379E+01  0.23267463824E+02  0.72495732834E+01  0.25870516576E+02  0.51100000000E-03 0. -1.
        -11    1    3    3    0    0  0.47204748599E+00 -0.23203050611E+01  0.23450368597E+01  0.33325429540E+01  0.51100000000E-03 0.  1.
         12    1    3    3    0    0 -0.89979427538E+01  0.19135008302E+02 -0.27711295370E+01  0.21325821799E+02  0.00000000000E+00 0. -1.
</event>
<event>
 7    1  0.5992960E-013  0.5052885E+02  0.7816164E-02  0.1300439E+00
        -11   -1    0    0    0    0  0.00000000000E+00  0.00000000000E+00  0.45593999997E+02  0.45594000000E+02  0.51100000000E-03 0.  1.
         11   -1    0    0    0    0 -0.00000000000E+00 -0.00000000000E+00 -0.45593999997E+02  0.45594000000E+02  0.51100000000E-03 0. -1.
    9900012    2    1    2    0    0  0.10162476777E+02 -0.24998671938E+02 -0.30413100256E+02  0.50528853427E+02  0.29999980476E+02 0.  0.
        -12    1    1    2    0    0 -0.10162476777E+02  0.24998671938E+02  0.30413100256E+02  0.40659146573E+02  0.00000000000E+00 0.  1.
         11    1    3    3    0    0  0.11882175846E+02 -0.39349947221E+01 -0.98024766289E+01  0.15898390945E+02  0.51100000000E-03 0. -1.
        -11    1    3    3    0    0  0.69897842070E+01 -0.29355856831E+01 -0.41593366838E+01  0.86472439814E+01  0.51100000000E-03 0.  1.
        -12    1    3    3    0    0 -0.87094832765E+01 -0.18128091533E+02 -0.16451286943E+02  0.25983218501E+02  0.00000000000E+00 0.  1.
</event>
<event>
 7    1  0.5992960E-013  0.5052886E+02  0.7816164E-02  0.1300439E+00
        -11   -1    0    0    0    0  0.00000000000E+00  0.00000000000E+00  0.45593999997E+02  0.45594000000E+02  0.51100000000E-03 0. -1.
         11   -1    0    0    0    0 -0.00000000000E+00 -0.00000000000E+00 -0.45593999997E+02  0.45594000000E+02  0.51100000000E-03 0.  1.
    9900012    2    1    2    0    0 -0.26493027302E+02 -0.27037048532E+02  0.14841952954E+02  0.50528855193E+02  0.29999985846E+02 0.  0.
        -12    1    1    2    0    0  0.26493027302E+02  0.27037048532E+02 -0.14841952954E+02  0.40659144807E+02  0.00000000000E+00 0.  1.
         11    1    3    3    0    0 -0.56001016947E+01  0.35629002812E+01  0.32696872429E+01  0.73990710453E+01  0.51100000000E-03 0. -1.
        -11    1    3    3    0    0  0.15088828286E+01 -0.20367398991E+00  0.44516433004E+01  0.47048208064E+01  0.51100000000E-03 0.  1.
         12    1    3    3    0    0 -0.22401808436E+02 -0.30396274823E+02  0.71206224102E+01  0.38424963342E+02  0.00000000000E+00 0. -1.
</event>
<event>
 7    1  0.5992960E-013  0.5052885E+02  0.7816164E-02  0.1300439E+00
        -11   -1    0    0    0    0  0.00000000000E+00  0.00000000000E+00  0.45593999997E+02  0.45594000000E+02  0.51100000000E-03 0.  1.
         11   -1    0    0    0    0 -0.00000000000E+00 -0.00000000000E+00 -0.45593999997E+02  0.45594000000E+02  0.51100000000E-03 0. -1.
    9900012    2    1    2    0    0  0.57487485973E+01  0.10977428741E+02 -0.38724851746E+02  0.50528853490E+02  0.29999980668E+02 0.  0.
        -12    1    1    2    0    0 -0.57487485973E+01 -0.10977428741E+02  0.38724851746E+02  0.40659146510E+02  0.00000000000E+00 0.  1.
         11    1    3    3    0    0  0.53435950643E+01  0.78276362055E+01 -0.14695937059E+02  0.17487037001E+02  0.51100000000E-03 0. -1.
        -11    1    3    3    0    0 -0.19029238400E+01  0.52288951512E+01 -0.27688197951E+02  0.28241791191E+02  0.51100000000E-03 0.  1.
        -12    1    3    3    0    0  0.23080773730E+01 -0.20791026161E+01  0.36592832644E+01  0.48000252975E+01  0.00000000000E+00 0.  1.
</event>
<event>
 7    1  0.5992960E-013  0.5052886E+02  0.7816164E-02  0.1300439E+00
        -11   -1    0    0    0    0  0.00000000000E+00  0.00000000000E+00  0.45593999997E+02  0.45594000000E+02  0.51100000000E-03 0.  1.
         11   -1    0    0    0    0 -0.00000000000E+00 -0.00000000000E+00 -0.45593999997E+02  0.45594000000E+02  0.51100000000E-03 0. -1.
    9900012    2    1    2    0    0 -0.32665049402E+02  0.17912815273E+02 -0.16287760369E+02  0.50528861528E+02  0.30000005101E+02 0.  0.
        -12    1    1    2    0    0  0.32665049402E+02 -0.17912815273E+02  0.16287760369E+02  0.40659138472E+02  0.00000000000E+00 0.  1.
         11    1    3    3    0    0 -0.77650791026E+01  0.15657509808E+02 -0.48548203266E+01  0.18139000731E+02  0.51100000000E-03 0. -1.
        -11    1    3    3    0    0  0.13557462050E+01  0.36790613810E+01 -0.66851082646E+00  0.39774926026E+01  0.51100000000E-03 0.  1.
         12    1    3    3    0    0 -0.26255716504E+02 -0.14237559166E+01 -0.10764429216E+02  0.28412368194E+02  0.00000000000E+00 0. -1.
</event>
<event>
 7    1  0.5992960E-013  0.5052886E+02  0.7816164E-02  0.1300439E+00
        -11   -1    0    0    0    0  0.00000000000E+00  0.00000000000E+00  0.45593999997E+02  0.45594000000E+02  0.51100000000E-03 0.  1.
         11   -1    0    0    0    0 -0.00000000000E+00 -0.00000000000E+00 -0.45593999997E+02  0.45594000000E+02  0.51100000000E-03 0. -1.
    9900012    2    1    2    0    0  0.24808929991E+02 -0.31767299036E+02 -0.53405328231E+01  0.50528860976E+02  0.30000003421E+02 0.  0.
        -12    1    1    2    0    0 -0.24808929991E+02  0.31767299036E+02  0.53405328231E+01  0.40659139024E+02  0.00000000000E+00 0.  1.
         11    1    3    3    0    0  0.79727267061E+01  0.33301377664E+00 -0.70845212643E+01  0.10670787746E+02  0.51100000000E-03 0.  1.
        -11    1    3    3    0    0  0.19754736569E+02 -0.26086263752E+02 -0.72947332918E+00  0.32730336159E+02  0.51100000000E-03 0. -1.
         12    1    3    3    0    0 -0.29185332835E+01 -0.60140490606E+01  0.24734617704E+01  0.71277370715E+01  0.00000000000E+00 0. -1.
</event>
<event>
 7    1  0.5992960E-013  0.5052886E+02  0.7816164E-02  0.1300439E+00
        -11   -1    0    0    0    0  0.00000000000E+00  0.00000000000E+00  0.45593999997E+02  0.45594000000E+02  0.51100000000E-03 0.  1.
         11   -1    0    0    0    0 -0.00000000000E+00 -0.00000000000E+00 -0.45593999997E+02  0.45594000000E+02  0.51100000000E-03 0. -1.
    9900012    2    1    2    0    0 -0.49732432588E+01 -0.29703351871E+02 -0.27315631743E+02  0.50528855907E+02  0.29999988013E+02 0.  0.
        -12    1    1    2    0    0  0.49732432588E+01  0.29703351871E+02  0.27315631743E+02  0.40659144093E+02  0.00000000000E+00 0.  1.
         11    1    3    3    0    0 -0.17556594676E+01 -0.92577137899E+01 -0.11127243401E+02  0.14580917350E+02  0.51100000000E-03 0. -1.
        -11    1    3    3    0    0  0.64720944246E+01  0.95864250824E+00 -0.94709875671E+01  0.11511151439E+02  0.51100000000E-03 0.  1.
        -12    1    3    3    0    0 -0.96896782158E+01 -0.21404280589E+02 -0.67174007750E+01  0.24436787118E+02  0.00000000000E+00 0.  1.
</event>
<event>
 7    1  0.5992960E-013  0.5052886E+02  0.7816164E-02  0.1300439E+00
        -11   -1    0    0    0    0  0.00000000000E+00  0.00000000000E+00  0.45593999997E+02  0.45594000000E+02  0.51100000000E-03 0.  1.
         11   -1    0    0    0    0 -0.00000000000E+00 -0.00000000000E+00 -0.45593999997E+02  0.45594000000E+02  0.51100000000E-03 0. -1.
    9900012    2    1    2    0    0  0.51375204593E+01  0.22395436476E+02 -0.33544238471E+02  0.50528860486E+02  0.30000001933E+02 0.  0.
        -12    1    1    2    0    0 -0.51375204593E+01 -0.22395436476E+02  0.33544238471E+02  0.40659139514E+02  0.00000000000E+00 0.  1.
         11    1    3    3    0    0 -0.47897870427E+01  0.52750458904E+01 -0.47785896867E+01  0.85792242490E+01  0.51100000000E-03 0. -1.
        -11    1    3    3    0    0 -0.33799954272E+01  0.14528406427E+02 -0.74137232588E+01  0.16657198300E+02  0.51100000000E-03 0.  1.
        -12    1    3    3    0    0  0.13307302929E+02  0.25919841590E+01 -0.21351925526E+02  0.25292437937E+02  0.00000000000E+00 0.  1.
</event>
<event>
 7    1  0.5992960E-013  0.5052886E+02  0.7816164E-02  0.1300439E+00
        -11   -1    0    0    0    0  0.00000000000E+00  0.00000000000E+00  0.45593999997E+02  0.45594000000E+02  0.51100000000E-03 0.  1.
         11   -1    0    0    0    0 -0.00000000000E+00 -0.00000000000E+00 -0.45593999997E+02  0.45594000000E+02  0.51100000000E-03 0. -1.
    9900012    2    1    2    0    0  0.19312364084E+02  0.12530217708E+02 -0.33514049600E+02  0.50528864705E+02  0.30000014758E+02 0.  0.
        -12    1    1    2    0    0 -0.19312364084E+02 -0.12530217708E+02  0.33514049600E+02  0.40659135295E+02  0.00000000000E+00 0.  1.
         11    1    3    3    0    0  0.14930310533E+02 -0.10206257743E+01 -0.22495323063E+02  0.27018427222E+02  0.51100000000E-03 0. -1.
        -11    1    3    3    0    0 -0.19838353628E+01  0.12999202100E+01 -0.93000523954E+01  0.95977273412E+01  0.51100000000E-03 0.  1.
        -12    1    3    3    0    0  0.63658889136E+01  0.12250923272E+02 -0.17186741417E+01  0.13912710142E+02  0.00000000000E+00 0.  1.
</event>
<event>
 7    1  0.5992960E-013  0.5052884E+02  0.7816164E-02  0.1300439E+00
        -11   -1    0    0    0    0  0.00000000000E+00  0.00000000000E+00  0.45593999997E+02  0.45594000000E+02  0.51100000000E-03 0.  1.
         11   -1    0    0    0    0 -0.00000000000E+00 -0.00000000000E+00 -0.45593999997E+02  0.45594000000E+02  0.51100000000E-03 0. -1.
    9900012    2    1    2    0    0  0.32376750379E+02 -0.13061282033E+01 -0.24560281543E+02  0.50528839096E+02  0.29999936915E+02 0.  0.
        -12    1    1    2    0    0 -0.32376750379E+02  0.13061282033E+01  0.24560281543E+02  0.40659160904E+02  0.00000000000E+00 0.  1.
         11    1    3    3    0    0  0.84572066705E+01  0.55464251822E+01 -0.14091585932E+02  0.17345315544E+02  0.51100000000E-03 0. -1.
        -11    1    3    3    0    0 -0.89092805400E+00 -0.60453254205E+01 -0.46721823970E+01  0.76921388994E+01  0.51100000000E-03 0.  1.
         12    1    3    3    0    0  0.24810471762E+02 -0.80722796506E+00 -0.57965132141E+01  0.25491384652E+02  0.00000000000E+00 0. -1.
</event>
<event>
 7    1  0.5992960E-013  0.5052887E+02  0.7816164E-02  0.1300439E+00
        -11   -1    0    0    0    0  0.00000000000E+00  0.00000000000E+00  0.45593999997E+02  0.45594000000E+02  0.51100000000E-03 0. -1.
         11   -1    0    0    0    0 -0.00000000000E+00 -0.00000000000E+00 -0.45593999997E+02  0.45594000000E+02  0.51100000000E-03 0.  1.
    9900012    2    1    2    0    0 -0.28013324574E+02  0.19824578327E+02  0.21803772242E+02  0.50528871338E+02  0.30000034920E+02 0.  0.
        -12    1    1    2    0    0  0.28013324574E+02 -0.19824578327E+02 -0.21803772242E+02  0.40659128662E+02  0.00000000000E+00 0.  1.
         11    1    3    3    0    0 -0.56032574813E+01  0.87796862494E+01  0.75618431799E+01  0.12870930719E+02  0.51100000000E-03 0. -1.
        -11    1    3    3    0    0 -0.13121592901E+02  0.15286051304E+02  0.14363981019E-01  0.20145465279E+02  0.51100000000E-03 0.  1.
        -12    1    3    3    0    0 -0.92884741913E+01 -0.42411592263E+01  0.14227565081E+02  0.17512475340E+02  0.00000000000E+00 0.  1.
</event>
<event>
 7    1  0.5992960E-013  0.5052874E+02  0.7816164E-02  0.1300439E+00
        -11   -1    0    0    0    0  0.00000000000E+00  0.00000000000E+00  0.45593999997E+02  0.45594000000E+02  0.51100000000E-03 0. -1.
         11   -1    0    0    0    0 -0.00000000000E+00 -0.00000000000E+00 -0.45593999997E+02  0.45594000000E+02  0.51100000000E-03 0.  1.
    9900012    2    1    2    0    0  0.29246125200E+02 -0.22780995541E+02  0.16699277670E+02  0.50528739410E+02  0.29999633909E+02 0.  0.
        -12    1    1    2    0    0 -0.29246125200E+02  0.22780995541E+02 -0.16699277670E+02  0.40659260590E+02  0.00000000000E+00 0.  1.
         11    1    3    3    0    0  0.49446693081E+01 -0.96575254331E+01  0.10968747887E+02  0.15428252738E+02  0.51100000000E-03 0. -1.
        -11    1    3    3    0    0  0.12530818830E+02  0.10605077759E+00  0.10947927653E+02  0.16640005633E+02  0.51100000000E-03 0.  1.
         12    1    3    3    0    0  0.11770637061E+02 -0.13229520885E+02 -0.52173978701E+01  0.18460481039E+02  0.00000000000E+00 0. -1.
</event>
<event>
 7    1  0.5992960E-013  0.5052886E+02  0.7816164E-02  0.1300439E+00
        -11   -1    0    0    0    0  0.00000000000E+00  0.00000000000E+00  0.45593999997E+02  0.45594000000E+02  0.51100000000E-03 0.  1.
         11   -1    0    0    0    0 -0.00000000000E+00 -0.00000000000E+00 -0.45593999997E+02  0.45594000000E+02  0.51100000000E-03 0. -1.
    9900012    2    1    2    0    0 -0.26852324116E+02  0.95035653091E+01 -0.29013794529E+02  0.50528864040E+02  0.30000012737E+02 0.  0.
        -12    1    1    2    0    0  0.26852324116E+02 -0.95035653091E+01  0.29013794529E+02  0.40659135960E+02  0.00000000000E+00 0.  1.
         11    1    3    3    0    0 -0.12598473298E+02 -0.19614337369E+01 -0.85182954851E+01  0.15333952849E+02  0.51100000000E-03 0. -1.
        -11    1    3    3    0    0 -0.14407543801E+02 -0.24559113253E+01 -0.92280963778E+01  0.17284865687E+02  0.51100000000E-03 0.  1.
         12    1    3    3    0    0  0.15369298289E+00  0.13920910371E+02 -0.11267402666E+02  0.17910045504E+02  0.00000000000E+00 0. -1.
</event>
<event>
 7    1  0.5992960E-013  0.5052887E+02  0.7816164E-02  0.1300439E+00
        -11   -1    0    0    0    0  0.00000000000E+00  0.00000000000E+00  0.45593999997E+02  0.45594000000E+02  0.51100000000E-03 0. -1.
         11   -1    0    0    0    0 -0.00000000000E+00 -0.00000000000E+00 -0.45593999997E+02  0.45594000000E+02  0.51100000000E-03 0.  1.
    9900012    2    1    2    0    0 -0.20132697991E+02 -0.19631419236E+02  0.29367439035E+02  0.50528872795E+02  0.30000039348E+02 0.  0.
        -12    1    1    2    0    0  0.20132697991E+02  0.19631419236E+02 -0.29367439035E+02  0.40659127205E+02  0.00000000000E+00 0.  1.
         11    1    3    3    0    0 -0.82166108237E+01 -0.67198361004E+01 -0.24836872650E+01  0.10901265676E+02  0.51100000000E-03 0. -1.
        -11    1    3    3    0    0  0.15738444531E+01 -0.12849179112E+01 -0.99642180099E+00  0.22629310789E+01  0.51100000000E-03 0.  1.
         12    1    3    3    0    0 -0.13489931621E+02 -0.11626665224E+02  0.32847548101E+02  0.37364676040E+02  0.00000000000E+00 0. -1.
</event>
<event>
 7    1  0.5992960E-013  0.5052886E+02  0.7816164E-02  0.1300439E+00
        -11   -1    0    0    0    0  0.00000000000E+00  0.00000000000E+00  0.45593999997E+02  0.45594000000E+02  0.51100000000E-03 0.  1.
         11   -1    0    0    0    0 -0.00000000000E+00 -0.00000000000E+00 -0.45593999997E+02  0.45594000000E+02  0.51100000000E-03 0. -1.
    9900012    2    1    2    0    0 -0.92399274653E+01 -0.35033461474E+02 -0.18451179399E+02  0.50528859531E+02  0.29999999031E+02 0.  0.
        -12    1    1    2    0    0  0.92399274653E+01  0.35033461474E+02  0.18451179399E+02  0.40659140469E+02  0.00000000000E+00 0.  1.
         11    1    3    3    0    0 -0.70839321987E+01 -0.25541521785E+02  0.94799116104E+00  0.26522634070E+02  0.51100000000E-03 0. -1.
        -11    1    3    3    0    0 -0.56902132640E+01 -0.24443970765E+01 -0.96775445302E+01  0.11489494003E+02  0.51100000000E-03 0.  1.
        -12    1    3    3    0    0  0.35342179974E+01 -0.70475426127E+01 -0.97216260299E+01  0.12516731458E+02  0.00000000000E+00 0.  1.
</event>
<event>
 7    1  0.5992960E-013  0.5052885E+02  0.7816164E-02  0.1300439E+00
        -11   -1    0    0    0    0  0.00000000000E+00  0.00000000000E+00  0.45593999997E+02  0.45594000000E+02  0.51100000000E-03 0.  1.
         11   -1    0    0    0    0 -0.00000000000E+00 -0.00000000000E+00 -0.45593999997E+02  0.45594000000E+02  0.51100000000E-03 0. -1.
    9900012    2    1    2    0    0  0.12656407744E+02  0.97743310923E+01 -0.37382402294E+02  0.50528853347E+02  0.29999980233E+02 0.  0.
        -12    1    1    2    0    0 -0.12656407744E+02 -0.97743310923E+01  0.37382402294E+02  0.40659146653E+02  0.00000000000E+00 0.  1.
         11    1    3    3    0    0  0.10679918814E+02 -0.44945562385E+01 -0.94076995940E+01  0.14925364772E+02  0.51100000000E-03 0. -1.
        -11    1    3    3    0    0 -0.43976272492E+01 -0.13716234085E+01 -0.31593100323E+01  0.55858496524E+01  0.51100000000E-03 0.  1.
        -12    1    3    3    0    0  0.63741161791E+01  0.15640510739E+02 -0.24815392668E+02  0.30017638923E+02  0.00000000000E+00 0.  1.
</event>
<event>
 7    1  0.5992960E-013  0.5052886E+02  0.7816164E-02  0.1300439E+00
        -11   -1    0    0    0    0  0.00000000000E+00  0.00000000000E+00  0.45593999997E+02  0.45594000000E+02  0.51100000000E-03 0. -1.
         11   -1    0    0    0    0 -0.00000000000E+00 -0.00000000000E+00 -0.45593999997E+02  0.45594000000E+02  0.51100000000E-03 0.  1.
    9900012    2    1    2    0    0 -0.39602499066E+02  0.31365401110E+01 -0.86584979334E+01  0.50528863234E+02  0.30000010286E+02 0.  0.
        -12    1    1    2    0    0  0.39602499066E+02 -0.31365401110E+01  0.86584979334E+01  0.40659136766E+02  0.00000000000E+00 0.  1.
         11    1    3    3    0    0 -0.44814980991E+01  0.41135137135E+01 -0.47913966729E+01  0.77435329547E+01  0.51100000000E-03 0. -1.
        -11    1    3    3    0    0 -0.51727313889E+01  0.80647067442E+01 -0.62047624205E+01  0.11414715145E+02  0.51100000000E-03 0.  1.
         12    1    3    3    0    0 -0.29948269578E+02 -0.90416803467E+01  0.23376611600E+01  0.31370615134E+02  0.00000000000E+00 0. -1.
</event>
<event>
 7    1  0.5992960E-013  0.5052886E+02  0.7816164E-02  0.1300439E+00
        -11   -1    0    0    0    0  0.00000000000E+00  0.00000000000E+00  0.45593999997E+02  0.45594000000E+02  0.51100000000E-03 0.  1.
         11   -1    0    0    0    0 -0.00000000000E+00 -0.00000000000E+00 -0.45593999997E+02  0.45594000000E+02  0.51100000000E-03 0. -1.
    9900012    2    1    2    0    0 -0.40094671235E+02 -0.41067237332E+01 -0.53588902493E+01  0.50528861470E+02  0.30000004926E+02 0.  0.
        -12    1    1    2    0    0  0.40094671235E+02  0.41067237332E+01  0.53588902493E+01  0.40659138530E+02  0.00000000000E+00 0.  1.
         11    1    3    3    0    0 -0.14476504019E-01 -0.37568513252E+00 -0.67986969093E+00  0.77689892890E+00  0.51100000000E-03 0. -1.
        -11    1    3    3    0    0 -0.41179865097E+02 -0.94059355592E+01  0.11755254957E+00  0.42240581578E+02  0.51100000000E-03 0.  1.
        -12    1    3    3    0    0  0.10996703663E+01  0.56748969585E+01 -0.47965731079E+01  0.75113809638E+01  0.00000000000E+00 0.  1.
</event>
<event>
 7    1  0.5992960E-013  0.5052892E+02  0.7816164E-02  0.1300439E+00
        -11   -1    0    0    0    0  0.00000000000E+00  0.00000000000E+00  0.45593999997E+02  0.45594000000E+02  0.51100000000E-03 0. -1.
         11   -1    0    0    0    0 -0.00000000000E+00 -0.00000000000E+00 -0.45593999997E+02  0.45594000000E+02  0.51100000000E-03 0.  1.
    9900012    2    1    2    0    0 -0.27843286980E+02  0.24365587850E+02 -0.16859123056E+02  0.50528923137E+02  0.30000192367E+02 0.  0.
        -12    1    1    2    0    0  0.27843286980E+02 -0.24365587850E+02  0.16859123056E+02  0.40659076863E+02  0.00000000000E+00 0.  1.
         11    1    3    3    0    0 -0.50983240563E+01  0.66385865637E+01  0.32142742434E+01  0.89663425610E+01  0.51100000000E-03 0. -1.
        -11    1    3    3    0    0 -0.15049969514E+02  0.17139900773E+02 -0.32323303849E+01  0.23037485559E+02  0.51100000000E-03 0.  1.
        -12    1    3    3    0    0 -0.76949934089E+01  0.58710051336E+00 -0.16841066914E+02  0.18525095017E+02  0.00000000000E+00 0.  1.
</event>
<event>
 7    1  0.5992960E-013  0.5052887E+02  0.7816164E-02  0.1300439E+00
        -11   -1    0    0    0    0  0.00000000000E+00  0.00000000000E+00  0.45593999997E+02  0.45594000000E+02  0.51100000000E-03 0.  1.
         11   -1    0    0    0    0 -0.00000000000E+00 -0.00000000000E+00 -0.45593999997E+02  0.45594000000E+02  0.51100000000E-03 0. -1.
    9900012    2    1    2    0    0 -0.92196305181E+00 -0.33910609384E+02 -0.22413946755E+02  0.50528874902E+02  0.30000045751E+02 0.  0.
        -12    1    1    2    0    0  0.92196305181E+00  0.33910609384E+02  0.22413946755E+02  0.40659125098E+02  0.00000000000E+00 0.  1.
         11    1    3    3    0    0  0.10770221639E+01 -0.68270194806E+01 -0.11954438327E+02  0.13808575875E+02  0.51100000000E-03 0. -1.
        -11    1    3    3    0    0 -0.28227067169E+01 -0.43464685834E+01 -0.12837659385E+02  0.13844311507E+02  0.51100000000E-03 0.  1.
         12    1    3    3    0    0  0.82372150121E+00 -0.22737121319E+02  0.23781509570E+01  0.22875987519E+02  0.00000000000E+00 0. -1.
</event>
<event>
 7    1  0.5992960E-013  0.5052886E+02  0.7816164E-02  0.1300439E+00
        -11   -1    0    0    0    0  0.00000000000E+00  0.00000000000E+00  0.45593999997E+02  0.45594000000E+02  0.51100000000E-03 0.  1.
         11   -1    0    0    0    0 -0.00000000000E+00 -0.00000000000E+00 -0.45593999997E+02  0.45594000000E+02  0.51100000000E-03 0. -1.
    9900012    2    1    2    0    0 -0.24047262784E+02 -0.17422440649E+01 -0.32739261626E+02  0.50528861868E+02  0.30000006135E+02 0.  0.
        -12    1    1    2    0    0  0.24047262784E+02  0.17422440649E+01  0.32739261626E+02  0.40659138132E+02  0.00000000000E+00 0.  1.
         11    1    3    3    0    0 -0.13195315770E+02  0.15348105513E+01 -0.69292014404E+01  0.14982851349E+02  0.51100000000E-03 0. -1.
        -11    1    3    3    0    0 -0.16789408610E+02  0.14020028555E+01 -0.16941735550E+02  0.23892933206E+02  0.51100000000E-03 0.  1.
        -12    1    3    3    0    0  0.59374615955E+01 -0.46790574718E+01 -0.88683246357E+01  0.11653077313E+02  0.00000000000E+00 0.  1.
</event>
<event>
 7    1  0.5992960E-013  0.5052888E+02  0.7816164E-02  0.1300439E+00
        -11   -1    0    0    0    0  0.00000000000E+00  0.00000000000E+00  0.45593999997E+02  0.45594000000E+02  0.51100000000E-03 0.  1.
         11   -1    0    0    0    0 -0.00000000000E+00 -0.00000000000E+00 -0.45593999997E+02  0.45594000000E+02  0.51100000000E-03 0. -1.
    9900012    2    1    2    0    0  0.26506986220E+02  0.30185595675E+02  0.62748504556E+01  0.50528877371E+02  0.30000053256E+02 0.  0.
        -12    1    1    2    0    0 -0.26506986220E+02 -0.30185595675E+02 -0.62748504556E+01  0.40659122629E+02  0.00000000000E+00 0.  1.
         11    1    3    3    0    0  0.77395179055E+01 -0.29540445285E+01  0.41207892486E+00  0.82943550555E+01  0.51100000000E-03 0. -1.
        -11    1    3    3    0    0 -0.28559809076E+00 -0.17736292266E+01  0.12621365718E+01  0.21955217808E+01  0.51100000000E-03 0.  1.
        -12    1    3    3    0    0  0.19053066406E+02  0.34913269430E+02  0.46006349590E+01  0.40039000534E+02  0.00000000000E+00 0.  1.
</event>
<event>
 7    1  0.5992960E-013  0.5052886E+02  0.7816164E-02  0.1300439E+00
        -11   -1    0    0    0    0  0.00000000000E+00  0.00000000000E+00  0.45593999997E+02  0.45594000000E+02  0.51100000000E-03 0.  1.
         11   -1    0    0    0    0 -0.00000000000E+00 -0.00000000000E+00 -0.45593999997E+02  0.45594000000E+02  0.51100000000E-03 0. -1.
    9900012    2    1    2    0    0  0.27045914845E+02  0.25117029913E+02 -0.17053405657E+02  0.50528863930E+02  0.30000012402E+02 0.  0.
        -12    1    1    2    0    0 -0.27045914845E+02 -0.25117029913E+02  0.17053405657E+02  0.40659136070E+02  0.00000000000E+00 0.  1.
         11    1    3    3    0    0  0.12621674370E+02  0.77329547656E+01 -0.10525746246E+02  0.18163055569E+02  0.51100000000E-03 0. -1.
        -11    1    3    3    0    0  0.18121783522E+02  0.55896962341E+01 -0.15049728539E+01  0.19023897749E+02  0.51100000000E-03 0.  1.
        -12    1    3    3    0    0 -0.36975430469E+01  0.11794378913E+02 -0.50226865571E+01  0.13341910612E+02  0.00000000000E+00 0.  1.
</event>
<event>
 7    1  0.5992960E-013  0.5052886E+02  0.7816164E-02  0.1300439E+00
        -11   -1    0    0    0    0  0.00000000000E+00  0.00000000000E+00  0.45593999997E+02  0.45594000000E+02  0.51100000000E-03 0. -1.
         11   -1    0    0    0    0 -0.00000000000E+00 -0.00000000000E+00 -0.45593999997E+02  0.45594000000E+02  0.51100000000E-03 0.  1.
    9900012    2    1    2    0    0 -0.11806897713E+02 -0.38842329409E+02  0.22441234142E+01  0.50528862313E+02  0.30000007487E+02 0.  0.
        -12    1    1    2    0    0  0.11806897713E+02  0.38842329409E+02 -0.22441234142E+01  0.40659137687E+02  0.00000000000E+00 0.  1.
         11    1    3    3    0    0 -0.10137410660E+02 -0.22267993151E+02 -0.10887468391E+02  0.26779984729E+02  0.51100000000E-03 0.  1.
        -11    1    3    3    0    0 -0.48387839069E+01 -0.67206616987E+01  0.19421168650E+01  0.85060532296E+01  0.51100000000E-03 0. -1.
         12    1    3    3    0    0  0.31692968542E+01 -0.98536745600E+01  0.11189474940E+02  0.15242824355E+02  0.00000000000E+00 0. -1.
</event>
<event>
 7    1  0.5992960E-013  0.5052886E+02  0.7816164E-02  0.1300439E+00
        -11   -1    0    0    0    0  0.00000000000E+00  0.00000000000E+00  0.45593999997E+02  0.45594000000E+02  0.51100000000E-03 0. -1.
         11   -1    0    0    0    0 -0.00000000000E+00 -0.00000000000E+00 -0.45593999997E+02  0.45594000000E+02  0.51100000000E-03 0.  1.
    9900012    2    1    2    0    0  0.27184603634E+02 -0.22252191007E+02 -0.20469566971E+02  0.50528857715E+02  0.29999993511E+02 0.  0.
        -12    1    1    2    0    0 -0.27184603634E+02  0.22252191007E+02  0.20469566971E+02  0.40659142285E+02  0.00000000000E+00 0.  1.
         11    1    3    3    0    0  0.61386445122E+01  0.38631976361E+00 -0.34208356570E+01  0.70380619676E+01  0.51100000000E-03 0. -1.
        -11    1    3    3    0    0  0.20068030924E+02 -0.33483627498E+01 -0.11609020285E+02  0.23424490400E+02  0.51100000000E-03 0.  1.
        -12    1    3    3    0    0  0.97792819835E+00 -0.19290148021E+02 -0.54397110292E+01  0.20066305348E+02  0.00000000000E+00 0.  1.
</event>
<event>
 7    1  0.5992960E-013  0.5052883E+02  0.7816164E-02  0.1300439E+00
        -11   -1    0    0    0    0  0.00000000000E+00  0.00000000000E+00  0.45593999997E+02  0.45594000000E+02  0.51100000000E-03 0. -1.
         11   -1    0    0    0    0 -0.00000000000E+00 -0.00000000000E+00 -0.45593999997E+02  0.45594000000E+02  0.51100000000E-03 0.  1.
    9900012    2    1    2    0    0  0.14392419012E+02  0.33997623118E+02  0.17034915411E+02  0.50528825810E+02  0.29999896533E+02 0.  0.
        -12    1    1    2    0    0 -0.14392419012E+02 -0.33997623118E+02 -0.17034915411E+02  0.40659174190E+02  0.00000000000E+00 0.  1.
         11    1    3    3    0    0  0.11615346586E+02  0.14524128287E+02 -0.58345526554E-01  0.18597580038E+02  0.51100000000E-03 0. -1.
        -11    1    3    3    0    0  0.37264841037E+01 -0.27932559108E+01  0.24281198641E+01  0.52521165918E+01  0.51100000000E-03 0.  1.
         12    1    3    3    0    0 -0.94941167694E+00  0.22266750742E+02  0.14665141073E+02  0.26679129181E+02  0.00000000000E+00 0. -1.
</event>
<event>
 7    1  0.5992960E-013  0.5052886E+02  0.7816164E-02  0.1300439E+00
        -11   -1    0    0    0    0  0.00000000000E+00  0.00000000000E+00  0.45593999997E+02  0.45594000000E+02  0.51100000000E-03 0.  1.
         11   -1    0    0    0    0 -0.00000000000E+00 -0.00000000000E+00 -0.45593999997E+02  0.45594000000E+02  0.51100000000E-03 0. -1.
    9900012    2    1    2    0    0 -0.17446917050E+02  0.34948496155E+02 -0.11285976901E+02  0.50528861142E+02  0.30000003928E+02 0.  0.
        -12    1    1    2    0    0  0.17446917050E+02 -0.34948496155E+02  0.11285976901E+02  0.40659138858E+02  0.00000000000E+00 0.  1.
         11    1    3    3    0    0 -0.76797204409E+01 -0.20080713106E+01 -0.13856421688E+01  0.80579439635E+01  0.51100000000E-03 0. -1.
        -11    1    3    3    0    0 -0.53594524795E+01  0.18016811173E+01  0.10496093617E+00  0.56551571851E+01  0.51100000000E-03 0.  1.
         12    1    3    3    0    0 -0.44077441294E+01  0.35154886349E+02 -0.10005295668E+02  0.36815759994E+02  0.00000000000E+00 0. -1.
</event>
<event>
 7    1  0.5992960E-013  0.5052886E+02  0.7816164E-02  0.1300439E+00
        -11   -1    0    0    0    0  0.00000000000E+00  0.00000000000E+00  0.45593999997E+02  0.45594000000E+02  0.51100000000E-03 0.  1.
         11   -1    0    0    0    0 -0.00000000000E+00 -0.00000000000E+00 -0.45593999997E+02  0.45594000000E+02  0.51100000000E-03 0. -1.
    9900012    2    1    2    0    0 -0.11396780510E+02 -0.39019613619E+02 -0.86538346106E+00  0.50528859066E+02  0.29999997616E+02 0.  0.
        -12    1    1    2    0    0  0.11396780510E+02  0.39019613619E+02  0.86538346106E+00  0.40659140934E+02  0.00000000000E+00 0.  1.
         11    1    3    3    0    0 -0.12228561463E+01 -0.14721958265E+02 -0.11273664650E+02  0.18582974660E+02  0.51100000000E-03 0. -1.
        -11    1    3    3    0    0  0.34728933911E+01 -0.69548925682E+01  0.49388164389E+01  0.92099634754E+01  0.51100000000E-03 0.  1.
        -12    1    3    3    0    0 -0.13646817754E+02 -0.17342762786E+02  0.54694647505E+01  0.22735920930E+02  0.00000000000E+00 0.  1.
</event>
<event>
 7    1  0.5992960E-013  0.5052887E+02  0.7816164E-02  0.1300439E+00
        -11   -1    0    0    0    0  0.00000000000E+00  0.00000000000E+00  0.45593999997E+02  0.45594000000E+02  0.51100000000E-03 0.  1.
         11   -1    0    0    0    0 -0.00000000000E+00 -0.00000000000E+00 -0.45593999997E+02  0.45594000000E+02  0.51100000000E-03 0. -1.
    9900012    2    1    2    0    0  0.15429208113E+02 -0.21047793202E+01 -0.37558947095E+02  0.50528867374E+02  0.30000022870E+02 0.  0.
        -12    1    1    2    0    0 -0.15429208113E+02  0.21047793202E+01  0.37558947095E+02  0.40659132626E+02  0.00000000000E+00 0.  1.
         11    1    3    3    0    0  0.49721205836E+01 -0.26068968681E+01 -0.18094611901E+02  0.18945523864E+02  0.51100000000E-03 0. -1.
        -11    1    3    3    0    0  0.98039720143E+01 -0.15855727343E+01 -0.24313497756E+02  0.26263626587E+02  0.51100000000E-03 0.  1.
        -12    1    3    3    0    0  0.65311551480E+00  0.20876902823E+01  0.48491625612E+01  0.53197169225E+01  0.00000000000E+00 0.  1.
</event>
<event>
 7    1  0.5992960E-013  0.5052886E+02  0.7816164E-02  0.1300439E+00
        -11   -1    0    0    0    0  0.00000000000E+00  0.00000000000E+00  0.45593999997E+02  0.45594000000E+02  0.51100000000E-03 0. -1.
         11   -1    0    0    0    0 -0.00000000000E+00 -0.00000000000E+00 -0.45593999997E+02  0.45594000000E+02  0.51100000000E-03 0.  1.
    9900012    2    1    2    0    0 -0.29199590186E+02  0.26756289356E+02 -0.92005924243E+01  0.50528856034E+02  0.29999988400E+02 0.  0.
        -12    1    1    2    0    0  0.29199590186E+02 -0.26756289356E+02  0.92005924243E+01  0.40659143966E+02  0.00000000000E+00 0.  1.
         11    1    3    3    0    0 -0.15058341402E+01  0.27101340650E+01 -0.38520053704E+00  0.31242187540E+01  0.51100000000E-03 0. -1.
        -11    1    3    3    0    0 -0.17479949020E+02 -0.11761121954E+01 -0.99897287152E+01  0.20167462351E+02  0.51100000000E-03 0.  1.
        -12    1    3    3    0    0 -0.10213807026E+02  0.25222267486E+02  0.11743368279E+01  0.27237174928E+02  0.00000000000E+00 0.  1.
</event>
<event>
 7    1  0.5992960E-013  0.5052886E+02  0.7816164E-02  0.1300439E+00
        -11   -1    0    0    0    0  0.00000000000E+00  0.00000000000E+00  0.45593999997E+02  0.45594000000E+02  0.51100000000E-03 0. -1.
         11   -1    0    0    0    0 -0.00000000000E+00 -0.00000000000E+00 -0.45593999997E+02  0.45594000000E+02  0.51100000000E-03 0.  1.
    9900012    2    1    2    0    0 -0.12603274202E+02 -0.15691190909E+02  0.35328598577E+02  0.50528857484E+02  0.29999992808E+02 0.  0.
        -12    1    1    2    0    0  0.12603274202E+02  0.15691190909E+02 -0.35328598577E+02  0.40659142516E+02  0.00000000000E+00 0.  1.
         11    1    3    3    0    0 -0.53260782077E+00 -0.52369178050E+01  0.83651696527E+01  0.98835743922E+01  0.51100000000E-03 0. -1.
        -11    1    3    3    0    0  0.79210791161E+01 -0.53432642989E+01  0.10901827268E+02  0.14496337668E+02  0.51100000000E-03 0.  1.
        -12    1    3    3    0    0 -0.19991745497E+02 -0.51110088055E+01  0.16061601656E+02  0.26148945424E+02  0.00000000000E+00 0.  1.
</event>
<event>
 7    1  0.5992960E-013  0.5052885E+02  0.7816164E-02  0.1300439E+00
        -11   -1    0    0    0    0  0.00000000000E+00  0.00000000000E+00  0.45593999997E+02  0.45594000000E+02  0.51100000000E-03 0.  1.
         11   -1    0    0    0    0 -0.00000000000E+00 -0.00000000000E+00 -0.45593999997E+02  0.45594000000E+02  0.51100000000E-03 0. -1.
    9900012    2    1    2    0    0 -0.27647984174E+02  0.27233003772E+02 -0.12129262848E+02  0.50528849240E+02  0.29999967749E+02 0.  0.
        -12    1    1    2    0    0  0.27647984174E+02 -0.27233003772E+02  0.12129262848E+02  0.40659150760E+02  0.00000000000E+00 0.  1.
         11    1    3    3    0    0 -0.20501272837E+02  0.94269035144E+01 -0.63020328636E+01  0.23428280267E+02  0.51100000000E-03 0. -1.
        -11    1    3    3    0    0 -0.10884725132E+02  0.61993017767E+01  0.18925365758E+01  0.12668475783E+02  0.51100000000E-03 0.  1.
         12    1    3    3    0    0  0.37380137940E+01  0.11606798481E+02 -0.77197665603E+01  0.14432093190E+02  0.00000000000E+00 0. -1.
</event>
<event>
 7    1  0.5992960E-013  0.5052886E+02  0.7816164E-02  0.1300439E+00
        -11   -1    0    0    0    0  0.00000000000E+00  0.00000000000E+00  0.45593999997E+02  0.45594000000E+02  0.51100000000E-03 0. -1.
         11   -1    0    0    0    0 -0.00000000000E+00 -0.00000000000E+00 -0.45593999997E+02  0.45594000000E+02  0.51100000000E-03 0.  1.
    9900012    2    1    2    0    0 -0.20315301579E+02 -0.54864660136E+01  0.34790127729E+02  0.50528858654E+02  0.29999996365E+02 0.  0.
        -12    1    1    2    0    0  0.20315301579E+02  0.54864660136E+01 -0.34790127729E+02  0.40659141346E+02  0.00000000000E+00 0.  1.
         11    1    3    3    0    0  0.24553844786E+01  0.74040808888E+00  0.10523369935E+02  0.10831363355E+02  0.51100000000E-03 0. -1.
        -11    1    3    3    0    0  0.31015947781E+01  0.11554688112E+01  0.69599659785E+01  0.77068881544E+01  0.51100000000E-03 0.  1.
         12    1    3    3    0    0 -0.25872280836E+02 -0.73823429137E+01  0.17306791815E+02  0.31990607145E+02  0.00000000000E+00 0. -1.
</event>
<event>
 7    1  0.5992960E-013  0.5052886E+02  0.7816164E-02  0.1300439E+00
        -11   -1    0    0    0    0  0.00000000000E+00  0.00000000000E+00  0.45593999997E+02  0.45594000000E+02  0.51100000000E-03 0.  1.
         11   -1    0    0    0    0 -0.00000000000E+00 -0.00000000000E+00 -0.45593999997E+02  0.45594000000E+02  0.51100000000E-03 0. -1.
    9900012    2    1    2    0    0  0.27934999378E+01 -0.35760695544E+02 -0.19145096664E+02  0.50528859405E+02  0.29999998647E+02 0.  0.
        -12    1    1    2    0    0 -0.27934999378E+01  0.35760695544E+02  0.19145096664E+02  0.40659140595E+02  0.00000000000E+00 0.  1.
         11    1    3    3    0    0  0.31620155888E+00 -0.12106024561E+02 -0.14726754340E+02  0.19066544200E+02  0.51100000000E-03 0. -1.
        -11    1    3    3    0    0 -0.39717233757E+01 -0.54832796969E+01 -0.93649382550E+01  0.11556081152E+02  0.51100000000E-03 0.  1.
        -12    1    3    3    0    0  0.64490217547E+01 -0.18171391286E+02  0.49465959311E+01  0.19906234053E+02  0.00000000000E+00 0.  1.
</event>
<event>
 7    1  0.5992960E-013  0.5052887E+02  0.7816164E-02  0.1300439E+00
        -11   -1    0    0    0    0  0.00000000000E+00  0.00000000000E+00  0.45593999997E+02  0.45594000000E+02  0.51100000000E-03 0.  1.
         11   -1    0    0    0    0 -0.00000000000E+00 -0.00000000000E+00 -0.45593999997E+02  0.45594000000E+02  0.51100000000E-03 0. -1.
    9900012    2    1    2    0    0  0.11070663276E+02  0.31815898199E+01 -0.38993367097E+02  0.50528870930E+02  0.30000033680E+02 0.  0.
        -12    1    1    2    0    0 -0.11070663276E+02 -0.31815898199E+01  0.38993367097E+02  0.40659129070E+02  0.00000000000E+00 0.  1.
         11    1    3    3    0    0 -0.19680443167E+01  0.15848203960E+00 -0.19151015530E+00  0.19836812723E+01  0.51100000000E-03 0. -1.
        -11    1    3    3    0    0  0.69424515296E+01 -0.11050068243E+02 -0.12341955705E+02  0.17961779208E+02  0.51100000000E-03 0.  1.
         12    1    3    3    0    0  0.60962560630E+01  0.14073176023E+02 -0.26459901236E+02  0.30583410450E+02  0.00000000000E+00 0. -1.
</event>
<event>
 7    1  0.5992960E-013  0.5052885E+02  0.7816164E-02  0.1300439E+00
        -11   -1    0    0    0    0  0.00000000000E+00  0.00000000000E+00  0.45593999997E+02  0.45594000000E+02  0.51100000000E-03 0.  1.
         11   -1    0    0    0    0 -0.00000000000E+00 -0.00000000000E+00 -0.45593999997E+02  0.45594000000E+02  0.51100000000E-03 0. -1.
    9900012    2    1    2    0    0 -0.40573322230E+02  0.25676763802E+01  0.61564814953E+00  0.50528850213E+02  0.29999970707E+02 0.  0.
        -12    1    1    2    0    0  0.40573322230E+02 -0.25676763802E+01 -0.61564814953E+00  0.40659149787E+02  0.00000000000E+00 0.  1.
         11    1    3    3    0    0  0.88817660498E+00 -0.12463270140E+00 -0.16263072770E+01  0.18572201303E+01  0.51100000000E-03 0. -1.
        -11    1    3    3    0    0 -0.86962066013E+01  0.10109723160E+02 -0.51123461292E+01  0.14281687394E+02  0.51100000000E-03 0.  1.
         12    1    3    3    0    0 -0.32765292233E+02 -0.74174140782E+01  0.73543015557E+01  0.34389942689E+02  0.00000000000E+00 0. -1.
</event>
<event>
 7    1  0.5992960E-013  0.5052892E+02  0.7816164E-02  0.1300439E+00
        -11   -1    0    0    0    0  0.00000000000E+00  0.00000000000E+00  0.45593999997E+02  0.45594000000E+02  0.51100000000E-03 0. -1.
         11   -1    0    0    0    0 -0.00000000000E+00 -0.00000000000E+00 -0.45593999997E+02  0.45594000000E+02  0.51100000000E-03 0.  1.
    9900012    2    1    2    0    0 -0.25585390248E+02 -0.29621449820E+02  0.11005390493E+02  0.50528916101E+02  0.30000170981E+02 0.  0.
        -12    1    1    2    0    0  0.25585390248E+02  0.29621449820E+02 -0.11005390493E+02  0.40659083899E+02  0.00000000000E+00 0.  1.
         11    1    3    3    0    0 -0.24789136559E+01 -0.80645350552E+01 -0.28388655390E+01  0.89017355824E+01  0.51100000000E-03 0. -1.
        -11    1    3    3    0    0 -0.93055050667E+01 -0.23500155671E+02  0.79651671275E+01  0.26500823171E+02  0.51100000000E-03 0.  1.
         12    1    3    3    0    0 -0.13800971525E+02  0.19432409064E+01  0.58790889044E+01  0.15126357348E+02  0.00000000000E+00 0. -1.
</event>
<event>
 7    1  0.5992960E-013  0.5052886E+02  0.7816164E-02  0.1300439E+00
        -11   -1    0    0    0    0  0.00000000000E+00  0.00000000000E+00  0.45593999997E+02  0.45594000000E+02  0.51100000000E-03 0.  1.
         11   -1    0    0    0    0 -0.00000000000E+00 -0.00000000000E+00 -0.45593999997E+02  0.45594000000E+02  0.51100000000E-03 0. -1.
    9900012    2    1    2    0    0 -0.15007545027E+02  0.23524111332E+02 -0.29572877070E+02  0.50528864742E+02  0.30000014871E+02 0.  0.
        -12    1    1    2    0    0  0.15007545027E+02 -0.23524111332E+02  0.29572877070E+02  0.40659135258E+02  0.00000000000E+00 0.  1.
         11    1    3    3    0    0  0.27340002216E+01 -0.23277157510E+01 -0.24881797674E+01  0.43685302614E+01  0.51100000000E-03 0. -1.
        -11    1    3    3    0    0 -0.10947747710E+02  0.22897146704E+02 -0.95363987546E+01  0.27112274132E+02  0.51100000000E-03 0.  1.
         12    1    3    3    0    0 -0.67937975382E+01  0.29546803791E+01 -0.17548298548E+02  0.19048060349E+02  0.00000000000E+00 0. -1.
</event>
<event>
 7    1  0.5992960E-013  0.5052887E+02  0.7816164E-02  0.1300439E+00
        -11   -1    0    0    0    0  0.00000000000E+00  0.00000000000E+00  0.45593999997E+02  0.45594000000E+02  0.51100000000E-03 0. -1.
         11   -1    0    0    0    0 -0.00000000000E+00 -0.00000000000E+00 -0.45593999997E+02  0.45594000000E+02  0.51100000000E-03 0.  1.
    9900012    2    1    2    0    0  0.21547201985E+02 -0.33751962828E+02 -0.70489939385E+01  0.50528865433E+02  0.30000016971E+02 0.  0.
        -12    1    1    2    0    0 -0.21547201985E+02  0.33751962828E+02  0.70489939385E+01  0.40659134567E+02  0.00000000000E+00 0.  1.
         11    1    3    3    0    0  0.76248732610E+01 -0.46287824329E+01  0.26700603107E+01  0.93109366543E+01  0.51100000000E-03 0. -1.
        -11    1    3    3    0    0  0.10713511929E+02 -0.85619445014E-01 -0.40795483809E+01  0.11464265515E+02  0.51100000000E-03 0.  1.
        -12    1    3    3    0    0  0.32088167946E+01 -0.29037560951E+02 -0.56395058683E+01  0.29753663264E+02  0.00000000000E+00 0.  1.
</event>
<event>
 7    1  0.5992960E-013  0.5052886E+02  0.7816164E-02  0.1300439E+00
        -11   -1    0    0    0    0  0.00000000000E+00  0.00000000000E+00  0.45593999997E+02  0.45594000000E+02  0.51100000000E-03 0. -1.
         11   -1    0    0    0    0 -0.00000000000E+00 -0.00000000000E+00 -0.45593999997E+02  0.45594000000E+02  0.51100000000E-03 0.  1.
    9900012    2    1    2    0    0  0.22557121196E+02  0.32846388954E+02 -0.80905495581E+01  0.50528856181E+02  0.29999988849E+02 0.  0.
        -12    1    1    2    0    0 -0.22557121196E+02 -0.32846388954E+02  0.80905495581E+01  0.40659143819E+02  0.00000000000E+00 0.  1.
         11    1    3    3    0    0  0.72693946396E+01  0.75457514350E+01  0.45172005395E+01  0.11409976517E+02  0.51100000000E-03 0. -1.
        -11    1    3    3    0    0  0.12978146028E+02  0.14447403882E+01 -0.47762563582E+01  0.13904394060E+02  0.51100000000E-03 0.  1.
        -12    1    3    3    0    0  0.23095805280E+01  0.23855897130E+02 -0.78314937394E+01  0.25214485604E+02  0.00000000000E+00 0.  1.
</event>
<event>
 7    1  0.5992960E-013  0.5052885E+02  0.7816164E-02  0.1300439E+00
        -11   -1    0    0    0    0  0.00000000000E+00  0.00000000000E+00  0.45593999997E+02  0.45594000000E+02  0.51100000000E-03 0.  1.
         11   -1    0    0    0    0 -0.00000000000E+00 -0.00000000000E+00 -0.45593999997E+02  0.45594000000E+02  0.51100000000E-03 0. -1.
    9900012    2    1    2    0    0 -0.15860988398E+02  0.28380612962E+02 -0.24415910370E+02  0.50528845751E+02  0.29999957144E+02 0.  0.
        -12    1    1    2    0    0  0.15860988398E+02 -0.28380612962E+02  0.24415910370E+02  0.40659154249E+02  0.00000000000E+00 0.  1.
         11    1    3    3    0    0  0.31204769547E+01  0.46308449701E+01 -0.35283009893E+01  0.66053773317E+01  0.51100000000E-03 0. -1.
        -11    1    3    3    0    0  0.34962766096E+01 -0.12091961890E+01  0.10006171324E+01  0.38324066148E+01  0.51100000000E-03 0.  1.
         12    1    3    3    0    0 -0.22477741962E+02  0.24958964181E+02 -0.21888226513E+02  0.40091061804E+02  0.00000000000E+00 0. -1.
</event>
<event>
 7    1  0.5992960E-013  0.5052886E+02  0.7816164E-02  0.1300439E+00
        -11   -1    0    0    0    0  0.00000000000E+00  0.00000000000E+00  0.45593999997E+02  0.45594000000E+02  0.51100000000E-03 0.  1.
         11   -1    0    0    0    0 -0.00000000000E+00 -0.00000000000E+00 -0.45593999997E+02  0.45594000000E+02  0.51100000000E-03 0. -1.
    9900012    2    1    2    0    0 -0.29592335072E+02 -0.23601457075E+02 -0.14846912604E+02  0.50528857302E+02  0.29999992255E+02 0.  0.
        -12    1    1    2    0    0  0.29592335072E+02  0.23601457075E+02  0.14846912604E+02  0.40659142698E+02  0.00000000000E+00 0.  1.
         11    1    3    3    0    0 -0.12451899523E+02  0.41047922346E+01 -0.75815314520E+01  0.15145254717E+02  0.51100000000E-03 0. -1.
        -11    1    3    3    0    0 -0.19756146069E+01  0.12155843923E+00  0.15213243429E+01  0.24964489874E+01  0.51100000000E-03 0.  1.
         12    1    3    3    0    0 -0.15164820942E+02 -0.27827807749E+02 -0.87867054945E+01  0.32887153598E+02  0.00000000000E+00 0. -1.
</event>
<event>
 7    1  0.5992960E-013  0.5052885E+02  0.7816164E-02  0.1300439E+00
        -11   -1    0    0    0    0  0.00000000000E+00  0.00000000000E+00  0.45593999997E+02  0.45594000000E+02  0.51100000000E-03 0.  1.
         11   -1    0    0    0    0 -0.00000000000E+00 -0.00000000000E+00 -0.45593999997E+02  0.45594000000E+02  0.51100000000E-03 0. -1.
    9900012    2    1    2    0    0 -0.32258493406E+02 -0.22739830478E+02 -0.97701573693E+01  0.50528852665E+02  0.29999978162E+02 0.  0.
        -12    1    1    2    0    0  0.32258493406E+02  0.22739830478E+02  0.97701573693E+01  0.40659147335E+02  0.00000000000E+00 0.  1.
         11    1    3    3    0    0 -0.69045021563E+01 -0.96690456051E+01  0.25517513131E+01  0.12152120307E+02  0.51100000000E-03 0. -1.
        -11    1    3    3    0    0 -0.13700374922E+02 -0.59489634019E+01  0.55059942929E+01  0.15918744045E+02  0.51100000000E-03 0.  1.
         12    1    3    3    0    0 -0.11653616327E+02 -0.71218214707E+01 -0.17827902975E+02  0.22457988313E+02  0.00000000000E+00 0. -1.
</event>
<event>
 7    1  0.5992960E-013  0.5052886E+02  0.7816164E-02  0.1300439E+00
        -11   -1    0    0    0    0  0.00000000000E+00  0.00000000000E+00  0.45593999997E+02  0.45594000000E+02  0.51100000000E-03 0. -1.
         11   -1    0    0    0    0 -0.00000000000E+00 -0.00000000000E+00 -0.45593999997E+02  0.45594000000E+02  0.51100000000E-03 0.  1.
    9900012    2    1    2    0    0 -0.36931837385E+02  0.10772560131E+02 -0.13158921831E+02  0.50528857262E+02  0.29999992134E+02 0.  0.
        -12    1    1    2    0    0  0.36931837385E+02 -0.10772560131E+02  0.13158921831E+02  0.40659142738E+02  0.00000000000E+00 0.  1.
         11    1    3    3    0    0 -0.43156354997E+01 -0.24397046514E+01 -0.58602082122E+01  0.76758653651E+01  0.51100000000E-03 0. -1.
        -11    1    3    3    0    0 -0.13972318947E+02 -0.40306555526E+01 -0.94881334811E+01  0.17363656244E+02  0.51100000000E-03 0.  1.
         12    1    3    3    0    0 -0.18643882938E+02  0.17242920335E+02  0.21894198623E+01  0.25489335653E+02  0.00000000000E+00 0. -1.
</event>
<event>
 7    1  0.5992960E-013  0.5052886E+02  0.7816164E-02  0.1300439E+00
        -11   -1    0    0    0    0  0.00000000000E+00  0.00000000000E+00  0.45593999997E+02  0.45594000000E+02  0.51100000000E-03 0.  1.
         11   -1    0    0    0    0 -0.00000000000E+00 -0.00000000000E+00 -0.45593999997E+02  0.45594000000E+02  0.51100000000E-03 0. -1.
    9900012    2    1    2    0    0  0.28137035690E+02  0.27907374007E+02 -0.90912827559E+01  0.50528859287E+02  0.29999998288E+02 0.  0.
        -12    1    1    2    0    0 -0.28137035690E+02 -0.27907374007E+02  0.90912827559E+01  0.40659140713E+02  0.00000000000E+00 0.  1.
         11    1    3    3    0    0  0.38528296964E+01  0.80387259821E+01 -0.12455657091E+01  0.90009358559E+01  0.51100000000E-03 0. -1.
        -11    1    3    3    0    0  0.23059216715E+02  0.16440015810E+02  0.44835064921E+01  0.28672346016E+02  0.51100000000E-03 0.  1.
        -12    1    3    3    0    0  0.12249892781E+01  0.34286322154E+01 -0.12329223539E+02  0.12855577415E+02  0.00000000000E+00 0.  1.
</event>
<event>
 7    1  0.5992960E-013  0.5052884E+02  0.7816164E-02  0.1300439E+00
        -11   -1    0    0    0    0  0.00000000000E+00  0.00000000000E+00  0.45593999997E+02  0.45594000000E+02  0.51100000000E-03 0.  1.
         11   -1    0    0    0    0 -0.00000000000E+00 -0.00000000000E+00 -0.45593999997E+02  0.45594000000E+02  0.51100000000E-03 0. -1.
    9900012    2    1    2    0    0  0.16779760355E+02  0.32598690048E+02 -0.17576471764E+02  0.50528839776E+02  0.29999938984E+02 0.  0.
        -12    1    1    2    0    0 -0.16779760355E+02 -0.32598690048E+02  0.17576471764E+02  0.40659160224E+02  0.00000000000E+00 0.  1.
         11    1    3    3    0    0  0.42549415844E+01  0.71083487908E+01 -0.15866854372E+01  0.84350886988E+01  0.51100000000E-03 0. -1.
        -11    1    3    3    0    0  0.18473051617E+02  0.26600350711E+02 -0.15813559428E+02  0.36040268534E+02  0.51100000000E-03 0.  1.
        -12    1    3    3    0    0 -0.59482328466E+01 -0.11100094534E+01 -0.17622689886E+00  0.60534825434E+01  0.00000000000E+00 0.  1.
</event>
<event>
 7    1  0.5992960E-013  0.5052887E+02  0.7816164E-02  0.1300439E+00
        -11   -1    0    0    0    0  0.00000000000E+00  0.00000000000E+00  0.45593999997E+02  0.45594000000E+02  0.51100000000E-03 0.  1.
         11   -1    0    0    0    0 -0.00000000000E+00 -0.00000000000E+00 -0.45593999997E+02  0.45594000000E+02  0.51100000000E-03 0. -1.
    9900012    2    1    2    0    0  0.33252060379E+02  0.23300984862E+02 -0.21283380937E+01  0.50528865257E+02  0.30000016436E+02 0.  0.
        -12    1    1    2    0    0 -0.33252060379E+02 -0.23300984862E+02  0.21283380937E+01  0.40659134743E+02  0.00000000000E+00 0.  1.
         11    1    3    3    0    0  0.82857988681E+01  0.10973097145E+02 -0.79892034106E+01  0.15902537384E+02  0.51100000000E-03 0. -1.
        -11    1    3    3    0    0  0.16855773391E+02  0.15425284888E+02 -0.19716957959E+01  0.22933471064E+02  0.51100000000E-03 0.  1.
        -12    1    3    3    0    0  0.81104881196E+01 -0.30973971714E+01  0.78325611128E+01  0.11692856809E+02  0.00000000000E+00 0.  1.
</event>
<event>
 7    1  0.5992960E-013  0.5052886E+02  0.7816164E-02  0.1300439E+00
        -11   -1    0    0    0    0  0.00000000000E+00  0.00000000000E+00  0.45593999997E+02  0.45594000000E+02  0.51100000000E-03 0.  1.
         11   -1    0    0    0    0 -0.00000000000E+00 -0.00000000000E+00 -0.45593999997E+02  0.45594000000E+02  0.51100000000E-03 0. -1.
    9900012    2    1    2    0    0  0.13033399610E+02  0.35590094999E+01 -0.38348789386E+02  0.50528859559E+02  0.29999999116E+02 0.  0.
        -12    1    1    2    0    0 -0.13033399610E+02 -0.35590094999E+01  0.38348789386E+02  0.40659140441E+02  0.00000000000E+00 0.  1.
         11    1    3    3    0    0  0.13725142419E+02  0.73056047602E+01 -0.29217606123E+02  0.33097128321E+02  0.51100000000E-03 0. -1.
        -11    1    3    3    0    0  0.30775817302E+01  0.46830285502E+01 -0.31243261553E+01  0.64158927589E+01  0.51100000000E-03 0.  1.
         12    1    3    3    0    0 -0.37693245393E+01 -0.84296238105E+01 -0.60068571083E+01  0.11015838479E+02  0.00000000000E+00 0. -1.
</event>
<event>
 7    1  0.5992960E-013  0.5052887E+02  0.7816164E-02  0.1300439E+00
        -11   -1    0    0    0    0  0.00000000000E+00  0.00000000000E+00  0.45593999997E+02  0.45594000000E+02  0.51100000000E-03 0.  1.
         11   -1    0    0    0    0 -0.00000000000E+00 -0.00000000000E+00 -0.45593999997E+02  0.45594000000E+02  0.51100000000E-03 0. -1.
    9900012    2    1    2    0    0  0.17836739961E+02 -0.36273865399E+02  0.43843082206E+01  0.50528871111E+02  0.30000034230E+02 0.  0.
        -12    1    1    2    0    0 -0.17836739961E+02  0.36273865399E+02 -0.43843082206E+01  0.40659128889E+02  0.00000000000E+00 0.  1.
         11    1    3    3    0    0 -0.41075850553E+01 -0.12487604030E+02  0.41881474691E+00  0.13152487044E+02  0.51100000000E-03 0. -1.
        -11    1    3    3    0    0  0.60605130571E+01 -0.37684850027E+01 -0.66034480811E+01  0.97230049137E+01  0.51100000000E-03 0.  1.
        -12    1    3    3    0    0  0.15883811959E+02 -0.20017776367E+02  0.10568941555E+02  0.27653379154E+02  0.00000000000E+00 0.  1.
</event>
<event>
 7    1  0.5992960E-013  0.5052886E+02  0.7816164E-02  0.1300439E+00
        -11   -1    0    0    0    0  0.00000000000E+00  0.00000000000E+00  0.45593999997E+02  0.45594000000E+02  0.51100000000E-03 0. -1.
         11   -1    0    0    0    0 -0.00000000000E+00 -0.00000000000E+00 -0.45593999997E+02  0.45594000000E+02  0.51100000000E-03 0.  1.
    9900012    2    1    2    0    0 -0.16051932449E+02 -0.30853382995E+02  0.21061102841E+02  0.50528857972E+02  0.29999994293E+02 0.  0.
        -12    1    1    2    0    0  0.16051932449E+02  0.30853382995E+02 -0.21061102841E+02  0.40659142028E+02  0.00000000000E+00 0.  1.
         11    1    3    3    0    0 -0.82331303778E+01 -0.14983774308E+02  0.10366229055E+02  0.19993914910E+02  0.51100000000E-03 0. -1.
        -11    1    3    3    0    0 -0.58923302888E+01 -0.19468357076E+02  0.14063663828E+01  0.20389074284E+02  0.51100000000E-03 0.  1.
        -12    1    3    3    0    0 -0.19264717825E+01  0.35987483900E+01  0.92885074026E+01  0.10145868779E+02  0.00000000000E+00 0.  1.
</event>
<event>
 7    1  0.5992960E-013  0.5052881E+02  0.7816164E-02  0.1300439E+00
        -11   -1    0    0    0    0  0.00000000000E+00  0.00000000000E+00  0.45593999997E+02  0.45594000000E+02  0.51100000000E-03 0. -1.
         11   -1    0    0    0    0 -0.00000000000E+00 -0.00000000000E+00 -0.45593999997E+02  0.45594000000E+02  0.51100000000E-03 0.  1.
    9900012    2    1    2    0    0 -0.36202227391E+02  0.17779091587E+02  0.51451050246E+01  0.50528813197E+02  0.29999858194E+02 0.  0.
        -12    1    1    2    0    0  0.36202227391E+02 -0.17779091587E+02 -0.51451050246E+01  0.40659186803E+02  0.00000000000E+00 0.  1.
         11    1    3    3    0    0 -0.22945974883E+01  0.75935808764E+01  0.54283800793E+01  0.96122296428E+01  0.51100000000E-03 0. -1.
        -11    1    3    3    0    0 -0.54089751640E+01  0.11042996169E+02 -0.14464383510E+01  0.12381314989E+02  0.51100000000E-03 0.  1.
         12    1    3    3    0    0 -0.28498654739E+02 -0.85748545745E+00  0.11631632963E+01  0.28535268565E+02  0.00000000000E+00 0. -1.
</event>
<event>
 7    1  0.5992960E-013  0.5052887E+02  0.7816164E-02  0.1300439E+00
        -11   -1    0    0    0    0  0.00000000000E+00  0.00000000000E+00  0.45593999997E+02  0.45594000000E+02  0.51100000000E-03 0.  1.
         11   -1    0    0    0    0 -0.00000000000E+00 -0.00000000000E+00 -0.45593999997E+02  0.45594000000E+02  0.51100000000E-03 0. -1.
    9900012    2    1    2    0    0  0.78448357140E+01 -0.38646118042E+02 -0.99046130294E+01  0.50528865155E+02  0.30000016125E+02 0.  0.
        -12    1    1    2    0    0 -0.78448357140E+01  0.38646118042E+02  0.99046130294E+01  0.40659134845E+02  0.00000000000E+00 0.  1.
         11    1    3    3    0    0  0.57509909761E+01  0.51350927304E+00 -0.21757330682E+01  0.61702028837E+01  0.51100000000E-03 0. -1.
        -11    1    3    3    0    0 -0.15712782362E+01  0.15002270301E+01  0.13214673188E+01  0.25428080095E+01  0.51100000000E-03 0.  1.
         12    1    3    3    0    0  0.36651229741E+01 -0.40659854345E+02 -0.90503472799E+01  0.41815854262E+02  0.00000000000E+00 0. -1.
</event>
<event>
 7    1  0.5992960E-013  0.5052882E+02  0.7816164E-02  0.1300439E+00
        -11   -1    0    0    0    0  0.00000000000E+00  0.00000000000E+00  0.45593999997E+02  0.45594000000E+02  0.51100000000E-03 0.  1.
         11   -1    0    0    0    0 -0.00000000000E+00 -0.00000000000E+00 -0.45593999997E+02  0.45594000000E+02  0.51100000000E-03 0. -1.
    9900012    2    1    2    0    0  0.27454920228E+02  0.13634939331E+02 -0.26711133104E+02  0.50528820876E+02  0.29999881535E+02 0.  0.
        -12    1    1    2    0    0 -0.27454920228E+02 -0.13634939331E+02  0.26711133104E+02  0.40659179124E+02  0.00000000000E+00 0.  1.
         11    1    3    3    0    0  0.90242684256E+01  0.59769333823E+01 -0.12193116834E+02  0.16304393631E+02  0.51100000000E-03 0. -1.
        -11    1    3    3    0    0  0.12812579734E+02  0.15994522510E+02 -0.12393063224E+02  0.23949425173E+02  0.51100000000E-03 0.  1.
        -12    1    3    3    0    0  0.56180720685E+01 -0.83365165615E+01 -0.21249530461E+01  0.10275002073E+02  0.00000000000E+00 0.  1.
</event>
<event>
 7    1  0.5992960E-013  0.5052886E+02  0.7816164E-02  0.1300439E+00
        -11   -1    0    0    0    0  0.00000000000E+00  0.00000000000E+00  0.45593999997E+02  0.45594000000E+02  0.51100000000E-03 0.  1.
         11   -1    0    0    0    0 -0.00000000000E+00 -0.00000000000E+00 -0.45593999997E+02  0.45594000000E+02  0.51100000000E-03 0. -1.
    9900012    2    1    2    0    0 -0.33455108094E+02 -0.22462523919E+02  0.54181475176E+01  0.50528861287E+02  0.30000004367E+02 0.  0.
        -12    1    1    2    0    0  0.33455108094E+02  0.22462523919E+02 -0.54181475176E+01  0.40659138713E+02  0.00000000000E+00 0.  1.
         11    1    3    3    0    0 -0.11207891309E+02 -0.20210607395E+02 -0.53272891339E+00  0.23116428773E+02  0.51100000000E-03 0. -1.
        -11    1    3    3    0    0 -0.11345953726E+02 -0.85152367445E+01  0.30853790237E+01  0.14517557878E+02  0.51100000000E-03 0.  1.
        -12    1    3    3    0    0 -0.10901263059E+02  0.62633202208E+01  0.28654974072E+01  0.12894874635E+02  0.00000000000E+00 0.  1.
</event>
<event>
 7    1  0.5992960E-013  0.5052886E+02  0.7816164E-02  0.1300439E+00
        -11   -1    0    0    0    0  0.00000000000E+00  0.00000000000E+00  0.45593999997E+02  0.45594000000E+02  0.51100000000E-03 0. -1.
         11   -1    0    0    0    0 -0.00000000000E+00 -0.00000000000E+00 -0.45593999997E+02  0.45594000000E+02  0.51100000000E-03 0.  1.
    9900012    2    1    2    0    0 -0.11388444644E+02 -0.18673910408E+02  0.34274684690E+02  0.50528860659E+02  0.30000002459E+02 0.  0.
        -12    1    1    2    0    0  0.11388444644E+02  0.18673910408E+02 -0.34274684690E+02  0.40659139341E+02  0.00000000000E+00 0.  1.
         11    1    3    3    0    0 -0.10630398769E+02 -0.16962669341E+02  0.12689460348E+02  0.23701475341E+02  0.51100000000E-03 0. -1.
        -11    1    3    3    0    0 -0.66039389033E+01 -0.22254403612E+01  0.34692726107E+01  0.77846288639E+01  0.51100000000E-03 0.  1.
        -12    1    3    3    0    0  0.58458930286E+01  0.51419929402E+00  0.18115951732E+02  0.19042756454E+02  0.00000000000E+00 0.  1.
</event>
<event>
 7    1  0.5992960E-013  0.5052886E+02  0.7816164E-02  0.1300439E+00
        -11   -1    0    0    0    0  0.00000000000E+00  0.00000000000E+00  0.45593999997E+02  0.45594000000E+02  0.51100000000E-03 0.  1.
         11   -1    0    0    0    0 -0.00000000000E+00 -0.00000000000E+00 -0.45593999997E+02  0.45594000000E+02  0.51100000000E-03 0. -1.
    9900012    2    1    2    0    0  0.37714096713E+02 -0.15079529836E+02 -0.18493645187E+01  0.50528862527E+02  0.30000008138E+02 0.  0.
        -12    1    1    2    0    0 -0.37714096713E+02  0.15079529836E+02  0.18493645187E+01  0.40659137473E+02  0.00000000000E+00 0.  1.
         11    1    3    3    0    0  0.19189714612E+02 -0.14171333115E+02 -0.22989456431E+00  0.23856334189E+02  0.51100000000E-03 0. -1.
        -11    1    3    3    0    0  0.48380384770E+01 -0.92000333673E+01  0.10564682577E+01  0.10448126899E+02  0.51100000000E-03 0.  1.
         12    1    3    3    0    0  0.13686343623E+02  0.82918366463E+01 -0.26759382120E+01  0.16224401439E+02  0.00000000000E+00 0. -1.
</event>
<event>
 7    1  0.5992960E-013  0.5052886E+02  0.7816164E-02  0.1300439E+00
        -11   -1    0    0    0    0  0.00000000000E+00  0.00000000000E+00  0.45593999997E+02  0.45594000000E+02  0.51100000000E-03 0.  1.
         11   -1    0    0    0    0 -0.00000000000E+00 -0.00000000000E+00 -0.45593999997E+02  0.45594000000E+02  0.51100000000E-03 0. -1.
    9900012    2    1    2    0    0  0.10283435022E+02  0.88316976891E+00 -0.39327303597E+02  0.50528857941E+02  0.29999994199E+02 0.  0.
        -12    1    1    2    0    0 -0.10283435022E+02 -0.88316976891E+00  0.39327303597E+02  0.40659142059E+02  0.00000000000E+00 0.  1.
         11    1    3    3    0    0  0.22238378200E+01  0.31972685742E+01 -0.20849620301E+02  0.21210248654E+02  0.51100000000E-03 0. -1.
        -11    1    3    3    0    0 -0.64008101645E+00 -0.44789065685E+01 -0.19751963565E+02  0.20263523205E+02  0.51100000000E-03 0.  1.
        -12    1    3    3    0    0  0.86996782188E+01  0.21648077632E+01  0.12742802685E+01  0.90550860827E+01  0.00000000000E+00 0.  1.
</event>
<event>
 7    1  0.5992960E-013  0.5052888E+02  0.7816164E-02  0.1300439E+00
        -11   -1    0    0    0    0  0.00000000000E+00  0.00000000000E+00  0.45593999997E+02  0.45594000000E+02  0.51100000000E-03 0.  1.
         11   -1    0    0    0    0 -0.00000000000E+00 -0.00000000000E+00 -0.45593999997E+02  0.45594000000E+02  0.51100000000E-03 0. -1.
    9900012    2    1    2    0    0 -0.20533238262E+02 -0.35087388887E+02 -0.65235264623E+00  0.50528876837E+02  0.30000051632E+02 0.  0.
        -12    1    1    2    0    0  0.20533238262E+02  0.35087388887E+02  0.65235264623E+00  0.40659123163E+02  0.00000000000E+00 0.  1.
         11    1    3    3    0    0 -0.17673671892E+02 -0.31300999353E+02 -0.44947398005E+01  0.36225873693E+02  0.51100000000E-03 0. -1.
        -11    1    3    3    0    0 -0.62037619744E+01 -0.55957038467E+00  0.64562137828E+01  0.89712027243E+01  0.51100000000E-03 0.  1.
        -12    1    3    3    0    0  0.33441956051E+01 -0.32268191496E+01 -0.26138266285E+01  0.53318004195E+01  0.00000000000E+00 0.  1.
</event>
<event>
 7    1  0.5992960E-013  0.5052887E+02  0.7816164E-02  0.1300439E+00
        -11   -1    0    0    0    0  0.00000000000E+00  0.00000000000E+00  0.45593999997E+02  0.45594000000E+02  0.51100000000E-03 0.  1.
         11   -1    0    0    0    0 -0.00000000000E+00 -0.00000000000E+00 -0.45593999997E+02  0.45594000000E+02  0.51100000000E-03 0. -1.
    9900012    2    1    2    0    0 -0.21544789405E+02  0.79008493476E+01 -0.33564323606E+02  0.50528865848E+02  0.30000018230E+02 0.  0.
        -12    1    1    2    0    0  0.21544789405E+02 -0.79008493476E+01  0.33564323606E+02  0.40659134152E+02  0.00000000000E+00 0.  1.
         11    1    3    3    0    0  0.80417277584E-01 -0.56886829106E+01 -0.90854833632E+01  0.10719775576E+02  0.51100000000E-03 0. -1.
        -11    1    3    3    0    0  0.30284227172E+01  0.27440789825E+01 -0.55360321308E+01  0.68810584673E+01  0.51100000000E-03 0.  1.
        -12    1    3    3    0    0 -0.24653629400E+02  0.10845453276E+02 -0.18942808112E+02  0.32928031804E+02  0.00000000000E+00 0.  1.
</event>
<event>
 7    1  0.5992960E-013  0.5052887E+02  0.7816164E-02  0.1300439E+00
        -11   -1    0    0    0    0  0.00000000000E+00  0.00000000000E+00  0.45593999997E+02  0.45594000000E+02  0.51100000000E-03 0.  1.
         11   -1    0    0    0    0 -0.00000000000E+00 -0.00000000000E+00 -0.45593999997E+02  0.45594000000E+02  0.51100000000E-03 0. -1.
    9900012    2    1    2    0    0  0.14828297236E+01  0.83002321008E+01 -0.39775274652E+02  0.50528866825E+02  0.30000021202E+02 0.  0.
        -12    1    1    2    0    0 -0.14828297236E+01 -0.83002321008E+01  0.39775274652E+02  0.40659133175E+02  0.00000000000E+00 0.  1.
         11    1    3    3    0    0 -0.11634412934E+01  0.53245919057E+01 -0.14944315984E+02  0.15907151068E+02  0.51100000000E-03 0. -1.
        -11    1    3    3    0    0  0.88845030930E+01  0.10867913475E+02 -0.15299097883E+02  0.20763148480E+02  0.51100000000E-03 0.  1.
        -12    1    3    3    0    0 -0.62382320760E+01 -0.78922732799E+01 -0.95318607852E+01  0.13858567278E+02  0.00000000000E+00 0.  1.
</event>
<event>
 7    1  0.5992960E-013  0.5052887E+02  0.7816164E-02  0.1300439E+00
        -11   -1    0    0    0    0  0.00000000000E+00  0.00000000000E+00  0.45593999997E+02  0.45594000000E+02  0.51100000000E-03 0.  1.
         11   -1    0    0    0    0 -0.00000000000E+00 -0.00000000000E+00 -0.45593999997E+02  0.45594000000E+02  0.51100000000E-03 0. -1.
    9900012    2    1    2    0    0  0.22913557110E+02 -0.17425075124E+02 -0.28714118735E+02  0.50528868710E+02  0.30000026931E+02 0.  0.
        -12    1    1    2    0    0 -0.22913557110E+02  0.17425075124E+02  0.28714118735E+02  0.40659131290E+02  0.00000000000E+00 0.  1.
         11    1    3    3    0    0  0.21002275107E+01  0.22876312202E+01 -0.31516719358E+00  0.31214648512E+01  0.51100000000E-03 0. -1.
        -11    1    3    3    0    0 -0.53754862287E+01 -0.40679741182E+01 -0.19116442334E+01  0.70070428540E+01  0.51100000000E-03 0.  1.
         12    1    3    3    0    0  0.26188815828E+02 -0.15644732226E+02 -0.26487307308E+02  0.40400361005E+02  0.00000000000E+00 0. -1.
</event>
<event>
 7    1  0.5992960E-013  0.5052898E+02  0.7816164E-02  0.1300438E+00
        -11   -1    0    0    0    0  0.00000000000E+00  0.00000000000E+00  0.45593999997E+02  0.45594000000E+02  0.51100000000E-03 0.  1.
         11   -1    0    0    0    0 -0.00000000000E+00 -0.00000000000E+00 -0.45593999997E+02  0.45594000000E+02  0.51100000000E-03 0. -1.
    9900012    2    1    2    0    0  0.29498046420E+02  0.22820037889E+02 -0.16194662780E+02  0.50528979175E+02  0.30000362699E+02 0.  0.
        -12    1    1    2    0    0 -0.29498046420E+02 -0.22820037889E+02  0.16194662780E+02  0.40659020825E+02  0.00000000000E+00 0.  1.
         11    1    3    3    0    0  0.11476880614E+02  0.90548553362E+01 -0.17481248882E+01  0.14722945856E+02  0.51100000000E-03 0.  1.
        -11    1    3    3    0    0  0.65312012140E+01  0.18996167485E+02 -0.98294323160E+01  0.22363557595E+02  0.51100000000E-03 0. -1.
        -12    1    3    3    0    0  0.11489964592E+02 -0.52309849322E+01 -0.46171055758E+01  0.13442475724E+02  0.00000000000E+00 0.  1.
</event>
<event>
 7    1  0.5992960E-013  0.5052886E+02  0.7816164E-02  0.1300439E+00
        -11   -1    0    0    0    0  0.00000000000E+00  0.00000000000E+00  0.45593999997E+02  0.45594000000E+02  0.51100000000E-03 0.  1.
         11   -1    0    0    0    0 -0.00000000000E+00 -0.00000000000E+00 -0.45593999997E+02  0.45594000000E+02  0.51100000000E-03 0. -1.
    9900012    2    1    2    0    0 -0.37057226679E+02 -0.83605641422E+00 -0.16710142252E+02  0.50528857196E+02  0.29999991933E+02 0.  0.
        -12    1    1    2    0    0  0.37057226679E+02  0.83605641422E+00  0.16710142252E+02  0.40659142804E+02  0.00000000000E+00 0.  1.
         11    1    3    3    0    0  0.94168565935E+00  0.74236268009E+00 -0.18774687338E+01  0.22277260463E+01  0.51100000000E-03 0.  1.
        -11    1    3    3    0    0 -0.23664597859E+02  0.97909801085E+01 -0.15603536889E+02  0.29989112141E+02  0.51100000000E-03 0. -1.
        -12    1    3    3    0    0 -0.14334314479E+02 -0.11369399203E+02  0.77086337095E+00  0.18312019008E+02  0.00000000000E+00 0.  1.
</event>
<event>
 7    1  0.5992960E-013  0.5052883E+02  0.7816164E-02  0.1300439E+00
        -11   -1    0    0    0    0  0.00000000000E+00  0.00000000000E+00  0.45593999997E+02  0.45594000000E+02  0.51100000000E-03 0. -1.
         11   -1    0    0    0    0 -0.00000000000E+00 -0.00000000000E+00 -0.45593999997E+02  0.45594000000E+02  0.51100000000E-03 0.  1.
    9900012    2    1    2    0    0 -0.19063803506E+02  0.72248483329E+01  0.35178696726E+02  0.50528834478E+02  0.29999922881E+02 0.  0.
        -12    1    1    2    0    0  0.19063803506E+02 -0.72248483329E+01 -0.35178696726E+02  0.40659165522E+02  0.00000000000E+00 0.  1.
         11    1    3    3    0    0 -0.15564965248E+01  0.79821224222E+01  0.11479798142E+01  0.82130881956E+01  0.51100000000E-03 0. -1.
        -11    1    3    3    0    0 -0.40944407360E+01  0.44607923237E+01  0.80677809992E+00  0.61085189906E+01  0.51100000000E-03 0.  1.
         12    1    3    3    0    0 -0.13412866245E+02 -0.52180664129E+01  0.33223938812E+02  0.36207227292E+02  0.00000000000E+00 0. -1.
</event>
<event>
 7    1  0.5992960E-013  0.5052886E+02  0.7816164E-02  0.1300439E+00
        -11   -1    0    0    0    0  0.00000000000E+00  0.00000000000E+00  0.45593999997E+02  0.45594000000E+02  0.51100000000E-03 0.  1.
         11   -1    0    0    0    0 -0.00000000000E+00 -0.00000000000E+00 -0.45593999997E+02  0.45594000000E+02  0.51100000000E-03 0. -1.
    9900012    2    1    2    0    0 -0.13412194822E+02  0.19693570031E+01 -0.38332760035E+02  0.50528857992E+02  0.29999994352E+02 0.  0.
        -12    1    1    2    0    0  0.13412194822E+02 -0.19693570031E+01  0.38332760035E+02  0.40659142008E+02  0.00000000000E+00 0.  1.
         11    1    3    3    0    0  0.21288179799E+01  0.92626405805E+00 -0.36500113070E+00  0.23501185466E+01  0.51100000000E-03 0. -1.
        -11    1    3    3    0    0 -0.23206473001E+01  0.96044248330E+01 -0.38564376254E+01  0.10606719176E+02  0.51100000000E-03 0.  1.
         12    1    3    3    0    0 -0.13220365501E+02 -0.85613318879E+01 -0.34111321279E+02  0.37572020269E+02  0.00000000000E+00 0. -1.
</event>
<event>
 7    1  0.5992960E-013  0.5052886E+02  0.7816164E-02  0.1300439E+00
        -11   -1    0    0    0    0  0.00000000000E+00  0.00000000000E+00  0.45593999997E+02  0.45594000000E+02  0.51100000000E-03 0. -1.
         11   -1    0    0    0    0 -0.00000000000E+00 -0.00000000000E+00 -0.45593999997E+02  0.45594000000E+02  0.51100000000E-03 0.  1.
    9900012    2    1    2    0    0 -0.36975496521E+02 -0.12297411092E+02  0.11608282659E+02  0.50528857254E+02  0.29999992108E+02 0.  0.
        -12    1    1    2    0    0  0.36975496521E+02  0.12297411092E+02 -0.11608282659E+02  0.40659142746E+02  0.00000000000E+00 0.  1.
         11    1    3    3    0    0 -0.15360517831E+02 -0.10252473802E+02  0.13995868422E+02  0.23172031855E+02  0.51100000000E-03 0. -1.
        -11    1    3    3    0    0  0.15643847028E+01 -0.20177481861E+01  0.26031782134E+01  0.36462507200E+01  0.51100000000E-03 0.  1.
         12    1    3    3    0    0 -0.23179363393E+02 -0.27189103320E-01 -0.49907639765E+01  0.23710574679E+02  0.00000000000E+00 0. -1.
</event>
<event>
 7    1  0.5992960E-013  0.5052886E+02  0.7816164E-02  0.1300439E+00
        -11   -1    0    0    0    0  0.00000000000E+00  0.00000000000E+00  0.45593999997E+02  0.45594000000E+02  0.51100000000E-03 0.  1.
         11   -1    0    0    0    0 -0.00000000000E+00 -0.00000000000E+00 -0.45593999997E+02  0.45594000000E+02  0.51100000000E-03 0. -1.
    9900012    2    1    2    0    0  0.34262302948E+02 -0.11497034945E+01 -0.21861806464E+02  0.50528858306E+02  0.29999995307E+02 0.  0.
        -12    1    1    2    0    0 -0.34262302948E+02  0.11497034945E+01  0.21861806464E+02  0.40659141694E+02  0.00000000000E+00 0.  1.
         11    1    3    3    0    0 -0.37650509847E+00  0.20627913658E+01 -0.57905089793E+01  0.61584786115E+01  0.51100000000E-03 0. -1.
        -11    1    3    3    0    0  0.67116894610E+01 -0.39597012308E+01 -0.14412179339E+02  0.16384044763E+02  0.51100000000E-03 0.  1.
        -12    1    3    3    0    0  0.27927118586E+02  0.74720637054E+00 -0.16591181455E+01  0.27986334931E+02  0.00000000000E+00 0.  1.
</event>
<event>
 7    1  0.5992960E-013  0.5052886E+02  0.7816164E-02  0.1300439E+00
        -11   -1    0    0    0    0  0.00000000000E+00  0.00000000000E+00  0.45593999997E+02  0.45594000000E+02  0.51100000000E-03 0.  1.
         11   -1    0    0    0    0 -0.00000000000E+00 -0.00000000000E+00 -0.45593999997E+02  0.45594000000E+02  0.51100000000E-03 0. -1.
    9900012    2    1    2    0    0 -0.10133872985E+02 -0.38677201581E+02 -0.73854245284E+01  0.50528858355E+02  0.29999995457E+02 0.  0.
        -12    1    1    2    0    0  0.10133872985E+02  0.38677201581E+02  0.73854245284E+01  0.40659141645E+02  0.00000000000E+00 0.  1.
         11    1    3    3    0    0 -0.32095791644E+00 -0.10951568797E+02 -0.12786742475E+02  0.16838665520E+02  0.51100000000E-03 0. -1.
        -11    1    3    3    0    0 -0.10772159548E+02 -0.18006709140E+02 -0.24956221324E+01  0.21130762539E+02  0.51100000000E-03 0.  1.
        -12    1    3    3    0    0  0.95924448031E+00 -0.97189236434E+01  0.78969400787E+01  0.12559430296E+02  0.00000000000E+00 0.  1.
</event>
<event>
 7    1  0.5992960E-013  0.5052886E+02  0.7816164E-02  0.1300439E+00
        -11   -1    0    0    0    0  0.00000000000E+00  0.00000000000E+00  0.45593999997E+02  0.45594000000E+02  0.51100000000E-03 0. -1.
         11   -1    0    0    0    0 -0.00000000000E+00 -0.00000000000E+00 -0.45593999997E+02  0.45594000000E+02  0.51100000000E-03 0.  1.
    9900012    2    1    2    0    0  0.10633526973E+02  0.26344153034E+02 -0.29087443804E+02  0.50528859797E+02  0.29999999840E+02 0.  0.
        -12    1    1    2    0    0 -0.10633526973E+02 -0.26344153034E+02  0.29087443804E+02  0.40659140203E+02  0.00000000000E+00 0.  1.
         11    1    3    3    0    0  0.49183355171E+01 -0.25747316750E+00 -0.24915696977E+01  0.55194416846E+01  0.51100000000E-03 0. -1.
        -11    1    3    3    0    0  0.68705341608E+01  0.19055604124E+02 -0.30360504801E+02  0.36497678560E+02  0.51100000000E-03 0.  1.
         12    1    3    3    0    0 -0.11553427052E+01  0.75460220770E+01  0.37646306947E+01  0.85117395531E+01  0.00000000000E+00 0. -1.
</event>
<event>
 7    1  0.6961991E-013  0.5052886E+02  0.7816164E-02  0.1300439E+00
        -11   -1    0    0    0    0  0.00000000000E+00  0.00000000000E+00  0.45593999997E+02  0.45594000000E+02  0.51100000000E-03 0.  1.
         11   -1    0    0    0    0 -0.00000000000E+00 -0.00000000000E+00 -0.45593999997E+02  0.45594000000E+02  0.51100000000E-03 0. -1.
    9900012    2    1    2    0    0 -0.97639694038E+01  0.38036117649E+02 -0.10539654134E+02  0.50528860147E+02  0.30000000902E+02 0.  0.
        -12    1    1    2    0    0  0.97639694038E+01 -0.38036117649E+02  0.10539654134E+02  0.40659139853E+02  0.00000000000E+00 0.  1.
         11    1    3    3    0    0 -0.66510052477E+01  0.61270936708E+01  0.33221688660E+01  0.96339998906E+01  0.51100000000E-03 0. -1.
        -11    1    3    3    0    0  0.82303377701E+01  0.62654269286E+01 -0.49892919341E+01  0.11484209536E+02  0.51100000000E-03 0.  1.
         12    1    3    3    0    0 -0.11343301926E+02  0.25643597050E+02 -0.88725310660E+01  0.29410650720E+02  0.00000000000E+00 0. -1.
</event>
<event>
 7    1  0.5992960E-013  0.5052885E+02  0.7816164E-02  0.1300439E+00
        -11   -1    0    0    0    0  0.00000000000E+00  0.00000000000E+00  0.45593999997E+02  0.45594000000E+02  0.51100000000E-03 0.  1.
         11   -1    0    0    0    0 -0.00000000000E+00 -0.00000000000E+00 -0.45593999997E+02  0.45594000000E+02  0.51100000000E-03 0. -1.
    9900012    2    1    2    0    0  0.24499161575E+02 -0.87917102377E+01 -0.31235615135E+02  0.50528846791E+02  0.29999960307E+02 0.  0.
        -12    1    1    2    0    0 -0.24499161575E+02  0.87917102377E+01  0.31235615135E+02  0.40659153209E+02  0.00000000000E+00 0.  1.
         11    1    3    3    0    0  0.56166142677E+01 -0.33225239943E+01 -0.11158672402E+02  0.12926774213E+02  0.51100000000E-03 0. -1.
        -11    1    3    3    0    0  0.59205395859E+01  0.39080236854E+01 -0.20402315335E+02  0.21600460861E+02  0.51100000000E-03 0.  1.
        -12    1    3    3    0    0  0.12962007722E+02 -0.93772099287E+01  0.32537260213E+00  0.16001611717E+02  0.00000000000E+00 0.  1.
</event>
<event>
 7    1  0.5992960E-013  0.5052888E+02  0.7816164E-02  0.1300439E+00
        -11   -1    0    0    0    0  0.00000000000E+00  0.00000000000E+00  0.45593999997E+02  0.45594000000E+02  0.51100000000E-03 0.  1.
         11   -1    0    0    0    0 -0.00000000000E+00 -0.00000000000E+00 -0.45593999997E+02  0.45594000000E+02  0.51100000000E-03 0. -1.
    9900012    2    1    2    0    0 -0.23221351435E+02 -0.15637063323E+02 -0.29485846883E+02  0.50528879520E+02  0.30000059789E+02 0.  0.
        -12    1    1    2    0    0  0.23221351435E+02  0.15637063323E+02  0.29485846883E+02  0.40659120480E+02  0.00000000000E+00 0.  1.
         11    1    3    3    0    0 -0.17581615555E+02 -0.60853001778E+01 -0.12644323796E+02  0.22494955174E+02  0.51100000000E-03 0. -1.
        -11    1    3    3    0    0 -0.94130965056E+01 -0.10689978222E+02 -0.42863102727E+01  0.14874625246E+02  0.51100000000E-03 0.  1.
         12    1    3    3    0    0  0.37733606258E+01  0.11382150765E+01 -0.12555212814E+02  0.13159299099E+02  0.00000000000E+00 0. -1.
</event>
<event>
 7    1  0.5992960E-013  0.5052885E+02  0.7816164E-02  0.1300439E+00
        -11   -1    0    0    0    0  0.00000000000E+00  0.00000000000E+00  0.45593999997E+02  0.45594000000E+02  0.51100000000E-03 0.  1.
         11   -1    0    0    0    0 -0.00000000000E+00 -0.00000000000E+00 -0.45593999997E+02  0.45594000000E+02  0.51100000000E-03 0. -1.
    9900012    2    1    2    0    0 -0.19246051273E+02  0.12645509005E+02 -0.33508906644E+02  0.50528853279E+02  0.29999980027E+02 0.  0.
        -12    1    1    2    0    0  0.19246051273E+02 -0.12645509005E+02  0.33508906644E+02  0.40659146721E+02  0.00000000000E+00 0.  1.
         11    1    3    3    0    0 -0.21168144272E+02  0.75535982684E+01 -0.27449591827E+02  0.35477137293E+02  0.51100000000E-03 0. -1.
        -11    1    3    3    0    0 -0.29075139301E+01 -0.95236110505E+00 -0.66218398348E+01  0.72944768138E+01  0.51100000000E-03 0.  1.
        -12    1    3    3    0    0  0.48296069290E+01  0.60442718418E+01  0.56252501853E+00  0.77572391727E+01  0.00000000000E+00 0.  1.
</event>
<event>
 7    1  0.5992960E-013  0.5052886E+02  0.7816164E-02  0.1300439E+00
        -11   -1    0    0    0    0  0.00000000000E+00  0.00000000000E+00  0.45593999997E+02  0.45594000000E+02  0.51100000000E-03 0.  1.
         11   -1    0    0    0    0 -0.00000000000E+00 -0.00000000000E+00 -0.45593999997E+02  0.45594000000E+02  0.51100000000E-03 0. -1.
    9900012    2    1    2    0    0 -0.24831730001E+02 -0.34715095962E+01 -0.32007809228E+02  0.50528855330E+02  0.29999986262E+02 0.  0.
        -12    1    1    2    0    0  0.24831730001E+02  0.34715095962E+01  0.32007809228E+02  0.40659144670E+02  0.00000000000E+00 0.  1.
         11    1    3    3    0    0 -0.45632840942E+01  0.58317770376E+01 -0.15034976107E+02  0.16759585077E+02  0.51100000000E-03 0. -1.
        -11    1    3    3    0    0 -0.36580041106E+01  0.56867809253E+01 -0.48556042530E+01  0.83245038464E+01  0.51100000000E-03 0.  1.
        -12    1    3    3    0    0 -0.16610441796E+02 -0.14990067559E+02 -0.12117228867E+02  0.25444766407E+02  0.00000000000E+00 0.  1.
</event>
<event>
 7    1  0.5992960E-013  0.5052887E+02  0.7816164E-02  0.1300439E+00
        -11   -1    0    0    0    0  0.00000000000E+00  0.00000000000E+00  0.45593999997E+02  0.45594000000E+02  0.51100000000E-03 0.  1.
         11   -1    0    0    0    0 -0.00000000000E+00 -0.00000000000E+00 -0.45593999997E+02  0.45594000000E+02  0.51100000000E-03 0. -1.
    9900012    2    1    2    0    0 -0.89111113967E+01 -0.10096945456E+01 -0.39657755980E+02  0.50528868200E+02  0.30000025379E+02 0.  0.
        -12    1    1    2    0    0  0.89111113967E+01  0.10096945456E+01  0.39657755980E+02  0.40659131800E+02  0.00000000000E+00 0.  1.
         11    1    3    3    0    0  0.52536715141E+01 -0.78657747701E+01 -0.66088658110E+01  0.11539002759E+02  0.51100000000E-03 0. -1.
        -11    1    3    3    0    0 -0.25523520816E-01  0.60143801253E+01 -0.14125005776E+02  0.15352172751E+02  0.51100000000E-03 0.  1.
         12    1    3    3    0    0 -0.14139259390E+02  0.84170009920E+00 -0.18923884393E+02  0.23637692689E+02  0.00000000000E+00 0. -1.
</event>
<event>
 7    1  0.5992960E-013  0.5052885E+02  0.7816164E-02  0.1300439E+00
        -11   -1    0    0    0    0  0.00000000000E+00  0.00000000000E+00  0.45593999997E+02  0.45594000000E+02  0.51100000000E-03 0. -1.
         11   -1    0    0    0    0 -0.00000000000E+00 -0.00000000000E+00 -0.45593999997E+02  0.45594000000E+02  0.51100000000E-03 0.  1.
    9900012    2    1    2    0    0 -0.29602181365E+02 -0.26707735608E+02  0.79733491690E+01  0.50528848757E+02  0.29999966280E+02 0.  0.
        -12    1    1    2    0    0  0.29602181365E+02  0.26707735608E+02 -0.79733491690E+01  0.40659151243E+02  0.00000000000E+00 0.  1.
         11    1    3    3    0    0 -0.11316022583E+02 -0.13500061325E+02  0.78224295248E+00  0.17632808261E+02  0.51100000000E-03 0. -1.
        -11    1    3    3    0    0 -0.66928197648E+01 -0.11188933566E+02 -0.67260381269E+01  0.14670571219E+02  0.51100000000E-03 0.  1.
        -12    1    3    3    0    0 -0.11593339017E+02 -0.20187407165E+01  0.13917144343E+02  0.18225469276E+02  0.00000000000E+00 0.  1.
</event>
<event>
 7    1  0.5992960E-013  0.5052886E+02  0.7816164E-02  0.1300439E+00
        -11   -1    0    0    0    0  0.00000000000E+00  0.00000000000E+00  0.45593999997E+02  0.45594000000E+02  0.51100000000E-03 0.  1.
         11   -1    0    0    0    0 -0.00000000000E+00 -0.00000000000E+00 -0.45593999997E+02  0.45594000000E+02  0.51100000000E-03 0. -1.
    9900012    2    1    2    0    0 -0.13449422812E+02 -0.17429789395E+02 -0.34183050808E+02  0.50528862099E+02  0.30000006835E+02 0.  0.
        -12    1    1    2    0    0  0.13449422812E+02  0.17429789395E+02  0.34183050808E+02  0.40659137901E+02  0.00000000000E+00 0.  1.
         11    1    3    3    0    0  0.51327239618E+01 -0.57138482461E+01 -0.34233789915E+01  0.84090689751E+01  0.51100000000E-03 0. -1.
        -11    1    3    3    0    0 -0.19239311180E+01 -0.37756515788E+01  0.18711166673E+01  0.46322924816E+01  0.51100000000E-03 0.  1.
         12    1    3    3    0    0 -0.16658215656E+02 -0.79402895700E+01 -0.32630788484E+02  0.37487500642E+02  0.00000000000E+00 0. -1.
</event>
<event>
 7    1  0.5992960E-013  0.5052885E+02  0.7816164E-02  0.1300439E+00
        -11   -1    0    0    0    0  0.00000000000E+00  0.00000000000E+00  0.45593999997E+02  0.45594000000E+02  0.51100000000E-03 0.  1.
         11   -1    0    0    0    0 -0.00000000000E+00 -0.00000000000E+00 -0.45593999997E+02  0.45594000000E+02  0.51100000000E-03 0. -1.
    9900012    2    1    2    0    0 -0.29175719315E+02 -0.23904443984E+02  0.15182940647E+02  0.50528846954E+02  0.29999960801E+02 0.  0.
        -12    1    1    2    0    0  0.29175719315E+02  0.23904443984E+02 -0.15182940647E+02  0.40659153046E+02  0.00000000000E+00 0.  1.
         11    1    3    3    0    0 -0.20166661280E+02 -0.91570034652E+01 -0.33355581814E+01  0.22398010811E+02  0.51100000000E-03 0. -1.
        -11    1    3    3    0    0 -0.56119726545E+01 -0.29060348806E+01  0.54826333193E+00  0.63434902652E+01  0.51100000000E-03 0.  1.
        -12    1    3    3    0    0 -0.33970853802E+01 -0.11841405638E+02  0.17970235497E+02  0.21787345877E+02  0.00000000000E+00 0.  1.
</event>
<event>
 7    1  0.5992960E-013  0.5052886E+02  0.7816164E-02  0.1300439E+00
        -11   -1    0    0    0    0  0.00000000000E+00  0.00000000000E+00  0.45593999997E+02  0.45594000000E+02  0.51100000000E-03 0. -1.
         11   -1    0    0    0    0 -0.00000000000E+00 -0.00000000000E+00 -0.45593999997E+02  0.45594000000E+02  0.51100000000E-03 0.  1.
    9900012    2    1    2    0    0  0.17042726955E+01 -0.18252011556E+02  0.36292218797E+02  0.50528860603E+02  0.30000002289E+02 0.  0.
        -12    1    1    2    0    0 -0.17042726955E+01  0.18252011556E+02 -0.36292218797E+02  0.40659139397E+02  0.00000000000E+00 0.  1.
         11    1    3    3    0    0  0.93498889889E+01 -0.13348809541E+02  0.16225721297E+02  0.22997503607E+02  0.51100000000E-03 0. -1.
        -11    1    3    3    0    0 -0.71493810396E+01 -0.10349068485E+02  0.99754582771E+01  0.16053866695E+02  0.51100000000E-03 0.  1.
         12    1    3    3    0    0 -0.49623525378E+00  0.54458664692E+01  0.10091039223E+02  0.11477490302E+02  0.00000000000E+00 0. -1.
</event>
<event>
 7    1  0.5992960E-013  0.5052886E+02  0.7816164E-02  0.1300439E+00
        -11   -1    0    0    0    0  0.00000000000E+00  0.00000000000E+00  0.45593999997E+02  0.45594000000E+02  0.51100000000E-03 0.  1.
         11   -1    0    0    0    0 -0.00000000000E+00 -0.00000000000E+00 -0.45593999997E+02  0.45594000000E+02  0.51100000000E-03 0. -1.
    9900012    2    1    2    0    0 -0.23783703289E+02  0.13060207331E+02 -0.30280888786E+02  0.50528858552E+02  0.29999996054E+02 0.  0.
        -12    1    1    2    0    0  0.23783703289E+02 -0.13060207331E+02  0.30280888786E+02  0.40659141448E+02  0.00000000000E+00 0.  1.
         11    1    3    3    0    0 -0.11565089482E+02  0.12160513670E+02 -0.21116057643E+02  0.26972528211E+02  0.51100000000E-03 0. -1.
        -11    1    3    3    0    0 -0.15033607843E+02  0.42019512685E+01 -0.28090260582E+01  0.15860529213E+02  0.51100000000E-03 0.  1.
         12    1    3    3    0    0  0.28149940367E+01 -0.33022576077E+01 -0.63558050845E+01  0.76958011283E+01  0.00000000000E+00 0. -1.
</event>
<event>
 7    1  0.5992960E-013  0.5052887E+02  0.7816164E-02  0.1300439E+00
        -11   -1    0    0    0    0  0.00000000000E+00  0.00000000000E+00  0.45593999997E+02  0.45594000000E+02  0.51100000000E-03 0.  1.
         11   -1    0    0    0    0 -0.00000000000E+00 -0.00000000000E+00 -0.45593999997E+02  0.45594000000E+02  0.51100000000E-03 0. -1.
    9900012    2    1    2    0    0 -0.48653388435E+01 -0.39217608134E+02 -0.95641369943E+01  0.50528867862E+02  0.30000024352E+02 0.  0.
        -12    1    1    2    0    0  0.48653388435E+01  0.39217608134E+02  0.95641369943E+01  0.40659132138E+02  0.00000000000E+00 0.  1.
         11    1    3    3    0    0 -0.76007936313E+01 -0.25353660732E+02 -0.12840653801E+02  0.29418745158E+02  0.51100000000E-03 0. -1.
        -11    1    3    3    0    0 -0.52725096254E+01 -0.58688995246E+01  0.54481455564E+01  0.95877854401E+01  0.51100000000E-03 0.  1.
        -12    1    3    3    0    0  0.80079644132E+01 -0.79950478771E+01 -0.21716287496E+01  0.11522337264E+02  0.00000000000E+00 0.  1.
</event>
<event>
 7    1  0.5992960E-013  0.5052886E+02  0.7816164E-02  0.1300439E+00
        -11   -1    0    0    0    0  0.00000000000E+00  0.00000000000E+00  0.45593999997E+02  0.45594000000E+02  0.51100000000E-03 0. -1.
         11   -1    0    0    0    0 -0.00000000000E+00 -0.00000000000E+00 -0.45593999997E+02  0.45594000000E+02  0.51100000000E-03 0.  1.
    9900012    2    1    2    0    0 -0.18227541892E+02  0.10730794206E+02 -0.34724230804E+02  0.50528862864E+02  0.30000009161E+02 0.  0.
        -12    1    1    2    0    0  0.18227541892E+02 -0.10730794206E+02  0.34724230804E+02  0.40659137136E+02  0.00000000000E+00 0.  1.
         11    1    3    3    0    0 -0.40127154122E+01  0.12117990468E+02 -0.79218040459E+01  0.15023400333E+02  0.51100000000E-03 0.  1.
        -11    1    3    3    0    0  0.39416473688E+01  0.13972139167E+01 -0.19836351995E+01  0.46285634461E+01  0.51100000000E-03 0. -1.
        -12    1    3    3    0    0 -0.18156473849E+02 -0.27844101786E+01 -0.24818791559E+02  0.30876899085E+02  0.00000000000E+00 0.  1.
</event>
<event>
 7    1  0.5992960E-013  0.5052886E+02  0.7816164E-02  0.1300439E+00
        -11   -1    0    0    0    0  0.00000000000E+00  0.00000000000E+00  0.45593999997E+02  0.45594000000E+02  0.51100000000E-03 0.  1.
         11   -1    0    0    0    0 -0.00000000000E+00 -0.00000000000E+00 -0.45593999997E+02  0.45594000000E+02  0.51100000000E-03 0. -1.
    9900012    2    1    2    0    0  0.36036740138E+02 -0.26427563612E+01 -0.18642278922E+02  0.50528863703E+02  0.30000011712E+02 0.  0.
        -12    1    1    2    0    0 -0.36036740138E+02  0.26427563612E+01  0.18642278922E+02  0.40659136297E+02  0.00000000000E+00 0.  1.
         11    1    3    3    0    0  0.28021741954E+02  0.26880840723E+01 -0.35804097340E+01  0.28377158988E+02  0.51100000000E-03 0. -1.
        -11    1    3    3    0    0  0.10815413611E+02 -0.25576413509E+01 -0.14344017370E+02  0.18145675392E+02  0.51100000000E-03 0.  1.
        -12    1    3    3    0    0 -0.28004154258E+01 -0.27731990826E+01 -0.71785181833E+00  0.40060293237E+01  0.00000000000E+00 0.  1.
</event>
<event>
 7    1  0.6288856E-013  0.5052896E+02  0.7816164E-02  0.1300438E+00
        -11   -1    0    0    0    0  0.00000000000E+00  0.00000000000E+00  0.45593999997E+02  0.45594000000E+02  0.51100000000E-03 0. -1.
         11   -1    0    0    0    0 -0.00000000000E+00 -0.00000000000E+00 -0.45593999997E+02  0.45594000000E+02  0.51100000000E-03 0.  1.
    9900012    2    1    2    0    0 -0.15956765715E+02 -0.26234684267E+02  0.26651090801E+02  0.50528958305E+02  0.30000299263E+02 0.  0.
        -12    1    1    2    0    0  0.15956765715E+02  0.26234684267E+02 -0.26651090801E+02  0.40659041695E+02  0.00000000000E+00 0.  1.
         11    1    3    3    0    0 -0.10011379805E+02 -0.59914126667E+01 -0.24369650532E+01  0.11919041499E+02  0.51100000000E-03 0. -1.
        -11    1    3    3    0    0  0.47720319355E+00  0.18571236870E+01  0.64751764925E+00  0.20238356267E+01  0.51100000000E-03 0.  1.
         12    1    3    3    0    0 -0.64225891042E+01 -0.22100395287E+02  0.28440538205E+02  0.36586081179E+02  0.00000000000E+00 0. -1.
</event>
<event>
 7    1  0.5992960E-013  0.5052886E+02  0.7816164E-02  0.1300439E+00
        -11   -1    0    0    0    0  0.00000000000E+00  0.00000000000E+00  0.45593999997E+02  0.45594000000E+02  0.51100000000E-03 0.  1.
         11   -1    0    0    0    0 -0.00000000000E+00 -0.00000000000E+00 -0.45593999997E+02  0.45594000000E+02  0.51100000000E-03 0. -1.
    9900012    2    1    2    0    0  0.85569218861E+01  0.30120444041E+02 -0.25936525395E+02  0.50528863131E+02  0.30000009974E+02 0.  0.
        -12    1    1    2    0    0 -0.85569218861E+01 -0.30120444041E+02  0.25936525395E+02  0.40659136869E+02  0.00000000000E+00 0.  1.
         11    1    3    3    0    0  0.41922303398E+01  0.13601145556E+02 -0.12221491150E+02  0.18759818812E+02  0.51100000000E-03 0. -1.
        -11    1    3    3    0    0 -0.53145130572E+01  0.12651365211E+02 -0.16020170963E+02  0.21093766110E+02  0.51100000000E-03 0.  1.
         12    1    3    3    0    0  0.96792046035E+01  0.38679332736E+01  0.23051367185E+01  0.10675278210E+02  0.00000000000E+00 0. -1.
</event>
<event>
 7    1  0.7321335E-013  0.5052886E+02  0.7816164E-02  0.1300439E+00
        -11   -1    0    0    0    0  0.00000000000E+00  0.00000000000E+00  0.45593999997E+02  0.45594000000E+02  0.51100000000E-03 0. -1.
         11   -1    0    0    0    0 -0.00000000000E+00 -0.00000000000E+00 -0.45593999997E+02  0.45594000000E+02  0.51100000000E-03 0.  1.
    9900012    2    1    2    0    0  0.97632156189E+00 -0.38434743184E+02  0.13228106991E+02  0.50528862011E+02  0.30000006570E+02 0.  0.
        -12    1    1    2    0    0 -0.97632156189E+00  0.38434743184E+02 -0.13228106991E+02  0.40659137989E+02  0.00000000000E+00 0.  1.
         11    1    3    3    0    0  0.32658499111E+01  0.16002718268E+01  0.64339287031E+00  0.36933183194E+01  0.51100000000E-03 0. -1.
        -11    1    3    3    0    0  0.80195283265E+01 -0.10172403721E+02  0.35270759134E+00  0.12958203385E+02  0.51100000000E-03 0.  1.
         12    1    3    3    0    0 -0.10309056676E+02 -0.29862611290E+02  0.12232006529E+02  0.33877340307E+02  0.00000000000E+00 0. -1.
</event>
<event>
 7    1  0.5992960E-013  0.5052886E+02  0.7816164E-02  0.1300439E+00
        -11   -1    0    0    0    0  0.00000000000E+00  0.00000000000E+00  0.45593999997E+02  0.45594000000E+02  0.51100000000E-03 0.  1.
         11   -1    0    0    0    0 -0.00000000000E+00 -0.00000000000E+00 -0.45593999997E+02  0.45594000000E+02  0.51100000000E-03 0. -1.
    9900012    2    1    2    0    0  0.26135260543E+02 -0.29760281914E+02  0.91890964802E+01  0.50528859363E+02  0.29999998519E+02 0.  0.
        -12    1    1    2    0    0 -0.26135260543E+02  0.29760281914E+02 -0.91890964802E+01  0.40659140637E+02  0.00000000000E+00 0.  1.
         11    1    3    3    0    0  0.28777242159E+02 -0.11878515189E+02  0.40209648861E+01  0.31391032927E+02  0.51100000000E-03 0. -1.
        -11    1    3    3    0    0  0.73523360837E+00 -0.48022955081E+01  0.20567880258E+01  0.52756978543E+01  0.51100000000E-03 0.  1.
         12    1    3    3    0    0 -0.33772152246E+01 -0.13079471217E+02  0.31113435683E+01  0.13862128581E+02  0.00000000000E+00 0. -1.
</event>
<event>
 7    1  0.5992960E-013  0.5052886E+02  0.7816164E-02  0.1300439E+00
        -11   -1    0    0    0    0  0.00000000000E+00  0.00000000000E+00  0.45593999997E+02  0.45594000000E+02  0.51100000000E-03 0.  1.
         11   -1    0    0    0    0 -0.00000000000E+00 -0.00000000000E+00 -0.45593999997E+02  0.45594000000E+02  0.51100000000E-03 0. -1.
    9900012    2    1    2    0    0 -0.17664569031E+02  0.13574070708E+01 -0.36596259619E+02  0.50528858702E+02  0.29999996511E+02 0.  0.
        -12    1    1    2    0    0  0.17664569031E+02 -0.13574070708E+01  0.36596259619E+02  0.40659141298E+02  0.00000000000E+00 0.  1.
         11    1    3    3    0    0 -0.16145287915E+02 -0.20501345906E+01 -0.18168605574E+02  0.24392039736E+02  0.51100000000E-03 0. -1.
        -11    1    3    3    0    0 -0.73309447268E+01 -0.28200337056E+01 -0.15044387875E+02  0.16971415600E+02  0.51100000000E-03 0.  1.
        -12    1    3    3    0    0  0.58116636113E+01  0.62275753670E+01 -0.33832661702E+01  0.91654033660E+01  0.00000000000E+00 0.  1.
</event>
<event>
 7    1  0.5992960E-013  0.5052887E+02  0.7816164E-02  0.1300439E+00
        -11   -1    0    0    0    0  0.00000000000E+00  0.00000000000E+00  0.45593999997E+02  0.45594000000E+02  0.51100000000E-03 0.  1.
         11   -1    0    0    0    0 -0.00000000000E+00 -0.00000000000E+00 -0.45593999997E+02  0.45594000000E+02  0.51100000000E-03 0. -1.
    9900012    2    1    2    0    0  0.28710516866E+01  0.40533140015E+02 -0.14094984927E+01  0.50528867406E+02  0.30000022968E+02 0.  0.
        -12    1    1    2    0    0 -0.28710516866E+01 -0.40533140015E+02  0.14094984927E+01  0.40659132594E+02  0.00000000000E+00 0.  1.
         11    1    3    3    0    0 -0.25810205956E+01  0.22690681797E+01 -0.36192649628E+01  0.49909334648E+01  0.51100000000E-03 0. -1.
        -11    1    3    3    0    0 -0.95566408064E+01  0.14001596393E+02  0.10649700452E+01  0.16985530505E+02  0.51100000000E-03 0.  1.
         12    1    3    3    0    0  0.15008713089E+02  0.24262475442E+02  0.11447964249E+01  0.28552403437E+02  0.00000000000E+00 0. -1.
</event>
<event>
 7    1  0.5992960E-013  0.5052886E+02  0.7816164E-02  0.1300439E+00
        -11   -1    0    0    0    0  0.00000000000E+00  0.00000000000E+00  0.45593999997E+02  0.45594000000E+02  0.51100000000E-03 0.  1.
         11   -1    0    0    0    0 -0.00000000000E+00 -0.00000000000E+00 -0.45593999997E+02  0.45594000000E+02  0.51100000000E-03 0. -1.
    9900012    2    1    2    0    0 -0.11897625726E+02  0.34556880313E+02 -0.17816688020E+02  0.50528857770E+02  0.29999993678E+02 0.  0.
        -12    1    1    2    0    0  0.11897625726E+02 -0.34556880313E+02  0.17816688020E+02  0.40659142230E+02  0.00000000000E+00 0.  1.
         11    1    3    3    0    0 -0.28846034591E+01  0.82030766229E+01 -0.11079854935E+02  0.14084551425E+02  0.51100000000E-03 0. -1.
        -11    1    3    3    0    0 -0.25018992138E+01  0.26046334577E+02 -0.11285027289E+02  0.28496015261E+02  0.51100000000E-03 0.  1.
         12    1    3    3    0    0 -0.65111230527E+01  0.30746911287E+00  0.45481942030E+01  0.79482910850E+01  0.00000000000E+00 0. -1.
</event>
<event>
 7    1  0.5992960E-013  0.5052886E+02  0.7816164E-02  0.1300439E+00
        -11   -1    0    0    0    0  0.00000000000E+00  0.00000000000E+00  0.45593999997E+02  0.45594000000E+02  0.51100000000E-03 0.  1.
         11   -1    0    0    0    0 -0.00000000000E+00 -0.00000000000E+00 -0.45593999997E+02  0.45594000000E+02  0.51100000000E-03 0. -1.
    9900012    2    1    2    0    0 -0.28174324479E+02  0.65680780234E+01 -0.28569798205E+02  0.50528861074E+02  0.30000003721E+02 0.  0.
        -12    1    1    2    0    0  0.28174324479E+02 -0.65680780234E+01  0.28569798205E+02  0.40659138926E+02  0.00000000000E+00 0.  1.
         11    1    3    3    0    0 -0.14659206156E+02  0.23873880379E+01 -0.10083142973E+02  0.17951649486E+02  0.51100000000E-03 0. -1.
        -11    1    3    3    0    0 -0.19659574334E+02  0.52311154869E+01 -0.12186729443E+02  0.23714548425E+02  0.51100000000E-03 0.  1.
        -12    1    3    3    0    0  0.61444560113E+01 -0.10504255014E+01 -0.62999257887E+01  0.88626631636E+01  0.00000000000E+00 0.  1.
</event>
<event>
 7    1  0.5992960E-013  0.5052887E+02  0.7816164E-02  0.1300439E+00
        -11   -1    0    0    0    0  0.00000000000E+00  0.00000000000E+00  0.45593999997E+02  0.45594000000E+02  0.51100000000E-03 0. -1.
         11   -1    0    0    0    0 -0.00000000000E+00 -0.00000000000E+00 -0.45593999997E+02  0.45594000000E+02  0.51100000000E-03 0.  1.
    9900012    2    1    2    0    0 -0.19556001363E+02  0.20287798621E+02  0.29310975283E+02  0.50528865304E+02  0.30000016577E+02 0.  0.
        -12    1    1    2    0    0  0.19556001363E+02 -0.20287798621E+02 -0.29310975283E+02  0.40659134696E+02  0.00000000000E+00 0.  1.
         11    1    3    3    0    0 -0.82896297319E+01  0.11901117848E+02  0.15967609696E+01  0.14591237541E+02  0.51100000000E-03 0. -1.
        -11    1    3    3    0    0 -0.56969516565E+01  0.77873884060E-01 -0.76894159895E+00  0.57491385409E+01  0.51100000000E-03 0.  1.
         12    1    3    3    0    0 -0.55694199747E+01  0.83088068891E+01  0.28483155913E+02  0.30188489222E+02  0.00000000000E+00 0. -1.
</event>
<event>
 7    1  0.5992960E-013  0.5052888E+02  0.7816164E-02  0.1300439E+00
        -11   -1    0    0    0    0  0.00000000000E+00  0.00000000000E+00  0.45593999997E+02  0.45594000000E+02  0.51100000000E-03 0.  1.
         11   -1    0    0    0    0 -0.00000000000E+00 -0.00000000000E+00 -0.45593999997E+02  0.45594000000E+02  0.51100000000E-03 0. -1.
    9900012    2    1    2    0    0 -0.22201638775E+02  0.30639151134E+02 -0.14882668275E+02  0.50528878496E+02  0.30000056677E+02 0.  0.
        -12    1    1    2    0    0  0.22201638775E+02 -0.30639151134E+02  0.14882668275E+02  0.40659121504E+02  0.00000000000E+00 0.  1.
         11    1    3    3    0    0  0.20054426597E+01  0.86091247800E+01 -0.60408230729E+01  0.10706557495E+02  0.51100000000E-03 0.  1.
        -11    1    3    3    0    0 -0.13103305129E+02  0.24149227861E+02 -0.53504749525E+01  0.27991237809E+02  0.51100000000E-03 0. -1.
         12    1    3    3    0    0 -0.11103776306E+02 -0.21192015074E+01 -0.34913702494E+01  0.11831083192E+02  0.00000000000E+00 0. -1.
</event>
<event>
 7    1  0.5992960E-013  0.5052887E+02  0.7816164E-02  0.1300439E+00
        -11   -1    0    0    0    0  0.00000000000E+00  0.00000000000E+00  0.45593999997E+02  0.45594000000E+02  0.51100000000E-03 0.  1.
         11   -1    0    0    0    0 -0.00000000000E+00 -0.00000000000E+00 -0.45593999997E+02  0.45594000000E+02  0.51100000000E-03 0. -1.
    9900012    2    1    2    0    0  0.22727892686E+02  0.12616867284E+02 -0.31263761923E+02  0.50528865041E+02  0.30000015779E+02 0.  0.
        -12    1    1    2    0    0 -0.22727892686E+02 -0.12616867284E+02  0.31263761923E+02  0.40659134959E+02  0.00000000000E+00 0.  1.
         11    1    3    3    0    0 -0.16787546467E+01  0.39448326849E+01 -0.10483726897E+02  0.11326449222E+02  0.51100000000E-03 0.  1.
        -11    1    3    3    0    0  0.24146059564E+02  0.12165115411E+02 -0.22614590474E+02  0.35248289717E+02  0.51100000000E-03 0. -1.
         12    1    3    3    0    0  0.26058776887E+00 -0.34930808118E+01  0.18345554471E+01  0.39541261021E+01  0.00000000000E+00 0. -1.
</event>
<event>
 7    1  0.5992960E-013  0.5052876E+02  0.7816164E-02  0.1300439E+00
        -11   -1    0    0    0    0  0.00000000000E+00  0.00000000000E+00  0.45593999997E+02  0.45594000000E+02  0.51100000000E-03 0. -1.
         11   -1    0    0    0    0 -0.00000000000E+00 -0.00000000000E+00 -0.45593999997E+02  0.45594000000E+02  0.51100000000E-03 0.  1.
    9900012    2    1    2    0    0 -0.12117330509E+02 -0.36719951432E+02  0.12569365244E+02  0.50528763971E+02  0.29999708564E+02 0.  0.
        -12    1    1    2    0    0  0.12117330509E+02  0.36719951432E+02 -0.12569365244E+02  0.40659236029E+02  0.00000000000E+00 0.  1.
         11    1    3    3    0    0 -0.82373040559E+01 -0.14952470351E+02  0.76426553243E+01  0.18704003004E+02  0.51100000000E-03 0. -1.
        -11    1    3    3    0    0 -0.11436071990E+02 -0.18825747760E+02  0.75774409139E+01  0.23293993482E+02  0.51100000000E-03 0.  1.
         12    1    3    3    0    0  0.75560455363E+01 -0.29417333212E+01 -0.26507309941E+01  0.85307674850E+01  0.00000000000E+00 0. -1.
</event>
<event>
 7    1  0.5992960E-013  0.5052898E+02  0.7816164E-02  0.1300438E+00
        -11   -1    0    0    0    0  0.00000000000E+00  0.00000000000E+00  0.45593999997E+02  0.45594000000E+02  0.51100000000E-03 0. -1.
         11   -1    0    0    0    0 -0.00000000000E+00 -0.00000000000E+00 -0.45593999997E+02  0.45594000000E+02  0.51100000000E-03 0.  1.
    9900012    2    1    2    0    0 -0.38104008955E+02 -0.36122368265E+01  0.13718311537E+02  0.50528981016E+02  0.30000368294E+02 0.  0.
        -12    1    1    2    0    0  0.38104008955E+02  0.36122368265E+01 -0.13718311537E+02  0.40659018984E+02  0.00000000000E+00 0.  1.
         11    1    3    3    0    0 -0.15056880639E+02 -0.52952764989E+01  0.58992534208E+01  0.17016192258E+02  0.51100000000E-03 0. -1.
        -11    1    3    3    0    0  0.26077433841E+01 -0.53778997631E+00  0.72851066375E+01  0.77564374939E+01  0.51100000000E-03 0.  1.
         12    1    3    3    0    0 -0.25654871699E+02  0.22208296487E+01  0.53395147911E+00  0.25756351264E+02  0.00000000000E+00 0. -1.
</event>
<event>
 7    1  0.5992960E-013  0.5052886E+02  0.7816164E-02  0.1300439E+00
        -11   -1    0    0    0    0  0.00000000000E+00  0.00000000000E+00  0.45593999997E+02  0.45594000000E+02  0.51100000000E-03 0.  1.
         11   -1    0    0    0    0 -0.00000000000E+00 -0.00000000000E+00 -0.45593999997E+02  0.45594000000E+02  0.51100000000E-03 0. -1.
    9900012    2    1    2    0    0  0.33464780836E+02  0.22745053481E+02 -0.39920956242E+01  0.50528857833E+02  0.29999993870E+02 0.  0.
        -12    1    1    2    0    0 -0.33464780836E+02 -0.22745053481E+02  0.39920956242E+01  0.40659142167E+02  0.00000000000E+00 0.  1.
         11    1    3    3    0    0  0.30009529354E+02  0.21219978105E+02  0.37587674885E+01  0.36945739350E+02  0.51100000000E-03 0. -1.
        -11    1    3    3    0    0  0.68544429242E+01 -0.65379503190E+00 -0.61751707328E+01  0.92489766777E+01  0.51100000000E-03 0.  1.
        -12    1    3    3    0    0 -0.33991914419E+01  0.21788704084E+01 -0.15756923799E+01  0.43341418057E+01  0.00000000000E+00 0.  1.
</event>
<event>
 7    1  0.5992960E-013  0.5052887E+02  0.7816164E-02  0.1300439E+00
        -11   -1    0    0    0    0  0.00000000000E+00  0.00000000000E+00  0.45593999997E+02  0.45594000000E+02  0.51100000000E-03 0. -1.
         11   -1    0    0    0    0 -0.00000000000E+00 -0.00000000000E+00 -0.45593999997E+02  0.45594000000E+02  0.51100000000E-03 0.  1.
    9900012    2    1    2    0    0  0.68877215993E+01 -0.39708686361E+02  0.53800141987E+01  0.50528867765E+02  0.30000024059E+02 0.  0.
        -12    1    1    2    0    0 -0.68877215993E+01  0.39708686361E+02 -0.53800141987E+01  0.40659132235E+02  0.00000000000E+00 0.  1.
         11    1    3    3    0    0  0.81399227124E+01 -0.15055758679E+02  0.37068262312E+01  0.17512132141E+02  0.51100000000E-03 0. -1.
        -11    1    3    3    0    0  0.86652976350E+01 -0.19063239370E+02 -0.20469225497E+01  0.21040065840E+02  0.51100000000E-03 0.  1.
        -12    1    3    3    0    0 -0.99174987481E+01 -0.55896883116E+01  0.37201105172E+01  0.11976669783E+02  0.00000000000E+00 0.  1.
</event>
<event>
 7    1  0.5992960E-013  0.5052886E+02  0.7816164E-02  0.1300439E+00
        -11   -1    0    0    0    0  0.00000000000E+00  0.00000000000E+00  0.45593999997E+02  0.45594000000E+02  0.51100000000E-03 0. -1.
         11   -1    0    0    0    0 -0.00000000000E+00 -0.00000000000E+00 -0.45593999997E+02  0.45594000000E+02  0.51100000000E-03 0.  1.
    9900012    2    1    2    0    0 -0.35386447589E+02  0.11230954286E+02 -0.16578007068E+02  0.50528864182E+02  0.30000013168E+02 0.  0.
        -12    1    1    2    0    0  0.35386447589E+02 -0.11230954286E+02  0.16578007068E+02  0.40659135818E+02  0.00000000000E+00 0.  1.
         11    1    3    3    0    0 -0.17515865665E+02 -0.62427010416E+01 -0.42359412732E+01  0.19071446327E+02  0.51100000000E-03 0.  1.
        -11    1    3    3    0    0 -0.50719871207E+01  0.12162842482E+01  0.27034063421E+01  0.58747601514E+01  0.51100000000E-03 0. -1.
        -12    1    3    3    0    0 -0.12798594803E+02  0.16257371079E+02 -0.15045472137E+02  0.25582657703E+02  0.00000000000E+00 0.  1.
</event>
<event>
 7    1  0.5992960E-013  0.5052885E+02  0.7816164E-02  0.1300439E+00
        -11   -1    0    0    0    0  0.00000000000E+00  0.00000000000E+00  0.45593999997E+02  0.45594000000E+02  0.51100000000E-03 0.  1.
         11   -1    0    0    0    0 -0.00000000000E+00 -0.00000000000E+00 -0.45593999997E+02  0.45594000000E+02  0.51100000000E-03 0. -1.
    9900012    2    1    2    0    0  0.86260672793E+01 -0.21270082936E+02  0.33560999248E+02  0.50528854223E+02  0.29999982896E+02 0.  0.
        -12    1    1    2    0    0 -0.86260672793E+01  0.21270082936E+02 -0.33560999248E+02  0.40659145777E+02  0.00000000000E+00 0.  1.
         11    1    3    3    0    0 -0.18271623823E+01 -0.35749686629E+01  0.43522139957E+01  0.59212068227E+01  0.51100000000E-03 0. -1.
        -11    1    3    3    0    0  0.47876274964E+01 -0.23595160555E+02  0.26915801230E+02  0.36112509394E+02  0.51100000000E-03 0.  1.
        -12    1    3    3    0    0  0.56656021652E+01  0.59000462814E+01  0.22929840222E+01  0.84951380062E+01  0.00000000000E+00 0.  1.
</event>
<event>
 7    1  0.5992960E-013  0.5052898E+02  0.7816164E-02  0.1300438E+00
        -11   -1    0    0    0    0  0.00000000000E+00  0.00000000000E+00  0.45593999997E+02  0.45594000000E+02  0.51100000000E-03 0.  1.
         11   -1    0    0    0    0 -0.00000000000E+00 -0.00000000000E+00 -0.45593999997E+02  0.45594000000E+02  0.51100000000E-03 0. -1.
    9900012    2    1    2    0    0  0.37962783984E+02  0.26758711358E+01 -0.14311628124E+02  0.50528979430E+02  0.30000363473E+02 0.  0.
        -12    1    1    2    0    0 -0.37962783984E+02 -0.26758711358E+01  0.14311628124E+02  0.40659020570E+02  0.00000000000E+00 0.  1.
         11    1    3    3    0    0  0.58720750253E+01  0.11863605031E+01 -0.14270214600E+02  0.15476683797E+02  0.51100000000E-03 0. -1.
        -11    1    3    3    0    0  0.47213885369E+01  0.49618381911E+01 -0.26424552445E+01  0.73412477094E+01  0.51100000000E-03 0.  1.
        -12    1    3    3    0    0  0.27369320422E+02 -0.34723275584E+01  0.26010417202E+01  0.27711047924E+02  0.00000000000E+00 0.  1.
</event>
<event>
 7    1  0.5992960E-013  0.5052887E+02  0.7816164E-02  0.1300439E+00
        -11   -1    0    0    0    0  0.00000000000E+00  0.00000000000E+00  0.45593999997E+02  0.45594000000E+02  0.51100000000E-03 0.  1.
         11   -1    0    0    0    0 -0.00000000000E+00 -0.00000000000E+00 -0.45593999997E+02  0.45594000000E+02  0.51100000000E-03 0. -1.
    9900012    2    1    2    0    0 -0.48069934893E+01 -0.23061949059E+02 -0.33139165226E+02  0.50528868766E+02  0.30000027100E+02 0.  0.
        -12    1    1    2    0    0  0.48069934893E+01  0.23061949059E+02  0.33139165226E+02  0.40659131234E+02  0.00000000000E+00 0.  1.
         11    1    3    3    0    0  0.10630050140E+01 -0.37239866023E+00  0.10884183390E+01  0.15663062165E+01  0.51100000000E-03 0. -1.
        -11    1    3    3    0    0  0.88480284623E+01 -0.12773269252E+02 -0.85105855144E+01  0.17716491783E+02  0.51100000000E-03 0.  1.
         12    1    3    3    0    0 -0.14718026966E+02 -0.99162811476E+01 -0.25716998051E+02  0.31246070766E+02  0.00000000000E+00 0. -1.
</event>
<event>
 7    1  0.5992960E-013  0.5052886E+02  0.7816164E-02  0.1300439E+00
        -11   -1    0    0    0    0  0.00000000000E+00  0.00000000000E+00  0.45593999997E+02  0.45594000000E+02  0.51100000000E-03 0. -1.
         11   -1    0    0    0    0 -0.00000000000E+00 -0.00000000000E+00 -0.45593999997E+02  0.45594000000E+02  0.51100000000E-03 0.  1.
    9900012    2    1    2    0    0 -0.35946043910E+02  0.11210168749E+02  0.15342098635E+02  0.50528856543E+02  0.29999989947E+02 0.  0.
        -12    1    1    2    0    0  0.35946043910E+02 -0.11210168749E+02 -0.15342098635E+02  0.40659143457E+02  0.00000000000E+00 0.  1.
         11    1    3    3    0    0 -0.30831898098E+01 -0.34426376216E+01 -0.29430284325E+01  0.54789807275E+01  0.51100000000E-03 0. -1.
        -11    1    3    3    0    0 -0.69148093647E+01  0.11540317826E+01 -0.41862014147E+01  0.81652103740E+01  0.51100000000E-03 0.  1.
        -12    1    3    3    0    0 -0.25948044735E+02  0.13498774588E+02  0.22471328482E+02  0.36884665441E+02  0.00000000000E+00 0.  1.
</event>
<event>
 7    1  0.5992960E-013  0.5052886E+02  0.7816164E-02  0.1300439E+00
        -11   -1    0    0    0    0  0.00000000000E+00  0.00000000000E+00  0.45593999997E+02  0.45594000000E+02  0.51100000000E-03 0.  1.
         11   -1    0    0    0    0 -0.00000000000E+00 -0.00000000000E+00 -0.45593999997E+02  0.45594000000E+02  0.51100000000E-03 0. -1.
    9900012    2    1    2    0    0  0.16040720188E+02  0.11297756208E+02 -0.35612100497E+02  0.50528859560E+02  0.29999999119E+02 0.  0.
        -12    1    1    2    0    0 -0.16040720188E+02 -0.11297756208E+02  0.35612100497E+02  0.40659140440E+02  0.00000000000E+00 0.  1.
         11    1    3    3    0    0 -0.26246614103E+00  0.73183146868E+01 -0.93630566657E+01  0.11886692085E+02  0.51100000000E-03 0. -1.
        -11    1    3    3    0    0 -0.38987558314E+01  0.41267987520E+01 -0.13774691694E+02  0.14898754864E+02  0.51100000000E-03 0.  1.
        -12    1    3    3    0    0  0.20201942160E+02 -0.14735723049E+00 -0.12474352137E+02  0.23743412612E+02  0.00000000000E+00 0.  1.
</event>
<event>
 7    1  0.5992960E-013  0.5052885E+02  0.7816164E-02  0.1300439E+00
        -11   -1    0    0    0    0  0.00000000000E+00  0.00000000000E+00  0.45593999997E+02  0.45594000000E+02  0.51100000000E-03 0.  1.
         11   -1    0    0    0    0 -0.00000000000E+00 -0.00000000000E+00 -0.45593999997E+02  0.45594000000E+02  0.51100000000E-03 0. -1.
    9900012    2    1    2    0    0  0.34116110249E+02 -0.79706692917E+01 -0.20633119129E+02  0.50528854012E+02  0.29999982256E+02 0.  0.
        -12    1    1    2    0    0 -0.34116110249E+02  0.79706692917E+01  0.20633119129E+02  0.40659145988E+02  0.00000000000E+00 0.  1.
         11    1    3    3    0    0  0.15835324989E+02  0.20454811369E+01 -0.75652097918E+01  0.17668443905E+02  0.51100000000E-03 0. -1.
        -11    1    3    3    0    0  0.22398573504E+02 -0.44607127237E+01 -0.12195041417E+02  0.25890405335E+02  0.51100000000E-03 0.  1.
        -12    1    3    3    0    0 -0.41177882436E+01 -0.55554377049E+01 -0.87286791994E+00  0.69700047717E+01  0.00000000000E+00 0.  1.
</event>
<event>
 7    1  0.5992960E-013  0.5052886E+02  0.7816164E-02  0.1300439E+00
        -11   -1    0    0    0    0  0.00000000000E+00  0.00000000000E+00  0.45593999997E+02  0.45594000000E+02  0.51100000000E-03 0.  1.
         11   -1    0    0    0    0 -0.00000000000E+00 -0.00000000000E+00 -0.45593999997E+02  0.45594000000E+02  0.51100000000E-03 0. -1.
    9900012    2    1    2    0    0 -0.65092680988E+01 -0.29171298111E+02 -0.27565026157E+02  0.50528857465E+02  0.29999992750E+02 0.  0.
        -12    1    1    2    0    0  0.65092680988E+01  0.29171298111E+02  0.27565026157E+02  0.40659142535E+02  0.00000000000E+00 0.  1.
         11    1    3    3    0    0  0.40387985402E+01 -0.47694747566E+01 -0.13667158302E+02  0.15028339876E+02  0.51100000000E-03 0. -1.
        -11    1    3    3    0    0  0.65753429380E-01 -0.17122595183E+02 -0.80560995111E+00  0.17141662608E+02  0.51100000000E-03 0.  1.
        -12    1    3    3    0    0 -0.10613820068E+02 -0.72792281719E+01 -0.13092257904E+02  0.18358854982E+02  0.00000000000E+00 0.  1.
</event>
<event>
 7    1  0.5992960E-013  0.5052886E+02  0.7816164E-02  0.1300439E+00
        -11   -1    0    0    0    0  0.00000000000E+00  0.00000000000E+00  0.45593999997E+02  0.45594000000E+02  0.51100000000E-03 0.  1.
         11   -1    0    0    0    0 -0.00000000000E+00 -0.00000000000E+00 -0.45593999997E+02  0.45594000000E+02  0.51100000000E-03 0. -1.
    9900012    2    1    2    0    0 -0.33585366443E+02  0.14661442598E+02 -0.17613375601E+02  0.50528859106E+02  0.29999997739E+02 0.  0.
        -12    1    1    2    0    0  0.33585366443E+02 -0.14661442598E+02  0.17613375601E+02  0.40659140894E+02  0.00000000000E+00 0.  1.
         11    1    3    3    0    0 -0.57167751793E+01 -0.63930912189E+00 -0.34148900182E+01  0.66896717932E+01  0.51100000000E-03 0. -1.
        -11    1    3    3    0    0 -0.29217709391E+02  0.40444069234E+01 -0.13615969122E+02  0.32487326526E+02  0.51100000000E-03 0.  1.
         12    1    3    3    0    0  0.13491181271E+01  0.11256344797E+02 -0.58251646090E+00  0.11351860787E+02  0.00000000000E+00 0. -1.
</event>
<event>
 7    1  0.5992960E-013  0.5052886E+02  0.7816164E-02  0.1300439E+00
        -11   -1    0    0    0    0  0.00000000000E+00  0.00000000000E+00  0.45593999997E+02  0.45594000000E+02  0.51100000000E-03 0. -1.
         11   -1    0    0    0    0 -0.00000000000E+00 -0.00000000000E+00 -0.45593999997E+02  0.45594000000E+02  0.51100000000E-03 0.  1.
    9900012    2    1    2    0    0  0.24349148458E+02 -0.32428288316E+02 -0.29480557289E+01  0.50528856547E+02  0.29999989961E+02 0.  0.
        -12    1    1    2    0    0 -0.24349148458E+02  0.32428288316E+02  0.29480557289E+01  0.40659143453E+02  0.00000000000E+00 0.  1.
         11    1    3    3    0    0  0.41107838148E+01 -0.10998458648E+02 -0.38168823562E+01  0.12346385195E+02  0.51100000000E-03 0. -1.
        -11    1    3    3    0    0  0.17911070711E+02 -0.23438660345E+02 -0.64926348626E+01  0.30204826775E+02  0.51100000000E-03 0.  1.
         12    1    3    3    0    0  0.23272939316E+01  0.20088306764E+01  0.73614614899E+01  0.79776445770E+01  0.00000000000E+00 0. -1.
</event>
<event>
 7    1  0.5992960E-013  0.5052886E+02  0.7816164E-02  0.1300439E+00
        -11   -1    0    0    0    0  0.00000000000E+00  0.00000000000E+00  0.45593999997E+02  0.45594000000E+02  0.51100000000E-03 0.  1.
         11   -1    0    0    0    0 -0.00000000000E+00 -0.00000000000E+00 -0.45593999997E+02  0.45594000000E+02  0.51100000000E-03 0. -1.
    9900012    2    1    2    0    0  0.12432388952E-01  0.35530857678E+02 -0.19766726785E+02  0.50528862162E+02  0.30000007028E+02 0.  0.
        -12    1    1    2    0    0 -0.12432388952E-01 -0.35530857678E+02  0.19766726785E+02  0.40659137838E+02  0.00000000000E+00 0.  1.
         11    1    3    3    0    0 -0.42346181722E+01  0.17350312890E+02 -0.99630087304E+01  0.20450596364E+02  0.51100000000E-03 0. -1.
        -11    1    3    3    0    0 -0.37938091846E+01  0.76645476970E+01 -0.13813367331E+02  0.16246457977E+02  0.51100000000E-03 0.  1.
        -12    1    3    3    0    0  0.80408597457E+01  0.10515997091E+02  0.40096492756E+01  0.13831807821E+02  0.00000000000E+00 0.  1.
</event>
<event>
 7    1  0.5992960E-013  0.5052886E+02  0.7816164E-02  0.1300439E+00
        -11   -1    0    0    0    0  0.00000000000E+00  0.00000000000E+00  0.45593999997E+02  0.45594000000E+02  0.51100000000E-03 0.  1.
         11   -1    0    0    0    0 -0.00000000000E+00 -0.00000000000E+00 -0.45593999997E+02  0.45594000000E+02  0.51100000000E-03 0. -1.
    9900012    2    1    2    0    0  0.34271676512E+02  0.15422503974E+02 -0.15516585833E+02  0.50528857416E+02  0.29999992601E+02 0.  0.
        -12    1    1    2    0    0 -0.34271676512E+02 -0.15422503974E+02  0.15516585833E+02  0.40659142584E+02  0.00000000000E+00 0.  1.
         11    1    3    3    0    0  0.18690071790E+02  0.19649734210E+01 -0.38566352441E+01  0.19184721518E+02  0.51100000000E-03 0. -1.
        -11    1    3    3    0    0  0.18326710375E+02  0.53915086349E+01 -0.32601968484E+01  0.19379513984E+02  0.51100000000E-03 0.  1.
         12    1    3    3    0    0 -0.27451056528E+01  0.80660219183E+01 -0.83997537409E+01  0.11964621914E+02  0.00000000000E+00 0. -1.
</event>
<event>
 7    1  0.5992960E-013  0.5052886E+02  0.7816164E-02  0.1300439E+00
        -11   -1    0    0    0    0  0.00000000000E+00  0.00000000000E+00  0.45593999997E+02  0.45594000000E+02  0.51100000000E-03 0. -1.
         11   -1    0    0    0    0 -0.00000000000E+00 -0.00000000000E+00 -0.45593999997E+02  0.45594000000E+02  0.51100000000E-03 0.  1.
    9900012    2    1    2    0    0  0.34866881693E+02  0.82642633583E+01  0.19213746828E+02  0.50528861359E+02  0.30000004588E+02 0.  0.
        -12    1    1    2    0    0 -0.34866881693E+02 -0.82642633583E+01 -0.19213746828E+02  0.40659138641E+02  0.00000000000E+00 0.  1.
         11    1    3    3    0    0  0.59827280618E+01 -0.57456760072E+01  0.82924763556E+01  0.11729066127E+02  0.51100000000E-03 0.  1.
        -11    1    3    3    0    0  0.31852835263E+01  0.22169600218E+01  0.97567944360E+01  0.10500284797E+02  0.51100000000E-03 0. -1.
         12    1    3    3    0    0  0.25698870105E+02  0.11792979344E+02  0.11644760360E+01  0.28299510436E+02  0.00000000000E+00 0. -1.
</event>
<event>
 7    1  0.5992960E-013  0.5052886E+02  0.7816164E-02  0.1300439E+00
        -11   -1    0    0    0    0  0.00000000000E+00  0.00000000000E+00  0.45593999997E+02  0.45594000000E+02  0.51100000000E-03 0.  1.
         11   -1    0    0    0    0 -0.00000000000E+00 -0.00000000000E+00 -0.45593999997E+02  0.45594000000E+02  0.51100000000E-03 0. -1.
    9900012    2    1    2    0    0  0.76361875675E+01 -0.24320594163E+02 -0.31675907606E+02  0.50528858547E+02  0.29999996040E+02 0.  0.
        -12    1    1    2    0    0 -0.76361875675E+01  0.24320594163E+02  0.31675907606E+02  0.40659141453E+02  0.00000000000E+00 0.  1.
         11    1    3    3    0    0  0.13171164272E+02 -0.13136521430E+02 -0.58075312284E+01  0.19487821396E+02  0.51100000000E-03 0. -1.
        -11    1    3    3    0    0  0.26230505740E+01 -0.22772344913E+01 -0.13832969032E+01  0.37389439452E+01  0.51100000000E-03 0.  1.
         12    1    3    3    0    0 -0.81580272781E+01 -0.89068382415E+01 -0.24485079475E+02  0.27302093206E+02  0.00000000000E+00 0. -1.
</event>
<event>
 7    1  0.5992960E-013  0.5052887E+02  0.7816164E-02  0.1300439E+00
        -11   -1    0    0    0    0  0.00000000000E+00  0.00000000000E+00  0.45593999997E+02  0.45594000000E+02  0.51100000000E-03 0. -1.
         11   -1    0    0    0    0 -0.00000000000E+00 -0.00000000000E+00 -0.45593999997E+02  0.45594000000E+02  0.51100000000E-03 0.  1.
    9900012    2    1    2    0    0 -0.37353910127E+02 -0.15970158233E+02  0.16746381106E+01  0.50528868571E+02  0.30000026508E+02 0.  0.
        -12    1    1    2    0    0  0.37353910127E+02  0.15970158233E+02 -0.16746381106E+01  0.40659131429E+02  0.00000000000E+00 0.  1.
         11    1    3    3    0    0 -0.50329684809E+01 -0.12388381010E+01  0.33213487431E+01  0.61560416912E+01  0.51100000000E-03 0. -1.
        -11    1    3    3    0    0 -0.20903076208E+02 -0.31969633595E+01  0.10964006444E+02  0.23819500567E+02  0.51100000000E-03 0.  1.
        -12    1    3    3    0    0 -0.11417865438E+02 -0.11534356773E+02 -0.12610717077E+02  0.20553326313E+02  0.00000000000E+00 0.  1.
</event>
<event>
 7    1  0.5992960E-013  0.5052885E+02  0.7816164E-02  0.1300439E+00
        -11   -1    0    0    0    0  0.00000000000E+00  0.00000000000E+00  0.45593999997E+02  0.45594000000E+02  0.51100000000E-03 0. -1.
         11   -1    0    0    0    0 -0.00000000000E+00 -0.00000000000E+00 -0.45593999997E+02  0.45594000000E+02  0.51100000000E-03 0.  1.
    9900012    2    1    2    0    0 -0.40987998954E+01 -0.23717205953E+02  0.32769805363E+02  0.50528853891E+02  0.29999981887E+02 0.  0.
        -12    1    1    2    0    0  0.40987998954E+01  0.23717205953E+02 -0.32769805363E+02  0.40659146109E+02  0.00000000000E+00 0.  1.
         11    1    3    3    0    0 -0.73564447049E+01 -0.15054039008E+02  0.83548609968E+01  0.18722848920E+02  0.51100000000E-03 0. -1.
        -11    1    3    3    0    0  0.17705730993E+01 -0.11810399298E+02  0.65811648084E+01  0.13635695478E+02  0.51100000000E-03 0.  1.
         12    1    3    3    0    0  0.14870717102E+01  0.31472323530E+01  0.17833779558E+02  0.18170309493E+02  0.00000000000E+00 0. -1.
</event>
<event>
 7    1  0.5992960E-013  0.5052885E+02  0.7816164E-02  0.1300439E+00
        -11   -1    0    0    0    0  0.00000000000E+00  0.00000000000E+00  0.45593999997E+02  0.45594000000E+02  0.51100000000E-03 0. -1.
         11   -1    0    0    0    0 -0.00000000000E+00 -0.00000000000E+00 -0.45593999997E+02  0.45594000000E+02  0.51100000000E-03 0.  1.
    9900012    2    1    2    0    0 -0.33442305059E+02  0.16201905709E+02 -0.16500806901E+02  0.50528854108E+02  0.29999982547E+02 0.  0.
        -12    1    1    2    0    0  0.33442305059E+02 -0.16201905709E+02  0.16500806901E+02  0.40659145892E+02  0.00000000000E+00 0.  1.
         11    1    3    3    0    0 -0.55388609882E+00  0.36159633378E+01  0.26637363092E+01  0.45252040901E+01  0.51100000000E-03 0.  1.
        -11    1    3    3    0    0 -0.22133881916E+02 -0.28698647099E+01 -0.14465377817E+02  0.26596842064E+02  0.51100000000E-03 0. -1.
         12    1    3    3    0    0 -0.10754537044E+02  0.15455807081E+02 -0.46991653931E+01  0.19406807954E+02  0.00000000000E+00 0. -1.
</event>
<event>
 7    1  0.5992960E-013  0.5052888E+02  0.7816164E-02  0.1300439E+00
        -11   -1    0    0    0    0  0.00000000000E+00  0.00000000000E+00  0.45593999997E+02  0.45594000000E+02  0.51100000000E-03 0. -1.
         11   -1    0    0    0    0 -0.00000000000E+00 -0.00000000000E+00 -0.45593999997E+02  0.45594000000E+02  0.51100000000E-03 0.  1.
    9900012    2    1    2    0    0  0.10832829935E+02 -0.22181895946E+02  0.32307548314E+02  0.50528875683E+02  0.30000048125E+02 0.  0.
        -12    1    1    2    0    0 -0.10832829935E+02  0.22181895946E+02 -0.32307548314E+02  0.40659124317E+02  0.00000000000E+00 0.  1.
         11    1    3    3    0    0  0.46680423092E+01 -0.12439707391E+02  0.10266760287E+02  0.16791167501E+02  0.51100000000E-03 0. -1.
        -11    1    3    3    0    0  0.39198513952E+01 -0.15092244106E+02  0.60476697974E+01  0.16724693640E+02  0.51100000000E-03 0.  1.
        -12    1    3    3    0    0  0.22449362303E+01  0.53500555514E+01  0.15993118230E+02  0.17013014542E+02  0.00000000000E+00 0.  1.
</event>
<event>
 7    1  0.5992960E-013  0.5052886E+02  0.7816164E-02  0.1300439E+00
        -11   -1    0    0    0    0  0.00000000000E+00  0.00000000000E+00  0.45593999997E+02  0.45594000000E+02  0.51100000000E-03 0. -1.
         11   -1    0    0    0    0 -0.00000000000E+00 -0.00000000000E+00 -0.45593999997E+02  0.45594000000E+02  0.51100000000E-03 0.  1.
    9900012    2    1    2    0    0  0.19453317563E+02  0.24880231792E+02  0.25606799872E+02  0.50528859602E+02  0.29999999246E+02 0.  0.
        -12    1    1    2    0    0 -0.19453317563E+02 -0.24880231792E+02 -0.25606799872E+02  0.40659140398E+02  0.00000000000E+00 0.  1.
         11    1    3    3    0    0  0.11246313500E+02  0.10615008183E+02  0.20374105818E+02  0.25578548712E+02  0.51100000000E-03 0. -1.
        -11    1    3    3    0    0  0.74993465758E+01  0.12217479474E+02  0.11462366793E+02  0.18354641280E+02  0.51100000000E-03 0.  1.
        -12    1    3    3    0    0  0.70765748714E+00  0.20477441351E+01 -0.62296727393E+01  0.65956696097E+01  0.00000000000E+00 0.  1.
</event>
<event>
 7    1  0.5992960E-013  0.5052885E+02  0.7816164E-02  0.1300439E+00
        -11   -1    0    0    0    0  0.00000000000E+00  0.00000000000E+00  0.45593999997E+02  0.45594000000E+02  0.51100000000E-03 0. -1.
         11   -1    0    0    0    0 -0.00000000000E+00 -0.00000000000E+00 -0.45593999997E+02  0.45594000000E+02  0.51100000000E-03 0.  1.
    9900012    2    1    2    0    0 -0.36124778360E+02  0.11836476769E+02 -0.14424436979E+02  0.50528853723E+02  0.29999981375E+02 0.  0.
        -12    1    1    2    0    0  0.36124778360E+02 -0.11836476769E+02  0.14424436979E+02  0.40659146277E+02  0.00000000000E+00 0.  1.
         11    1    3    3    0    0 -0.10508208007E+02  0.68544602385E+01 -0.13714264989E+02  0.18587283964E+02  0.51100000000E-03 0.  1.
        -11    1    3    3    0    0 -0.17149433926E+02  0.86412766786E+01 -0.73651119353E+01  0.20567440791E+02  0.51100000000E-03 0. -1.
        -12    1    3    3    0    0 -0.84671364265E+01 -0.36592601485E+01  0.66549399456E+01  0.11374128968E+02  0.00000000000E+00 0.  1.
</event>
<event>
 7    1  0.5992960E-013  0.5052885E+02  0.7816164E-02  0.1300439E+00
        -11   -1    0    0    0    0  0.00000000000E+00  0.00000000000E+00  0.45593999997E+02  0.45594000000E+02  0.51100000000E-03 0.  1.
         11   -1    0    0    0    0 -0.00000000000E+00 -0.00000000000E+00 -0.45593999997E+02  0.45594000000E+02  0.51100000000E-03 0. -1.
    9900012    2    1    2    0    0  0.40268961285E+02  0.41783816264E+01 -0.37574322327E+01  0.50528850809E+02  0.29999972518E+02 0.  0.
        -12    1    1    2    0    0 -0.40268961285E+02 -0.41783816264E+01  0.37574322327E+01  0.40659149191E+02  0.00000000000E+00 0.  1.
         11    1    3    3    0    0  0.11135509813E+02  0.12195299276E+02 -0.50284891960E+01  0.17262983724E+02  0.51100000000E-03 0. -1.
        -11    1    3    3    0    0  0.69743495170E+01  0.27520171185E+01  0.39653575208E+01  0.84816985289E+01  0.51100000000E-03 0.  1.
         12    1    3    3    0    0  0.22159101955E+02 -0.10768934768E+02 -0.26943005574E+01  0.24784168555E+02  0.00000000000E+00 0. -1.
</event>
<event>
 7    1  0.5992960E-013  0.5052882E+02  0.7816164E-02  0.1300439E+00
        -11   -1    0    0    0    0  0.00000000000E+00  0.00000000000E+00  0.45593999997E+02  0.45594000000E+02  0.51100000000E-03 0. -1.
         11   -1    0    0    0    0 -0.00000000000E+00 -0.00000000000E+00 -0.45593999997E+02  0.45594000000E+02  0.51100000000E-03 0.  1.
    9900012    2    1    2    0    0 -0.27124756204E+02  0.26419213067E+02  0.14813571947E+02  0.50528817371E+02  0.29999870880E+02 0.  0.
        -12    1    1    2    0    0  0.27124756204E+02 -0.26419213067E+02 -0.14813571947E+02  0.40659182629E+02  0.00000000000E+00 0.  1.
         11    1    3    3    0    0 -0.12145320929E+02  0.16978740990E+02  0.49314635016E+01  0.21450076890E+02  0.51100000000E-03 0. -1.
        -11    1    3    3    0    0 -0.62643753293E+01  0.15465529151E+02  0.70305764883E+01  0.18106738972E+02  0.51100000000E-03 0.  1.
        -12    1    3    3    0    0 -0.87150599459E+01 -0.60250570733E+01  0.28515319571E+01  0.10972001508E+02  0.00000000000E+00 0.  1.
</event>
<event>
 7    1  0.5992960E-013  0.5052883E+02  0.7816164E-02  0.1300439E+00
        -11   -1    0    0    0    0  0.00000000000E+00  0.00000000000E+00  0.45593999997E+02  0.45594000000E+02  0.51100000000E-03 0.  1.
         11   -1    0    0    0    0 -0.00000000000E+00 -0.00000000000E+00 -0.45593999997E+02  0.45594000000E+02  0.51100000000E-03 0. -1.
    9900012    2    1    2    0    0 -0.11796708806E+02 -0.26283533157E+02 -0.28691136309E+02  0.50528834286E+02  0.29999922296E+02 0.  0.
        -12    1    1    2    0    0  0.11796708806E+02  0.26283533157E+02  0.28691136309E+02  0.40659165714E+02  0.00000000000E+00 0.  1.
         11    1    3    3    0    0  0.38703805952E+01  0.84400309308E+00  0.10881363909E+01  0.41080686751E+01  0.51100000000E-03 0. -1.
        -11    1    3    3    0    0 -0.42321261721E+01  0.16910526980E+01 -0.30369606947E+01  0.54766487642E+01  0.51100000000E-03 0.  1.
         12    1    3    3    0    0 -0.11434963229E+02 -0.28818588948E+02 -0.26742312005E+02  0.40944116847E+02  0.00000000000E+00 0. -1.
</event>
<event>
 7    1  0.5992960E-013  0.5052886E+02  0.7816164E-02  0.1300439E+00
        -11   -1    0    0    0    0  0.00000000000E+00  0.00000000000E+00  0.45593999997E+02  0.45594000000E+02  0.51100000000E-03 0.  1.
         11   -1    0    0    0    0 -0.00000000000E+00 -0.00000000000E+00 -0.45593999997E+02  0.45594000000E+02  0.51100000000E-03 0. -1.
    9900012    2    1    2    0    0 -0.26666699901E+02 -0.24552188099E+02 -0.18418547250E+02  0.50528859492E+02  0.29999998911E+02 0.  0.
        -12    1    1    2    0    0  0.26666699901E+02  0.24552188099E+02  0.18418547250E+02  0.40659140508E+02  0.00000000000E+00 0.  1.
         11    1    3    3    0    0 -0.62606987765E+00 -0.12723400036E+02 -0.11622184758E+02  0.17243898944E+02  0.51100000000E-03 0. -1.
        -11    1    3    3    0    0 -0.93686328367E+00 -0.20526762374E+01 -0.59146112506E+01  0.63303885390E+01  0.51100000000E-03 0.  1.
        -12    1    3    3    0    0 -0.25103766739E+02 -0.97761118256E+01 -0.88175124179E+00  0.26954572009E+02  0.00000000000E+00 0.  1.
</event>
<event>
 7    1  0.5992960E-013  0.5052886E+02  0.7816164E-02  0.1300439E+00
        -11   -1    0    0    0    0  0.00000000000E+00  0.00000000000E+00  0.45593999997E+02  0.45594000000E+02  0.51100000000E-03 0. -1.
         11   -1    0    0    0    0 -0.00000000000E+00 -0.00000000000E+00 -0.45593999997E+02  0.45594000000E+02  0.51100000000E-03 0.  1.
    9900012    2    1    2    0    0  0.26828864779E+02  0.38660874711E+01  0.30305621068E+02  0.50528864667E+02  0.30000014643E+02 0.  0.
        -12    1    1    2    0    0 -0.26828864779E+02 -0.38660874711E+01 -0.30305621068E+02  0.40659135333E+02  0.00000000000E+00 0.  1.
         11    1    3    3    0    0  0.61157660041E+01 -0.13253535086E+01  0.24177902008E+02  0.24974589116E+02  0.51100000000E-03 0. -1.
        -11    1    3    3    0    0  0.13869518152E+02 -0.21643280002E+01  0.65673502977E+01  0.15497675298E+02  0.51100000000E-03 0.  1.
        -12    1    3    3    0    0  0.68435806228E+01  0.73557689798E+01 -0.43963123737E+00  0.10056600253E+02  0.00000000000E+00 0.  1.
</event>
<event>
 7    1  0.5992960E-013  0.5052886E+02  0.7816164E-02  0.1300439E+00
        -11   -1    0    0    0    0  0.00000000000E+00  0.00000000000E+00  0.45593999997E+02  0.45594000000E+02  0.51100000000E-03 0.  1.
         11   -1    0    0    0    0 -0.00000000000E+00 -0.00000000000E+00 -0.45593999997E+02  0.45594000000E+02  0.51100000000E-03 0. -1.
    9900012    2    1    2    0    0  0.37296990513E+02  0.85246500147E+01 -0.13763377507E+02  0.50528859335E+02  0.29999998436E+02 0.  0.
        -12    1    1    2    0    0 -0.37296990513E+02 -0.85246500147E+01  0.13763377507E+02  0.40659140665E+02  0.00000000000E+00 0.  1.
         11    1    3    3    0    0  0.15019862886E+01 -0.53724064239E+01 -0.39263811353E+01  0.68216700796E+01  0.51100000000E-03 0. -1.
        -11    1    3    3    0    0  0.91126876353E+01 -0.44790823011E+01 -0.16083491320E+01  0.10280566200E+02  0.51100000000E-03 0.  1.
         12    1    3    3    0    0  0.26682316589E+02  0.18376138740E+02 -0.82286472402E+01  0.33426623056E+02  0.00000000000E+00 0. -1.
</event>
<event>
 7    1  0.5992960E-013  0.5052886E+02  0.7816164E-02  0.1300439E+00
        -11   -1    0    0    0    0  0.00000000000E+00  0.00000000000E+00  0.45593999997E+02  0.45594000000E+02  0.51100000000E-03 0.  1.
         11   -1    0    0    0    0 -0.00000000000E+00 -0.00000000000E+00 -0.45593999997E+02  0.45594000000E+02  0.51100000000E-03 0. -1.
    9900012    2    1    2    0    0 -0.26511355847E+02 -0.18839963911E+02 -0.24400196605E+02  0.50528858059E+02  0.29999994556E+02 0.  0.
        -12    1    1    2    0    0  0.26511355847E+02  0.18839963911E+02  0.24400196605E+02  0.40659141941E+02  0.00000000000E+00 0.  1.
         11    1    3    3    0    0 -0.20370874645E+02 -0.12302163419E+02 -0.27813381584E+02  0.36604643886E+02  0.51100000000E-03 0. -1.
        -11    1    3    3    0    0 -0.28661325755E+01 -0.52670868262E+01 -0.29296868168E+01  0.66738283377E+01  0.51100000000E-03 0.  1.
        -12    1    3    3    0    0 -0.32743486267E+01 -0.12707136655E+01  0.63428717958E+01  0.72503858357E+01  0.00000000000E+00 0.  1.
</event>
<event>
 7    1  0.5992960E-013  0.5052883E+02  0.7816164E-02  0.1300439E+00
        -11   -1    0    0    0    0  0.00000000000E+00  0.00000000000E+00  0.45593999997E+02  0.45594000000E+02  0.51100000000E-03 0. -1.
         11   -1    0    0    0    0 -0.00000000000E+00 -0.00000000000E+00 -0.45593999997E+02  0.45594000000E+02  0.51100000000E-03 0.  1.
    9900012    2    1    2    0    0 -0.21565898845E+02  0.33306582862E+02  0.88741929883E+01  0.50528834291E+02  0.29999922312E+02 0.  0.
        -12    1    1    2    0    0  0.21565898845E+02 -0.33306582862E+02 -0.88741929883E+01  0.40659165709E+02  0.00000000000E+00 0.  1.
         11    1    3    3    0    0 -0.90165112106E+00 -0.16391504433E+01 -0.12444531608E+01  0.22468762428E+01  0.51100000000E-03 0. -1.
        -11    1    3    3    0    0 -0.15106446787E+02  0.48859541576E+01 -0.59924007531E+00  0.15888246332E+02  0.51100000000E-03 0.  1.
        -12    1    3    3    0    0 -0.55578009361E+01  0.30059779148E+02  0.10717886224E+02  0.32393711717E+02  0.00000000000E+00 0.  1.
</event>
<event>
 7    1  0.5992960E-013  0.5052885E+02  0.7816164E-02  0.1300439E+00
        -11   -1    0    0    0    0  0.00000000000E+00  0.00000000000E+00  0.45593999997E+02  0.45594000000E+02  0.51100000000E-03 0.  1.
         11   -1    0    0    0    0 -0.00000000000E+00 -0.00000000000E+00 -0.45593999997E+02  0.45594000000E+02  0.51100000000E-03 0. -1.
    9900012    2    1    2    0    0  0.73307162383E+01 -0.11837729490E+02 -0.38200724584E+02  0.50528848523E+02  0.29999965572E+02 0.  0.
        -12    1    1    2    0    0 -0.73307162383E+01  0.11837729490E+02  0.38200724584E+02  0.40659151477E+02  0.00000000000E+00 0.  1.
         11    1    3    3    0    0  0.18658880807E+00 -0.11083238712E+02 -0.28544848741E+02  0.30621583657E+02  0.51100000000E-03 0. -1.
        -11    1    3    3    0    0  0.78025816963E+01 -0.69680155975E+01 -0.86591988424E+01  0.13579957561E+02  0.51100000000E-03 0.  1.
        -12    1    3    3    0    0 -0.65845426605E+00  0.62135248196E+01 -0.99667700060E+00  0.63273073062E+01  0.00000000000E+00 0.  1.
</event>
<event>
 7    1  0.5992960E-013  0.5052898E+02  0.7816164E-02  0.1300438E+00
        -11   -1    0    0    0    0  0.00000000000E+00  0.00000000000E+00  0.45593999997E+02  0.45594000000E+02  0.51100000000E-03 0.  1.
         11   -1    0    0    0    0 -0.00000000000E+00 -0.00000000000E+00 -0.45593999997E+02  0.45594000000E+02  0.51100000000E-03 0. -1.
    9900012    2    1    2    0    0 -0.24006309013E+02  0.22624136732E+02 -0.23769764681E+02  0.50528977037E+02  0.30000356201E+02 0.  0.
        -12    1    1    2    0    0  0.24006309013E+02 -0.22624136732E+02  0.23769764681E+02  0.40659022963E+02  0.00000000000E+00 0.  1.
         11    1    3    3    0    0 -0.13790940785E+02  0.73287820629E+01 -0.17145151951E+02  0.23191751334E+02  0.51100000000E-03 0. -1.
        -11    1    3    3    0    0 -0.12955745913E+02  0.17001420414E+02 -0.16917960947E+01  0.21442057330E+02  0.51100000000E-03 0.  1.
        -12    1    3    3    0    0  0.27403776856E+01 -0.17060657453E+01 -0.49328166359E+01  0.58951683734E+01  0.00000000000E+00 0.  1.
</event>
<event>
 7    1  0.5992960E-013  0.5052886E+02  0.7816164E-02  0.1300439E+00
        -11   -1    0    0    0    0  0.00000000000E+00  0.00000000000E+00  0.45593999997E+02  0.45594000000E+02  0.51100000000E-03 0. -1.
         11   -1    0    0    0    0 -0.00000000000E+00 -0.00000000000E+00 -0.45593999997E+02  0.45594000000E+02  0.51100000000E-03 0.  1.
    9900012    2    1    2    0    0 -0.44429116950E+01  0.66038646586E+01  0.39872489095E+02  0.50528857370E+02  0.29999992463E+02 0.  0.
        -12    1    1    2    0    0  0.44429116950E+01 -0.66038646586E+01 -0.39872489095E+02  0.40659142630E+02  0.00000000000E+00 0.  1.
         11    1    3    3    0    0 -0.33531519722E+00 -0.85585027881E+01  0.37928741392E+01  0.93672995443E+01  0.51100000000E-03 0. -1.
        -11    1    3    3    0    0 -0.75127818862E+01  0.81018094570E+01  0.14694492041E+02  0.18385029365E+02  0.51100000000E-03 0.  1.
        -12    1    3    3    0    0  0.34051853884E+01  0.70605579896E+01  0.21385122915E+02  0.22776528461E+02  0.00000000000E+00 0.  1.
</event>
<event>
 7    1  0.5992960E-013  0.5052885E+02  0.7816164E-02  0.1300439E+00
        -11   -1    0    0    0    0  0.00000000000E+00  0.00000000000E+00  0.45593999997E+02  0.45594000000E+02  0.51100000000E-03 0.  1.
         11   -1    0    0    0    0 -0.00000000000E+00 -0.00000000000E+00 -0.45593999997E+02  0.45594000000E+02  0.51100000000E-03 0. -1.
    9900012    2    1    2    0    0  0.26181692854E+01  0.36576644241E+02 -0.17563053668E+02  0.50528848896E+02  0.29999966705E+02 0.  0.
        -12    1    1    2    0    0 -0.26181692854E+01 -0.36576644241E+02  0.17563053668E+02  0.40659151104E+02  0.00000000000E+00 0.  1.
         11    1    3    3    0    0  0.65378991255E+01  0.79979222230E+01 -0.81150386244E+01  0.13136389801E+02  0.51100000000E-03 0. -1.
        -11    1    3    3    0    0  0.53366603454E+01  0.31473320324E+00 -0.50014941466E+01  0.73207885225E+01  0.51100000000E-03 0.  1.
         12    1    3    3    0    0 -0.92563901855E+01  0.28263988814E+02 -0.44465208971E+01  0.30071670573E+02  0.00000000000E+00 0. -1.
</event>
<event>
 7    1  0.5992960E-013  0.5052886E+02  0.7816164E-02  0.1300439E+00
        -11   -1    0    0    0    0  0.00000000000E+00  0.00000000000E+00  0.45593999997E+02  0.45594000000E+02  0.51100000000E-03 0.  1.
         11   -1    0    0    0    0 -0.00000000000E+00 -0.00000000000E+00 -0.45593999997E+02  0.45594000000E+02  0.51100000000E-03 0. -1.
    9900012    2    1    2    0    0  0.18383681063E+01 -0.17906909019E+00 -0.40617162315E+02  0.50528861574E+02  0.30000005239E+02 0.  0.
        -12    1    1    2    0    0 -0.18383681063E+01  0.17906909019E+00  0.40617162315E+02  0.40659138426E+02  0.00000000000E+00 0.  1.
         11    1    3    3    0    0  0.16005029775E+01 -0.17084688053E+01 -0.17128883883E+02  0.17288121320E+02  0.51100000000E-03 0. -1.
        -11    1    3    3    0    0  0.55692973023E+01 -0.85264947654E+01 -0.45700541887E+01  0.11162597412E+02  0.51100000000E-03 0.  1.
         12    1    3    3    0    0 -0.53314321734E+01  0.10055894481E+02 -0.18918224244E+02  0.22078142842E+02  0.00000000000E+00 0. -1.
</event>
<event>
 7    1  0.5992960E-013  0.5052886E+02  0.7816164E-02  0.1300439E+00
        -11   -1    0    0    0    0  0.00000000000E+00  0.00000000000E+00  0.45593999997E+02  0.45594000000E+02  0.51100000000E-03 0.  1.
         11   -1    0    0    0    0 -0.00000000000E+00 -0.00000000000E+00 -0.45593999997E+02  0.45594000000E+02  0.51100000000E-03 0. -1.
    9900012    2    1    2    0    0 -0.28011387344E+02  0.29259545528E+02 -0.35223604620E+01  0.50528857748E+02  0.29999993611E+02 0.  0.
        -12    1    1    2    0    0  0.28011387344E+02 -0.29259545528E+02  0.35223604620E+01  0.40659142252E+02  0.00000000000E+00 0.  1.
         11    1    3    3    0    0 -0.10017513246E+02  0.10187453612E+02  0.62768423137E+01  0.15605560946E+02  0.51100000000E-03 0. -1.
        -11    1    3    3    0    0 -0.85327762687E+01  0.96967438571E+01  0.60140851323E+01  0.14247958890E+02  0.51100000000E-03 0.  1.
         12    1    3    3    0    0 -0.94610978288E+01  0.93753480586E+01 -0.15813287908E+02  0.20675337913E+02  0.00000000000E+00 0. -1.
</event>
<event>
 7    1  0.5992960E-013  0.5052884E+02  0.7816164E-02  0.1300439E+00
        -11   -1    0    0    0    0  0.00000000000E+00  0.00000000000E+00  0.45593999997E+02  0.45594000000E+02  0.51100000000E-03 0.  1.
         11   -1    0    0    0    0 -0.00000000000E+00 -0.00000000000E+00 -0.45593999997E+02  0.45594000000E+02  0.51100000000E-03 0. -1.
    9900012    2    1    2    0    0  0.30643423247E+02 -0.13846935700E+02 -0.22856301864E+02  0.50528836808E+02  0.29999929961E+02 0.  0.
        -12    1    1    2    0    0 -0.30643423247E+02  0.13846935700E+02  0.22856301864E+02  0.40659163192E+02  0.00000000000E+00 0.  1.
         11    1    3    3    0    0  0.13417920096E+01  0.39528267159E+01 -0.26095383206E+01  0.49228990799E+01  0.51100000000E-03 0. -1.
        -11    1    3    3    0    0 -0.21842744196E+01  0.16672776129E+01 -0.47241242113E+01  0.54651824493E+01  0.51100000000E-03 0.  1.
         12    1    3    3    0    0  0.31485905657E+02 -0.19467040029E+02 -0.15522639332E+02  0.40140755279E+02  0.00000000000E+00 0. -1.
</event>
<event>
 7    1  0.5992960E-013  0.5052886E+02  0.7816164E-02  0.1300439E+00
        -11   -1    0    0    0    0  0.00000000000E+00  0.00000000000E+00  0.45593999997E+02  0.45594000000E+02  0.51100000000E-03 0.  1.
         11   -1    0    0    0    0 -0.00000000000E+00 -0.00000000000E+00 -0.45593999997E+02  0.45594000000E+02  0.51100000000E-03 0. -1.
    9900012    2    1    2    0    0 -0.33084802933E+02  0.71974585182E+01 -0.22511294771E+02  0.50528856053E+02  0.29999988459E+02 0.  0.
        -12    1    1    2    0    0  0.33084802933E+02 -0.71974585182E+01  0.22511294771E+02  0.40659143947E+02  0.00000000000E+00 0.  1.
         11    1    3    3    0    0 -0.22546479388E+02  0.85386044036E+01 -0.27398735834E+02  0.36495783640E+02  0.51100000000E-03 0. -1.
        -11    1    3    3    0    0  0.80563924304E+00 -0.15469245434E+01  0.11431018369E+01  0.20853566130E+01  0.51100000000E-03 0.  1.
        -12    1    3    3    0    0 -0.11343962788E+02  0.20577865794E+00  0.37443392259E+01  0.11947715800E+02  0.00000000000E+00 0.  1.
</event>
<event>
 7    1  0.5992960E-013  0.5052884E+02  0.7816164E-02  0.1300439E+00
        -11   -1    0    0    0    0  0.00000000000E+00  0.00000000000E+00  0.45593999997E+02  0.45594000000E+02  0.51100000000E-03 0.  1.
         11   -1    0    0    0    0 -0.00000000000E+00 -0.00000000000E+00 -0.45593999997E+02  0.45594000000E+02  0.51100000000E-03 0. -1.
    9900012    2    1    2    0    0 -0.22266016219E+01 -0.26195536442E+02 -0.31016178936E+02  0.50528840638E+02  0.29999941604E+02 0.  0.
        -12    1    1    2    0    0  0.22266016219E+01  0.26195536442E+02  0.31016178936E+02  0.40659159362E+02  0.00000000000E+00 0.  1.
         11    1    3    3    0    0  0.25488585170E+01 -0.11739480946E+02 -0.11705308682E+01  0.12069889618E+02  0.51100000000E-03 0. -1.
        -11    1    3    3    0    0 -0.54660479584E+01 -0.13818651615E+02 -0.85539286407E+01  0.17146501340E+02  0.51100000000E-03 0.  1.
         12    1    3    3    0    0  0.69058781957E+00 -0.63740388075E+00 -0.21291719427E+02  0.21312449681E+02  0.00000000000E+00 0. -1.
</event>
<event>
 7    1  0.5992960E-013  0.5052886E+02  0.7816164E-02  0.1300439E+00
        -11   -1    0    0    0    0  0.00000000000E+00  0.00000000000E+00  0.45593999997E+02  0.45594000000E+02  0.51100000000E-03 0. -1.
         11   -1    0    0    0    0 -0.00000000000E+00 -0.00000000000E+00 -0.45593999997E+02  0.45594000000E+02  0.51100000000E-03 0.  1.
    9900012    2    1    2    0    0  0.23010893317E+02 -0.31608304838E+02  0.11161533858E+02  0.50528856084E+02  0.29999988552E+02 0.  0.
        -12    1    1    2    0    0 -0.23010893317E+02  0.31608304838E+02 -0.11161533858E+02  0.40659143916E+02  0.00000000000E+00 0.  1.
         11    1    3    3    0    0  0.22898503244E+02 -0.19252767003E+02 -0.13150453023E+01  0.29945614579E+02  0.51100000000E-03 0. -1.
        -11    1    3    3    0    0 -0.27876087586E+01 -0.22099771728E+01 -0.77795727369E+00  0.36414254731E+01  0.51100000000E-03 0.  1.
        -12    1    3    3    0    0  0.28999988309E+01 -0.10145560662E+02  0.13254536434E+02  0.16941816032E+02  0.00000000000E+00 0.  1.
</event>
<event>
 7    1  0.5992960E-013  0.5052877E+02  0.7816164E-02  0.1300439E+00
        -11   -1    0    0    0    0  0.00000000000E+00  0.00000000000E+00  0.45593999997E+02  0.45594000000E+02  0.51100000000E-03 0.  1.
         11   -1    0    0    0    0 -0.00000000000E+00 -0.00000000000E+00 -0.45593999997E+02  0.45594000000E+02  0.51100000000E-03 0. -1.
    9900012    2    1    2    0    0 -0.29148992784E+02  0.17333066951E+02 -0.22429309526E+02  0.50528770838E+02  0.29999729438E+02 0.  0.
        -12    1    1    2    0    0  0.29148992784E+02 -0.17333066951E+02  0.22429309526E+02  0.40659229162E+02  0.00000000000E+00 0.  1.
         11    1    3    3    0    0 -0.53691414342E+01  0.16267191124E+02 -0.15647459331E+02  0.23201124338E+02  0.51100000000E-03 0. -1.
        -11    1    3    3    0    0 -0.11288185112E+02  0.18727430121E+01  0.25391222058E+01  0.11720811889E+02  0.51100000000E-03 0.  1.
        -12    1    3    3    0    0 -0.12491666238E+02 -0.80686718473E+00 -0.93209724012E+01  0.15606834610E+02  0.00000000000E+00 0.  1.
</event>
<event>
 7    1  0.5992960E-013  0.5052886E+02  0.7816164E-02  0.1300439E+00
        -11   -1    0    0    0    0  0.00000000000E+00  0.00000000000E+00  0.45593999997E+02  0.45594000000E+02  0.51100000000E-03 0. -1.
         11   -1    0    0    0    0 -0.00000000000E+00 -0.00000000000E+00 -0.45593999997E+02  0.45594000000E+02  0.51100000000E-03 0.  1.
    9900012    2    1    2    0    0 -0.11748360216E+00 -0.40468688806E+02 -0.39290339793E+01  0.50528857313E+02  0.29999992287E+02 0.  0.
        -12    1    1    2    0    0  0.11748360216E+00  0.40468688806E+02  0.39290339793E+01  0.40659142687E+02  0.00000000000E+00 0.  1.
         11    1    3    3    0    0 -0.11251102503E+02 -0.16338538732E+02 -0.55714896443E+01  0.20605257886E+02  0.51100000000E-03 0. -1.
        -11    1    3    3    0    0  0.23915789229E+00 -0.24176793894E+01  0.48459848118E+01  0.54208799271E+01  0.51100000000E-03 0.  1.
         12    1    3    3    0    0  0.10894461008E+02 -0.21712470684E+02 -0.32035291468E+01  0.24502719500E+02  0.00000000000E+00 0. -1.
</event>
<event>
 7    1  0.5992960E-013  0.5052887E+02  0.7816164E-02  0.1300439E+00
        -11   -1    0    0    0    0  0.00000000000E+00  0.00000000000E+00  0.45593999997E+02  0.45594000000E+02  0.51100000000E-03 0.  1.
         11   -1    0    0    0    0 -0.00000000000E+00 -0.00000000000E+00 -0.45593999997E+02  0.45594000000E+02  0.51100000000E-03 0. -1.
    9900012    2    1    2    0    0  0.36385776160E+02  0.12180381950E+02 -0.13449118269E+02  0.50528865806E+02  0.30000018103E+02 0.  0.
        -12    1    1    2    0    0 -0.36385776160E+02 -0.12180381950E+02  0.13449118269E+02  0.40659134194E+02  0.00000000000E+00 0.  1.
         11    1    3    3    0    0  0.18822317351E+02  0.14505698013E+02 -0.28792417292E+01  0.23937103804E+02  0.51100000000E-03 0. -1.
        -11    1    3    3    0    0  0.93548145365E-01  0.29297885564E+01  0.27375136758E+01  0.40107846647E+01  0.51100000000E-03 0.  1.
        -12    1    3    3    0    0  0.17469910664E+02 -0.52551046196E+01 -0.13307390215E+02  0.22580977337E+02  0.00000000000E+00 0.  1.
</event>
<event>
 7    1  0.5992960E-013  0.5052887E+02  0.7816164E-02  0.1300439E+00
        -11   -1    0    0    0    0  0.00000000000E+00  0.00000000000E+00  0.45593999997E+02  0.45594000000E+02  0.51100000000E-03 0. -1.
         11   -1    0    0    0    0 -0.00000000000E+00 -0.00000000000E+00 -0.45593999997E+02  0.45594000000E+02  0.51100000000E-03 0.  1.
    9900012    2    1    2    0    0  0.27610800761E+02 -0.29779622251E+02  0.19955849588E+01  0.50528873357E+02  0.30000041056E+02 0.  0.
        -12    1    1    2    0    0 -0.27610800761E+02  0.29779622251E+02 -0.19955849588E+01  0.40659126643E+02  0.00000000000E+00 0.  1.
         11    1    3    3    0    0  0.46001404308E+01 -0.23164387935E+02  0.18676026047E+01  0.23690464330E+02  0.51100000000E-03 0. -1.
        -11    1    3    3    0    0  0.17419548500E+02 -0.86302616050E+01  0.38612782181E+01  0.19819978684E+02  0.51100000000E-03 0.  1.
        -12    1    3    3    0    0  0.55911118303E+01  0.20150272896E+01 -0.37332958641E+01  0.70184303434E+01  0.00000000000E+00 0.  1.
</event>
<event>
 7    1  0.5992960E-013  0.5052886E+02  0.7816164E-02  0.1300439E+00
        -11   -1    0    0    0    0  0.00000000000E+00  0.00000000000E+00  0.45593999997E+02  0.45594000000E+02  0.51100000000E-03 0. -1.
         11   -1    0    0    0    0 -0.00000000000E+00 -0.00000000000E+00 -0.45593999997E+02  0.45594000000E+02  0.51100000000E-03 0.  1.
    9900012    2    1    2    0    0  0.86564948329E+01 -0.39655431083E+02 -0.23828017016E+01  0.50528857595E+02  0.29999993146E+02 0.  0.
        -12    1    1    2    0    0 -0.86564948329E+01  0.39655431083E+02  0.23828017016E+01  0.40659142405E+02  0.00000000000E+00 0.  1.
         11    1    3    3    0    0  0.61076904447E+00 -0.65211925731E+01 -0.34390127280E+01  0.73976888422E+01  0.51100000000E-03 0. -1.
        -11    1    3    3    0    0 -0.55944737437E+01 -0.18332349267E+02 -0.83580190079E+01  0.20910037018E+02  0.51100000000E-03 0.  1.
         12    1    3    3    0    0  0.13640199532E+02 -0.14801889243E+02  0.94142300344E+01  0.22221131735E+02  0.00000000000E+00 0. -1.
</event>
<event>
 7    1  0.5992960E-013  0.5052890E+02  0.7816164E-02  0.1300439E+00
        -11   -1    0    0    0    0  0.00000000000E+00  0.00000000000E+00  0.45593999997E+02  0.45594000000E+02  0.51100000000E-03 0.  1.
         11   -1    0    0    0    0 -0.00000000000E+00 -0.00000000000E+00 -0.45593999997E+02  0.45594000000E+02  0.51100000000E-03 0. -1.
    9900012    2    1    2    0    0  0.36480702505E+02  0.16907225049E+02 -0.60387682949E+01  0.50528897248E+02  0.30000113674E+02 0.  0.
        -12    1    1    2    0    0 -0.36480702505E+02 -0.16907225049E+02  0.60387682949E+01  0.40659102752E+02  0.00000000000E+00 0.  1.
         11    1    3    3    0    0  0.19141258427E+02  0.54945947793E+01 -0.11587570388E+02  0.23040185193E+02  0.51100000000E-03 0. -1.
        -11    1    3    3    0    0  0.57173914399E+01  0.88360904271E+00 -0.57526312290E+01  0.81585596851E+01  0.51100000000E-03 0.  1.
        -12    1    3    3    0    0  0.11622052638E+02  0.10529021227E+02  0.11301433322E+02  0.19330152370E+02  0.00000000000E+00 0.  1.
</event>
<event>
 7    1  0.5992960E-013  0.5052886E+02  0.7816164E-02  0.1300439E+00
        -11   -1    0    0    0    0  0.00000000000E+00  0.00000000000E+00  0.45593999997E+02  0.45594000000E+02  0.51100000000E-03 0.  1.
         11   -1    0    0    0    0 -0.00000000000E+00 -0.00000000000E+00 -0.45593999997E+02  0.45594000000E+02  0.51100000000E-03 0. -1.
    9900012    2    1    2    0    0 -0.17349088453E+02  0.29841898771E+02 -0.21485708636E+02  0.50528862429E+02  0.30000007839E+02 0.  0.
        -12    1    1    2    0    0  0.17349088453E+02 -0.29841898771E+02  0.21485708636E+02  0.40659137571E+02  0.00000000000E+00 0.  1.
         11    1    3    3    0    0 -0.11855048554E+02  0.14808103150E+02 -0.17377998628E+02  0.25725802838E+02  0.51100000000E-03 0. -1.
        -11    1    3    3    0    0  0.61295561553E+01  0.18045722417E+01 -0.32579877384E+01  0.71723374155E+01  0.51100000000E-03 0.  1.
        -12    1    3    3    0    0 -0.11623596055E+02  0.13229223380E+02 -0.84972226975E+00  0.17630722175E+02  0.00000000000E+00 0.  1.
</event>
<event>
 7    1  0.5992960E-013  0.5052885E+02  0.7816164E-02  0.1300439E+00
        -11   -1    0    0    0    0  0.00000000000E+00  0.00000000000E+00  0.45593999997E+02  0.45594000000E+02  0.51100000000E-03 0. -1.
         11   -1    0    0    0    0 -0.00000000000E+00 -0.00000000000E+00 -0.45593999997E+02  0.45594000000E+02  0.51100000000E-03 0.  1.
    9900012    2    1    2    0    0 -0.26062267818E+02 -0.23952137909E+02  0.20005494980E+02  0.50528849202E+02  0.29999967634E+02 0.  0.
        -12    1    1    2    0    0  0.26062267818E+02  0.23952137909E+02 -0.20005494980E+02  0.40659150798E+02  0.00000000000E+00 0.  1.
         11    1    3    3    0    0 -0.13739647986E+02 -0.21210630788E+02  0.17321463195E+02  0.30638241997E+02  0.51100000000E-03 0. -1.
        -11    1    3    3    0    0 -0.30342617769E+01 -0.56827349207E+01  0.67523178908E+01  0.93324175790E+01  0.51100000000E-03 0.  1.
        -12    1    3    3    0    0 -0.92883580553E+01  0.29412277999E+01 -0.40682861058E+01  0.10558189626E+02  0.00000000000E+00 0.  1.
</event>
<event>
 7    1  0.5992960E-013  0.5052886E+02  0.7816164E-02  0.1300439E+00
        -11   -1    0    0    0    0  0.00000000000E+00  0.00000000000E+00  0.45593999997E+02  0.45594000000E+02  0.51100000000E-03 0.  1.
         11   -1    0    0    0    0 -0.00000000000E+00 -0.00000000000E+00 -0.45593999997E+02  0.45594000000E+02  0.51100000000E-03 0. -1.
    9900012    2    1    2    0    0 -0.22609731501E+02  0.29163867431E+02 -0.17071450102E+02  0.50528861659E+02  0.30000005498E+02 0.  0.
        -12    1    1    2    0    0  0.22609731501E+02 -0.29163867431E+02  0.17071450102E+02  0.40659138341E+02  0.00000000000E+00 0.  1.
         11    1    3    3    0    0 -0.10539193218E+02  0.27301212778E+02 -0.75897210073E+01  0.30233006434E+02  0.51100000000E-03 0. -1.
        -11    1    3    3    0    0 -0.90522987824E+01  0.29241962972E+01 -0.12626939366E+02  0.15809321151E+02  0.51100000000E-03 0.  1.
        -12    1    3    3    0    0 -0.30182395005E+01 -0.10615416437E+01  0.31452102717E+01  0.44865340740E+01  0.00000000000E+00 0.  1.
</event>
<event>
 7    1  0.5992960E-013  0.5052886E+02  0.7816164E-02  0.1300439E+00
        -11   -1    0    0    0    0  0.00000000000E+00  0.00000000000E+00  0.45593999997E+02  0.45594000000E+02  0.51100000000E-03 0.  1.
         11   -1    0    0    0    0 -0.00000000000E+00 -0.00000000000E+00 -0.45593999997E+02  0.45594000000E+02  0.51100000000E-03 0. -1.
    9900012    2    1    2    0    0  0.69946497825E+01 -0.28040284375E+02 -0.28600399435E+02  0.50528861774E+02  0.30000005849E+02 0.  0.
        -12    1    1    2    0    0 -0.69946497825E+01  0.28040284375E+02  0.28600399435E+02  0.40659138226E+02  0.00000000000E+00 0.  1.
         11    1    3    3    0    0  0.11722255427E+02 -0.10677113172E+02 -0.16682503621E+02  0.23015602215E+02  0.51100000000E-03 0. -1.
        -11    1    3    3    0    0  0.25047875012E+01 -0.13369256339E+02 -0.13429235552E+02  0.19114270670E+02  0.51100000000E-03 0.  1.
        -12    1    3    3    0    0 -0.72323931455E+01 -0.39939148635E+01  0.15113397381E+01  0.83989888886E+01  0.00000000000E+00 0.  1.
</event>
<event>
 7    1  0.5992960E-013  0.5052886E+02  0.7816164E-02  0.1300439E+00
        -11   -1    0    0    0    0  0.00000000000E+00  0.00000000000E+00  0.45593999997E+02  0.45594000000E+02  0.51100000000E-03 0.  1.
         11   -1    0    0    0    0 -0.00000000000E+00 -0.00000000000E+00 -0.45593999997E+02  0.45594000000E+02  0.51100000000E-03 0. -1.
    9900012    2    1    2    0    0 -0.18411412487E+02 -0.84215450983E+01 -0.35259937369E+02  0.50528859393E+02  0.29999998612E+02 0.  0.
        -12    1    1    2    0    0  0.18411412487E+02  0.84215450983E+01  0.35259937369E+02  0.40659140607E+02  0.00000000000E+00 0.  1.
         11    1    3    3    0    0 -0.12569609432E+02 -0.57782083977E+01 -0.27487852548E+02  0.30772793366E+02  0.51100000000E-03 0. -1.
        -11    1    3    3    0    0  0.50013986156E+01  0.11936286220E+01 -0.63433878248E+01  0.81656173531E+01  0.51100000000E-03 0.  1.
        -12    1    3    3    0    0 -0.10843201671E+02 -0.38369653226E+01 -0.14286969955E+01  0.11590448674E+02  0.00000000000E+00 0.  1.
</event>
<event>
 7    1  0.5992960E-013  0.5052884E+02  0.7816164E-02  0.1300439E+00
        -11   -1    0    0    0    0  0.00000000000E+00  0.00000000000E+00  0.45593999997E+02  0.45594000000E+02  0.51100000000E-03 0. -1.
         11   -1    0    0    0    0 -0.00000000000E+00 -0.00000000000E+00 -0.45593999997E+02  0.45594000000E+02  0.51100000000E-03 0.  1.
    9900012    2    1    2    0    0 -0.36362678056E+02 -0.16925278063E+02  0.66676558212E+01  0.50528843256E+02  0.29999949562E+02 0.  0.
        -12    1    1    2    0    0  0.36362678056E+02  0.16925278063E+02 -0.66676558212E+01  0.40659156744E+02  0.00000000000E+00 0.  1.
         11    1    3    3    0    0 -0.39512505139E+01  0.18644110180E+01 -0.65865585892E+00  0.44183975454E+01  0.51100000000E-03 0. -1.
        -11    1    3    3    0    0  0.33724741989E+01 -0.43376488285E+01 -0.28634045337E+01  0.61957941675E+01  0.51100000000E-03 0.  1.
         12    1    3    3    0    0 -0.35783901741E+02 -0.14452040253E+02  0.10189716214E+02  0.39914651543E+02  0.00000000000E+00 0. -1.
</event>
<event>
 7    1  0.5992960E-013  0.5052886E+02  0.7816164E-02  0.1300439E+00
        -11   -1    0    0    0    0  0.00000000000E+00  0.00000000000E+00  0.45593999997E+02  0.45594000000E+02  0.51100000000E-03 0. -1.
         11   -1    0    0    0    0 -0.00000000000E+00 -0.00000000000E+00 -0.45593999997E+02  0.45594000000E+02  0.51100000000E-03 0.  1.
    9900012    2    1    2    0    0  0.15943412454E+02 -0.22265995823E+02  0.30053262701E+02  0.50528861179E+02  0.30000004041E+02 0.  0.
        -12    1    1    2    0    0 -0.15943412454E+02  0.22265995823E+02 -0.30053262701E+02  0.40659138821E+02  0.00000000000E+00 0.  1.
         11    1    3    3    0    0  0.13055651891E+01 -0.15048110937E+02  0.11506022125E+02  0.18987856347E+02  0.51100000000E-03 0. -1.
        -11    1    3    3    0    0 -0.26649177880E+01 -0.62963038544E+01  0.10520689039E+01  0.69175196627E+01  0.51100000000E-03 0.  1.
        -12    1    3    3    0    0  0.17302765053E+02 -0.92158103078E+00  0.17495171672E+02  0.24623485170E+02  0.00000000000E+00 0.  1.
</event>
<event>
 7    1  0.5992960E-013  0.5052886E+02  0.7816164E-02  0.1300439E+00
        -11   -1    0    0    0    0  0.00000000000E+00  0.00000000000E+00  0.45593999997E+02  0.45594000000E+02  0.51100000000E-03 0.  1.
         11   -1    0    0    0    0 -0.00000000000E+00 -0.00000000000E+00 -0.45593999997E+02  0.45594000000E+02  0.51100000000E-03 0. -1.
    9900012    2    1    2    0    0 -0.15612535930E+02 -0.54797611138E+01 -0.37140090487E+02  0.50528863494E+02  0.30000011076E+02 0.  0.
        -12    1    1    2    0    0  0.15612535930E+02  0.54797611138E+01  0.37140090487E+02  0.40659136506E+02  0.00000000000E+00 0.  1.
         11    1    3    3    0    0 -0.62892972993E+01 -0.94152964881E+01 -0.10269424245E+02  0.15286076772E+02  0.51100000000E-03 0. -1.
        -11    1    3    3    0    0 -0.15170514607E+02 -0.65212298439E+00 -0.15845770818E+02  0.21946713442E+02  0.51100000000E-03 0.  1.
         12    1    3    3    0    0  0.58472759764E+01  0.45876583588E+01 -0.11024895424E+02  0.13296073280E+02  0.00000000000E+00 0. -1.
</event>
<event>
 7    1  0.5992960E-013  0.5052886E+02  0.7816164E-02  0.1300439E+00
        -11   -1    0    0    0    0  0.00000000000E+00  0.00000000000E+00  0.45593999997E+02  0.45594000000E+02  0.51100000000E-03 0.  1.
         11   -1    0    0    0    0 -0.00000000000E+00 -0.00000000000E+00 -0.45593999997E+02  0.45594000000E+02  0.51100000000E-03 0. -1.
    9900012    2    1    2    0    0  0.17534220931E+02  0.28226202972E+02 -0.23430703029E+02  0.50528864712E+02  0.30000014779E+02 0.  0.
        -12    1    1    2    0    0 -0.17534220931E+02 -0.28226202972E+02  0.23430703029E+02  0.40659135288E+02  0.00000000000E+00 0.  1.
         11    1    3    3    0    0  0.78040306345E+01  0.11518572741E+02 -0.23123745943E+02  0.26986812313E+02  0.51100000000E-03 0. -1.
        -11    1    3    3    0    0  0.11486027406E+01  0.46048151348E+01 -0.60006197341E+01  0.76505586813E+01  0.51100000000E-03 0.  1.
        -12    1    3    3    0    0  0.85815875561E+01  0.12102815097E+02  0.56936626475E+01  0.15891493718E+02  0.00000000000E+00 0.  1.
</event>
<event>
 7    1  0.5992960E-013  0.5052886E+02  0.7816164E-02  0.1300439E+00
        -11   -1    0    0    0    0  0.00000000000E+00  0.00000000000E+00  0.45593999997E+02  0.45594000000E+02  0.51100000000E-03 0.  1.
         11   -1    0    0    0    0 -0.00000000000E+00 -0.00000000000E+00 -0.45593999997E+02  0.45594000000E+02  0.51100000000E-03 0. -1.
    9900012    2    1    2    0    0  0.32656006250E+02  0.13471078913E+02 -0.20131598365E+02  0.50528856329E+02  0.29999989298E+02 0.  0.
        -12    1    1    2    0    0 -0.32656006250E+02 -0.13471078913E+02  0.20131598365E+02  0.40659143671E+02  0.00000000000E+00 0.  1.
         11    1    3    3    0    0  0.99158547618E+01  0.69488026934E+01  0.20193990970E+01  0.12275504369E+02  0.51100000000E-03 0.  1.
        -11    1    3    3    0    0  0.13207698326E+02  0.96147820331E+00 -0.23660902125E+02  0.27114682832E+02  0.51100000000E-03 0. -1.
         12    1    3    3    0    0  0.95324531623E+01  0.55607980164E+01  0.15099046634E+01  0.11138669129E+02  0.00000000000E+00 0. -1.
</event>
<event>
 7    1  0.5992960E-013  0.5052886E+02  0.7816164E-02  0.1300439E+00
        -11   -1    0    0    0    0  0.00000000000E+00  0.00000000000E+00  0.45593999997E+02  0.45594000000E+02  0.51100000000E-03 0.  1.
         11   -1    0    0    0    0 -0.00000000000E+00 -0.00000000000E+00 -0.45593999997E+02  0.45594000000E+02  0.51100000000E-03 0. -1.
    9900012    2    1    2    0    0 -0.33626000328E+02  0.13459670111E+02 -0.18474167522E+02  0.50528862243E+02  0.30000007273E+02 0.  0.
        -12    1    1    2    0    0  0.33626000328E+02 -0.13459670111E+02  0.18474167522E+02  0.40659137757E+02  0.00000000000E+00 0.  1.
         11    1    3    3    0    0 -0.48356927988E+01  0.36315137882E+01  0.34666619420E+01  0.69706213868E+01  0.51100000000E-03 0. -1.
        -11    1    3    3    0    0 -0.69133964855E+01  0.75415481687E+01  0.26467807933E+01  0.10567660506E+02  0.51100000000E-03 0.  1.
         12    1    3    3    0    0 -0.21876911044E+02  0.22866081539E+01 -0.24587610257E+02  0.32990580350E+02  0.00000000000E+00 0. -1.
</event>
<event>
 7    1  0.5992960E-013  0.5052885E+02  0.7816164E-02  0.1300439E+00
        -11   -1    0    0    0    0  0.00000000000E+00  0.00000000000E+00  0.45593999997E+02  0.45594000000E+02  0.51100000000E-03 0. -1.
         11   -1    0    0    0    0 -0.00000000000E+00 -0.00000000000E+00 -0.45593999997E+02  0.45594000000E+02  0.51100000000E-03 0.  1.
    9900012    2    1    2    0    0 -0.11588161884E+02  0.36625709622E+02 -0.13320589553E+02  0.50528853339E+02  0.29999980209E+02 0.  0.
        -12    1    1    2    0    0  0.11588161884E+02 -0.36625709622E+02  0.13320589553E+02  0.40659146661E+02  0.00000000000E+00 0.  1.
         11    1    3    3    0    0 -0.74221131984E+01  0.73771601259E+01 -0.83249096595E+01  0.13372149302E+02  0.51100000000E-03 0.  1.
        -11    1    3    3    0    0 -0.89384131618E+01  0.26798138818E+02 -0.98542398393E+01  0.29918915706E+02  0.51100000000E-03 0. -1.
         12    1    3    3    0    0  0.47723644761E+01  0.24504106780E+01  0.48585599454E+01  0.72377883312E+01  0.00000000000E+00 0. -1.
</event>
<event>
 7    1  0.5992960E-013  0.5052886E+02  0.7816164E-02  0.1300439E+00
        -11   -1    0    0    0    0  0.00000000000E+00  0.00000000000E+00  0.45593999997E+02  0.45594000000E+02  0.51100000000E-03 0.  1.
         11   -1    0    0    0    0 -0.00000000000E+00 -0.00000000000E+00 -0.45593999997E+02  0.45594000000E+02  0.51100000000E-03 0. -1.
    9900012    2    1    2    0    0 -0.31712419458E+02  0.35359247398E+01 -0.25198914962E+02  0.50528860475E+02  0.30000001898E+02 0.  0.
        -12    1    1    2    0    0  0.31712419458E+02 -0.35359247398E+01  0.25198914962E+02  0.40659139525E+02  0.00000000000E+00 0.  1.
         11    1    3    3    0    0 -0.13080453959E+02  0.64534800303E+01 -0.61484115811E+01  0.15828728486E+02  0.51100000000E-03 0. -1.
        -11    1    3    3    0    0 -0.19506028230E+02  0.30883459332E+01 -0.65545840654E+01  0.20808305805E+02  0.51100000000E-03 0.  1.
        -12    1    3    3    0    0  0.87406273041E+00 -0.60059012238E+01 -0.12495919316E+02  0.13891826184E+02  0.00000000000E+00 0.  1.
</event>
<event>
 7    1  0.5992960E-013  0.5052886E+02  0.7816164E-02  0.1300439E+00
        -11   -1    0    0    0    0  0.00000000000E+00  0.00000000000E+00  0.45593999997E+02  0.45594000000E+02  0.51100000000E-03 0.  1.
         11   -1    0    0    0    0 -0.00000000000E+00 -0.00000000000E+00 -0.45593999997E+02  0.45594000000E+02  0.51100000000E-03 0. -1.
    9900012    2    1    2    0    0 -0.35913649409E+02 -0.76738716987E+01 -0.17449556031E+02  0.50528861711E+02  0.30000005658E+02 0.  0.
        -12    1    1    2    0    0  0.35913649409E+02  0.76738716987E+01  0.17449556031E+02  0.40659138289E+02  0.00000000000E+00 0.  1.
         11    1    3    3    0    0  0.10228273073E+01  0.27255721223E+01 -0.11302732902E+01  0.31228892178E+01  0.51100000000E-03 0. -1.
        -11    1    3    3    0    0 -0.89724026189E+01  0.61104782504E+01 -0.90384048804E+01  0.14125675780E+02  0.51100000000E-03 0.  1.
         12    1    3    3    0    0 -0.27964074097E+02 -0.16509922071E+02 -0.72808778603E+01  0.33280296713E+02  0.00000000000E+00 0. -1.
</event>
<event>
 7    1  0.5992960E-013  0.5052887E+02  0.7816164E-02  0.1300439E+00
        -11   -1    0    0    0    0  0.00000000000E+00  0.00000000000E+00  0.45593999997E+02  0.45594000000E+02  0.51100000000E-03 0.  1.
         11   -1    0    0    0    0 -0.00000000000E+00 -0.00000000000E+00 -0.45593999997E+02  0.45594000000E+02  0.51100000000E-03 0. -1.
    9900012    2    1    2    0    0  0.31274224864E+02 -0.20499859781E+02 -0.15963820719E+02  0.50528868629E+02  0.30000026684E+02 0.  0.
        -12    1    1    2    0    0 -0.31274224864E+02  0.20499859781E+02  0.15963820719E+02  0.40659131371E+02  0.00000000000E+00 0.  1.
         11    1    3    3    0    0  0.65793932062E+01 -0.93472343324E+01 -0.81334167063E+01  0.14028958344E+02  0.51100000000E-03 0.  1.
        -11    1    3    3    0    0  0.22171158344E+02 -0.12511955257E+02 -0.14459403628E+02  0.29277698684E+02  0.51100000000E-03 0. -1.
        -12    1    3    3    0    0  0.25236733137E+01  0.13593298080E+01  0.66289996149E+01  0.72222116014E+01  0.00000000000E+00 0.  1.
</event>
<event>
 7    1  0.5992960E-013  0.5052885E+02  0.7816164E-02  0.1300439E+00
        -11   -1    0    0    0    0  0.00000000000E+00  0.00000000000E+00  0.45593999997E+02  0.45594000000E+02  0.51100000000E-03 0.  1.
         11   -1    0    0    0    0 -0.00000000000E+00 -0.00000000000E+00 -0.45593999997E+02  0.45594000000E+02  0.51100000000E-03 0. -1.
    9900012    2    1    2    0    0  0.73311988359E+00  0.35785678229E+02 -0.19287679946E+02  0.50528845695E+02  0.29999956975E+02 0.  0.
        -12    1    1    2    0    0 -0.73311988359E+00 -0.35785678229E+02  0.19287679946E+02  0.40659154305E+02  0.00000000000E+00 0.  1.
         11    1    3    3    0    0 -0.14428220158E+01 -0.19644575287E+00 -0.72919332326E+01  0.74359005395E+01  0.51100000000E-03 0. -1.
        -11    1    3    3    0    0  0.14812546950E+01  0.23126865411E+01 -0.88539366934E+01  0.92701040847E+01  0.51100000000E-03 0.  1.
        -12    1    3    3    0    0  0.69468720442E+00  0.33669437441E+02 -0.31418100195E+01  0.33822841071E+02  0.00000000000E+00 0.  1.
</event>
<event>
 7    1  0.5992960E-013  0.5052890E+02  0.7816164E-02  0.1300439E+00
        -11   -1    0    0    0    0  0.00000000000E+00  0.00000000000E+00  0.45593999997E+02  0.45594000000E+02  0.51100000000E-03 0.  1.
         11   -1    0    0    0    0 -0.00000000000E+00 -0.00000000000E+00 -0.45593999997E+02  0.45594000000E+02  0.51100000000E-03 0. -1.
    9900012    2    1    2    0    0 -0.42369118764E+01  0.40343536703E+02 -0.27587032054E+01  0.50528895000E+02  0.30000106843E+02 0.  0.
        -12    1    1    2    0    0  0.42369118764E+01 -0.40343536703E+02  0.27587032054E+01  0.40659105000E+02  0.00000000000E+00 0.  1.
         11    1    3    3    0    0  0.23295781097E+00  0.21098415398E+02  0.29953903107E+00  0.21101827540E+02  0.51100000000E-03 0. -1.
        -11    1    3    3    0    0 -0.15496016291E+01  0.27936121263E+01  0.85197595684E+01  0.90990019940E+01  0.51100000000E-03 0.  1.
         12    1    3    3    0    0 -0.29202680583E+01  0.16451509180E+02 -0.11578001805E+02  0.20328065467E+02  0.00000000000E+00 0. -1.
</event>
<event>
 7    1  0.5992960E-013  0.5052885E+02  0.7816164E-02  0.1300439E+00
        -11   -1    0    0    0    0  0.00000000000E+00  0.00000000000E+00  0.45593999997E+02  0.45594000000E+02  0.51100000000E-03 0.  1.
         11   -1    0    0    0    0 -0.00000000000E+00 -0.00000000000E+00 -0.45593999997E+02  0.45594000000E+02  0.51100000000E-03 0. -1.
    9900012    2    1    2    0    0 -0.10275044638E+02  0.39074263377E+02 -0.45597693550E+01  0.50528854690E+02  0.29999984316E+02 0.  0.
        -12    1    1    2    0    0  0.10275044638E+02 -0.39074263377E+02  0.45597693550E+01  0.40659145310E+02  0.00000000000E+00 0.  1.
         11    1    3    3    0    0 -0.11854468916E+02  0.25032070187E+02  0.16185852694E+01  0.27744419073E+02  0.51100000000E-03 0. -1.
        -11    1    3    3    0    0 -0.17330965467E+01  0.12777854030E+02  0.27438497514E+01  0.13183546146E+02  0.51100000000E-03 0.  1.
         12    1    3    3    0    0  0.33125208251E+01  0.12643391596E+01 -0.89222043758E+01  0.96008894718E+01  0.00000000000E+00 0. -1.
</event>
<event>
 7    1  0.5992960E-013  0.5052886E+02  0.7816164E-02  0.1300439E+00
        -11   -1    0    0    0    0  0.00000000000E+00  0.00000000000E+00  0.45593999997E+02  0.45594000000E+02  0.51100000000E-03 0.  1.
         11   -1    0    0    0    0 -0.00000000000E+00 -0.00000000000E+00 -0.45593999997E+02  0.45594000000E+02  0.51100000000E-03 0. -1.
    9900012    2    1    2    0    0 -0.50071586194E+01 -0.24234274189E+02 -0.32261335567E+02  0.50528862583E+02  0.30000008308E+02 0.  0.
        -12    1    1    2    0    0  0.50071586194E+01  0.24234274189E+02  0.32261335567E+02  0.40659137417E+02  0.00000000000E+00 0.  1.
         11    1    3    3    0    0 -0.16161653798E+01  0.34473566690E+01  0.47472112683E+00  0.38368761965E+01  0.51100000000E-03 0. -1.
        -11    1    3    3    0    0 -0.35083452835E+01 -0.26705093629E+02 -0.19097356243E+02  0.33017866801E+02  0.51100000000E-03 0.  1.
         12    1    3    3    0    0  0.11735204388E+00 -0.97653722899E+00 -0.13638700451E+02  0.13674119586E+02  0.00000000000E+00 0. -1.
</event>
<event>
 7    1  0.5992960E-013  0.5052886E+02  0.7816164E-02  0.1300439E+00
        -11   -1    0    0    0    0  0.00000000000E+00  0.00000000000E+00  0.45593999997E+02  0.45594000000E+02  0.51100000000E-03 0.  1.
         11   -1    0    0    0    0 -0.00000000000E+00 -0.00000000000E+00 -0.45593999997E+02  0.45594000000E+02  0.51100000000E-03 0. -1.
    9900012    2    1    2    0    0 -0.37566565960E+02  0.11747278649E+01 -0.15509309383E+02  0.50528861529E+02  0.30000005105E+02 0.  0.
        -12    1    1    2    0    0  0.37566565960E+02 -0.11747278649E+01  0.15509309383E+02  0.40659138471E+02  0.00000000000E+00 0.  1.
         11    1    3    3    0    0 -0.92321476672E+01 -0.24446657080E+01  0.25749935424E+01  0.98913868076E+01  0.51100000000E-03 0. -1.
        -11    1    3    3    0    0 -0.11121443551E+02  0.84002689700E+01  0.16307367972E+01  0.14032474058E+02  0.51100000000E-03 0.  1.
         12    1    3    3    0    0 -0.17212974742E+02 -0.47808753972E+01 -0.19715039723E+02  0.26605000664E+02  0.00000000000E+00 0. -1.
</event>
<event>
 7    1  0.5992960E-013  0.5052887E+02  0.7816164E-02  0.1300439E+00
        -11   -1    0    0    0    0  0.00000000000E+00  0.00000000000E+00  0.45593999997E+02  0.45594000000E+02  0.51100000000E-03 0.  1.
         11   -1    0    0    0    0 -0.00000000000E+00 -0.00000000000E+00 -0.45593999997E+02  0.45594000000E+02  0.51100000000E-03 0. -1.
    9900012    2    1    2    0    0  0.33931123234E+02 -0.98969073659E+00 -0.22379990824E+02  0.50528873091E+02  0.30000040248E+02 0.  0.
        -12    1    1    2    0    0 -0.33931123234E+02  0.98969073659E+00  0.22379990824E+02  0.40659126909E+02  0.00000000000E+00 0.  1.
         11    1    3    3    0    0  0.10297943693E+02  0.41539996624E+01 -0.94791171334E+01  0.14599897924E+02  0.51100000000E-03 0. -1.
        -11    1    3    3    0    0  0.22163259499E+02 -0.34074215949E+01 -0.19018039324E+02  0.29402489921E+02  0.51100000000E-03 0.  1.
        -12    1    3    3    0    0  0.14699200423E+01 -0.17362688041E+01  0.61171656331E+01  0.65264852465E+01  0.00000000000E+00 0.  1.
</event>
<event>
 7    1  0.5992960E-013  0.5052886E+02  0.7816164E-02  0.1300439E+00
        -11   -1    0    0    0    0  0.00000000000E+00  0.00000000000E+00  0.45593999997E+02  0.45594000000E+02  0.51100000000E-03 0.  1.
         11   -1    0    0    0    0 -0.00000000000E+00 -0.00000000000E+00 -0.45593999997E+02  0.45594000000E+02  0.51100000000E-03 0. -1.
    9900012    2    1    2    0    0 -0.11418591093E+02 -0.35511629966E+02 -0.16177304537E+02  0.50528864896E+02  0.30000015337E+02 0.  0.
        -12    1    1    2    0    0  0.11418591093E+02  0.35511629966E+02  0.16177304537E+02  0.40659135104E+02  0.00000000000E+00 0.  1.
         11    1    3    3    0    0 -0.15118449420E+01  0.16703802615E+01 -0.76819340542E+01  0.80054953889E+01  0.51100000000E-03 0. -1.
        -11    1    3    3    0    0 -0.87415500091E+01 -0.11103301339E+02  0.22204487321E+01  0.14304837993E+02  0.51100000000E-03 0.  1.
         12    1    3    3    0    0 -0.11651961421E+01 -0.26078708888E+02 -0.10715819215E+02  0.28218531514E+02  0.00000000000E+00 0. -1.
</event>
<event>
 7    1  0.5992960E-013  0.5052886E+02  0.7816164E-02  0.1300439E+00
        -11   -1    0    0    0    0  0.00000000000E+00  0.00000000000E+00  0.45593999997E+02  0.45594000000E+02  0.51100000000E-03 0.  1.
         11   -1    0    0    0    0 -0.00000000000E+00 -0.00000000000E+00 -0.45593999997E+02  0.45594000000E+02  0.51100000000E-03 0. -1.
    9900012    2    1    2    0    0  0.40381200505E+02 -0.33572933621E+01  0.33545273754E+01  0.50528860475E+02  0.30000001901E+02 0.  0.
        -12    1    1    2    0    0 -0.40381200505E+02  0.33572933621E+01 -0.33545273754E+01  0.40659139525E+02  0.00000000000E+00 0.  1.
         11    1    3    3    0    0  0.20457278713E+02 -0.88449869890E+00 -0.49005368494E+01  0.21054639678E+02  0.51100000000E-03 0. -1.
        -11    1    3    3    0    0  0.77501350034E+00 -0.71153955798E+01 -0.17609820993E+01  0.73709265630E+01  0.51100000000E-03 0.  1.
        -12    1    3    3    0    0  0.19148908292E+02  0.46426009165E+01  0.10016046324E+02  0.22103294234E+02  0.00000000000E+00 0.  1.
</event>
<event>
 7    1  0.5992960E-013  0.5052886E+02  0.7816164E-02  0.1300439E+00
        -11   -1    0    0    0    0  0.00000000000E+00  0.00000000000E+00  0.45593999997E+02  0.45594000000E+02  0.51100000000E-03 0.  1.
         11   -1    0    0    0    0 -0.00000000000E+00 -0.00000000000E+00 -0.45593999997E+02  0.45594000000E+02  0.51100000000E-03 0. -1.
    9900012    2    1    2    0    0  0.21216614951E+02  0.32205355789E+02  0.12877729333E+02  0.50528860753E+02  0.30000002746E+02 0.  0.
        -12    1    1    2    0    0 -0.21216614951E+02 -0.32205355789E+02 -0.12877729333E+02  0.40659139247E+02  0.00000000000E+00 0.  1.
         11    1    3    3    0    0 -0.12107922482E+01 -0.12803070153E+01 -0.19729192549E+01  0.26453004686E+01  0.51100000000E-03 0. -1.
        -11    1    3    3    0    0  0.64871845291E+01 -0.63561987714E+00 -0.17152196731E+01  0.67401449933E+01  0.51100000000E-03 0.  1.
         12    1    3    3    0    0  0.15940222671E+02  0.34121282682E+02  0.16565868261E+02  0.41143415292E+02  0.00000000000E+00 0. -1.
</event>
<event>
 7    1  0.5992960E-013  0.5052885E+02  0.7816164E-02  0.1300439E+00
        -11   -1    0    0    0    0  0.00000000000E+00  0.00000000000E+00  0.45593999997E+02  0.45594000000E+02  0.51100000000E-03 0.  1.
         11   -1    0    0    0    0 -0.00000000000E+00 -0.00000000000E+00 -0.45593999997E+02  0.45594000000E+02  0.51100000000E-03 0. -1.
    9900012    2    1    2    0    0  0.81812740796E+01 -0.39045676911E+02 -0.78529077533E+01  0.50528852307E+02  0.29999977071E+02 0.  0.
        -12    1    1    2    0    0 -0.81812740796E+01  0.39045676911E+02  0.78529077533E+01  0.40659147693E+02  0.00000000000E+00 0.  1.
         11    1    3    3    0    0  0.64227574070E+01 -0.51648000206E+01 -0.56808735476E+01  0.10009959864E+02  0.51100000000E-03 0. -1.
        -11    1    3    3    0    0  0.55623666785E+01 -0.62014299351E+01  0.72395623771E+01  0.11036707842E+02  0.51100000000E-03 0.  1.
        -12    1    3    3    0    0 -0.38038500059E+01 -0.27679446955E+02 -0.94115965828E+01  0.29482184601E+02  0.00000000000E+00 0.  1.
</event>
<event>
 7    1  0.5992960E-013  0.5052887E+02  0.7816164E-02  0.1300439E+00
        -11   -1    0    0    0    0  0.00000000000E+00  0.00000000000E+00  0.45593999997E+02  0.45594000000E+02  0.51100000000E-03 0.  1.
         11   -1    0    0    0    0 -0.00000000000E+00 -0.00000000000E+00 -0.45593999997E+02  0.45594000000E+02  0.51100000000E-03 0. -1.
    9900012    2    1    2    0    0 -0.27324565874E+02 -0.25712726090E+02 -0.15664896267E+02  0.50528866239E+02  0.30000019420E+02 0.  0.
        -12    1    1    2    0    0  0.27324565874E+02  0.25712726090E+02  0.15664896267E+02  0.40659133761E+02  0.00000000000E+00 0.  1.
         11    1    3    3    0    0 -0.27735222942E+01  0.24525926042E+01  0.51566220175E+00  0.37381204055E+01  0.51100000000E-03 0. -1.
        -11    1    3    3    0    0 -0.26241309060E+02 -0.14212380087E+02 -0.10632570338E+02  0.31680429309E+02  0.51100000000E-03 0.  1.
        -12    1    3    3    0    0  0.16902654811E+01 -0.13952938607E+02 -0.55479881308E+01  0.15110316525E+02  0.00000000000E+00 0.  1.
</event>
<event>
 7    1  0.5992960E-013  0.5052885E+02  0.7816164E-02  0.1300439E+00
        -11   -1    0    0    0    0  0.00000000000E+00  0.00000000000E+00  0.45593999997E+02  0.45594000000E+02  0.51100000000E-03 0. -1.
         11   -1    0    0    0    0 -0.00000000000E+00 -0.00000000000E+00 -0.45593999997E+02  0.45594000000E+02  0.51100000000E-03 0.  1.
    9900012    2    1    2    0    0 -0.39636663897E+02  0.89423614446E+01  0.14612621307E+01  0.50528852934E+02  0.29999978979E+02 0.  0.
        -12    1    1    2    0    0  0.39636663897E+02 -0.89423614446E+01 -0.14612621307E+01  0.40659147066E+02  0.00000000000E+00 0.  1.
         11    1    3    3    0    0  0.83733516152E+00  0.48679470228E+01  0.41564344471E+01  0.64555391691E+01  0.51100000000E-03 0. -1.
        -11    1    3    3    0    0 -0.20185237918E+02 -0.62465110864E+01 -0.27677996886E+01  0.21310172358E+02  0.51100000000E-03 0.  1.
         12    1    3    3    0    0 -0.20288761141E+02  0.10320925508E+02  0.72627372214E-01  0.22763141407E+02  0.00000000000E+00 0. -1.
</event>
<event>
 7    1  0.5992960E-013  0.5052886E+02  0.7816164E-02  0.1300439E+00
        -11   -1    0    0    0    0  0.00000000000E+00  0.00000000000E+00  0.45593999997E+02  0.45594000000E+02  0.51100000000E-03 0.  1.
         11   -1    0    0    0    0 -0.00000000000E+00 -0.00000000000E+00 -0.45593999997E+02  0.45594000000E+02  0.51100000000E-03 0. -1.
    9900012    2    1    2    0    0  0.84583869581E+01 -0.31335484501E+02 -0.24488952450E+02  0.50528859687E+02  0.29999999506E+02 0.  0.
        -12    1    1    2    0    0 -0.84583869581E+01  0.31335484501E+02  0.24488952450E+02  0.40659140313E+02  0.00000000000E+00 0.  1.
         11    1    3    3    0    0  0.11250789348E+01 -0.32318012240E+02 -0.18460402751E+02  0.37235818612E+02  0.51100000000E-03 0. -1.
        -11    1    3    3    0    0  0.47516477436E+01 -0.12974246331E+01 -0.79476255345E+01  0.93501988671E+01  0.51100000000E-03 0.  1.
        -12    1    3    3    0    0  0.25816602798E+01  0.22799523714E+01  0.19190758353E+01  0.39428422081E+01  0.00000000000E+00 0.  1.
</event>
<event>
 7    1  0.5992960E-013  0.5052888E+02  0.7816164E-02  0.1300439E+00
        -11   -1    0    0    0    0  0.00000000000E+00  0.00000000000E+00  0.45593999997E+02  0.45594000000E+02  0.51100000000E-03 0.  1.
         11   -1    0    0    0    0 -0.00000000000E+00 -0.00000000000E+00 -0.45593999997E+02  0.45594000000E+02  0.51100000000E-03 0. -1.
    9900012    2    1    2    0    0 -0.90021974033E+01  0.39545853702E+02 -0.28723237134E+01  0.50528876219E+02  0.30000049756E+02 0.  0.
        -12    1    1    2    0    0  0.90021974033E+01 -0.39545853702E+02  0.28723237134E+01  0.40659123781E+02  0.00000000000E+00 0.  1.
         11    1    3    3    0    0 -0.76971909190E+01  0.20867613270E+02 -0.11445211311E+02  0.25013933993E+02  0.51100000000E-03 0. -1.
        -11    1    3    3    0    0 -0.79644372619E+01  0.12162060290E+02  0.67180246477E+01  0.16014987569E+02  0.51100000000E-03 0.  1.
         12    1    3    3    0    0  0.66594307776E+01  0.65161801419E+01  0.18548629496E+01  0.94999546570E+01  0.00000000000E+00 0. -1.
</event>
<event>
 7    1  0.5992960E-013  0.5052885E+02  0.7816164E-02  0.1300439E+00
        -11   -1    0    0    0    0  0.00000000000E+00  0.00000000000E+00  0.45593999997E+02  0.45594000000E+02  0.51100000000E-03 0.  1.
         11   -1    0    0    0    0 -0.00000000000E+00 -0.00000000000E+00 -0.45593999997E+02  0.45594000000E+02  0.51100000000E-03 0. -1.
    9900012    2    1    2    0    0 -0.21533063259E+02  0.32657882857E+02  0.11088561290E+02  0.50528851983E+02  0.29999976086E+02 0.  0.
        -12    1    1    2    0    0  0.21533063259E+02 -0.32657882857E+02 -0.11088561290E+02  0.40659148017E+02  0.00000000000E+00 0.  1.
         11    1    3    3    0    0  0.24042393073E+01  0.34130514571E+01 -0.45300566279E+01  0.61604139641E+01  0.51100000000E-03 0. -1.
        -11    1    3    3    0    0 -0.70460924823E+01  0.44470912511E+01  0.11323355945E+02  0.14058535841E+02  0.51100000000E-03 0.  1.
         12    1    3    3    0    0 -0.16891210084E+02  0.24797740149E+02  0.42952619722E+01  0.30309902178E+02  0.00000000000E+00 0. -1.
</event>
<event>
 7    1  0.5992960E-013  0.5052886E+02  0.7816164E-02  0.1300439E+00
        -11   -1    0    0    0    0  0.00000000000E+00  0.00000000000E+00  0.45593999997E+02  0.45594000000E+02  0.51100000000E-03 0.  1.
         11   -1    0    0    0    0 -0.00000000000E+00 -0.00000000000E+00 -0.45593999997E+02  0.45594000000E+02  0.51100000000E-03 0. -1.
    9900012    2    1    2    0    0  0.14270418704E+02  0.33178541183E+02 -0.18673645665E+02  0.50528862190E+02  0.30000007114E+02 0.  0.
        -12    1    1    2    0    0 -0.14270418704E+02 -0.33178541183E+02  0.18673645665E+02  0.40659137810E+02  0.00000000000E+00 0.  1.
         11    1    3    3    0    0  0.70437583409E+01  0.25245710073E+02 -0.14402894193E+02  0.29906584059E+02  0.51100000000E-03 0. -1.
        -11    1    3    3    0    0  0.83157042055E+01  0.95202123353E+01 -0.89993248052E+01  0.15516869096E+02  0.51100000000E-03 0.  1.
        -12    1    3    3    0    0 -0.10890438428E+01 -0.15873812252E+01  0.47285733338E+01  0.51054090354E+01  0.00000000000E+00 0.  1.
</event>
<event>
 7    1  0.5992960E-013  0.5052886E+02  0.7816164E-02  0.1300439E+00
        -11   -1    0    0    0    0  0.00000000000E+00  0.00000000000E+00  0.45593999997E+02  0.45594000000E+02  0.51100000000E-03 0.  1.
         11   -1    0    0    0    0 -0.00000000000E+00 -0.00000000000E+00 -0.45593999997E+02  0.45594000000E+02  0.51100000000E-03 0. -1.
    9900012    2    1    2    0    0  0.22696401887E+02 -0.27179831015E+02 -0.19982392182E+02  0.50528857487E+02  0.29999992816E+02 0.  0.
        -12    1    1    2    0    0 -0.22696401887E+02  0.27179831015E+02  0.19982392182E+02  0.40659142513E+02  0.00000000000E+00 0.  1.
         11    1    3    3    0    0  0.89964169226E+01 -0.13471065542E+02 -0.63608701544E+01  0.17403039782E+02  0.51100000000E-03 0. -1.
        -11    1    3    3    0    0 -0.47464593477E+01 -0.55347344446E+01  0.20547669809E+01  0.75752379051E+01  0.51100000000E-03 0.  1.
         12    1    3    3    0    0  0.18446444312E+02 -0.81740310285E+01 -0.15676289008E+02  0.25550579799E+02  0.00000000000E+00 0. -1.
</event>
<event>
 7    1  0.5992960E-013  0.5052887E+02  0.7816164E-02  0.1300439E+00
        -11   -1    0    0    0    0  0.00000000000E+00  0.00000000000E+00  0.45593999997E+02  0.45594000000E+02  0.51100000000E-03 0. -1.
         11   -1    0    0    0    0 -0.00000000000E+00 -0.00000000000E+00 -0.45593999997E+02  0.45594000000E+02  0.51100000000E-03 0.  1.
    9900012    2    1    2    0    0  0.14126552012E+02 -0.37514927414E+02  0.67996845024E+01  0.50528868677E+02  0.30000026831E+02 0.  0.
        -12    1    1    2    0    0 -0.14126552012E+02  0.37514927414E+02 -0.67996845024E+01  0.40659131323E+02  0.00000000000E+00 0.  1.
         11    1    3    3    0    0  0.11703327268E+02 -0.13936195590E+02  0.26057366632E+01  0.18384104017E+02  0.51100000000E-03 0. -1.
        -11    1    3    3    0    0  0.10635940365E+02 -0.87874154539E+01 -0.23683777047E+01  0.13998253856E+02  0.51100000000E-03 0.  1.
        -12    1    3    3    0    0 -0.82127156218E+01 -0.14791316369E+02  0.65623255439E+01  0.18146510804E+02  0.00000000000E+00 0.  1.
</event>
<event>
 7    1  0.5992960E-013  0.5052886E+02  0.7816164E-02  0.1300439E+00
        -11   -1    0    0    0    0  0.00000000000E+00  0.00000000000E+00  0.45593999997E+02  0.45594000000E+02  0.51100000000E-03 0. -1.
         11   -1    0    0    0    0 -0.00000000000E+00 -0.00000000000E+00 -0.45593999997E+02  0.45594000000E+02  0.51100000000E-03 0.  1.
    9900012    2    1    2    0    0 -0.23811385155E+02 -0.29607768852E+02  0.14476310463E+02  0.50528860757E+02  0.30000002756E+02 0.  0.
        -12    1    1    2    0    0  0.23811385155E+02  0.29607768852E+02 -0.14476310463E+02  0.40659139243E+02  0.00000000000E+00 0.  1.
         11    1    3    3    0    0 -0.10003300404E+02 -0.20925455294E+02  0.16408862968E+02  0.28411115473E+02  0.51100000000E-03 0. -1.
        -11    1    3    3    0    0 -0.11051097866E+01 -0.88159613116E+01  0.13745695303E+01  0.89906553234E+01  0.51100000000E-03 0.  1.
         12    1    3    3    0    0 -0.12702974965E+02  0.13364775340E+00 -0.33071220357E+01  0.13127089961E+02  0.00000000000E+00 0. -1.
</event>
<event>
 7    1  0.5992960E-013  0.5052885E+02  0.7816164E-02  0.1300439E+00
        -11   -1    0    0    0    0  0.00000000000E+00  0.00000000000E+00  0.45593999997E+02  0.45594000000E+02  0.51100000000E-03 0. -1.
         11   -1    0    0    0    0 -0.00000000000E+00 -0.00000000000E+00 -0.45593999997E+02  0.45594000000E+02  0.51100000000E-03 0.  1.
    9900012    2    1    2    0    0  0.12342281660E+02 -0.33359354796E+02  0.19697418964E+02  0.50528846261E+02  0.29999958695E+02 0.  0.
        -12    1    1    2    0    0 -0.12342281660E+02  0.33359354796E+02 -0.19697418964E+02  0.40659153739E+02  0.00000000000E+00 0.  1.
         11    1    3    3    0    0  0.13482429771E+01 -0.21446029640E+01  0.54222208453E+01  0.59847773688E+01  0.51100000000E-03 0. -1.
        -11    1    3    3    0    0  0.14776595135E+02 -0.30010849914E+02  0.18922258166E+02  0.38432417705E+02  0.51100000000E-03 0.  1.
        -12    1    3    3    0    0 -0.37825564522E+01 -0.12039019180E+01 -0.46470600476E+01  0.61116511867E+01  0.00000000000E+00 0.  1.
</event>
<event>
 7    1  0.5992960E-013  0.5052886E+02  0.7816164E-02  0.1300439E+00
        -11   -1    0    0    0    0  0.00000000000E+00  0.00000000000E+00  0.45593999997E+02  0.45594000000E+02  0.51100000000E-03 0. -1.
         11   -1    0    0    0    0 -0.00000000000E+00 -0.00000000000E+00 -0.45593999997E+02  0.45594000000E+02  0.51100000000E-03 0.  1.
    9900012    2    1    2    0    0  0.14182252825E+02 -0.98408444066E+01  0.36812869666E+02  0.50528857278E+02  0.29999992182E+02 0.  0.
        -12    1    1    2    0    0 -0.14182252825E+02  0.98408444066E+01 -0.36812869666E+02  0.40659142722E+02  0.00000000000E+00 0.  1.
         11    1    3    3    0    0  0.12579794868E+02  0.30246488831E+01  0.11318307165E+02  0.17190224464E+02  0.51100000000E-03 0. -1.
        -11    1    3    3    0    0  0.41398420687E+01  0.31360277533E+01  0.75315534067E+01  0.91486206283E+01  0.51100000000E-03 0.  1.
         12    1    3    3    0    0 -0.25373841116E+01 -0.16001521043E+02  0.17963009095E+02  0.24190012186E+02  0.00000000000E+00 0. -1.
</event>
<event>
 7    1  0.5992960E-013  0.5052886E+02  0.7816164E-02  0.1300439E+00
        -11   -1    0    0    0    0  0.00000000000E+00  0.00000000000E+00  0.45593999997E+02  0.45594000000E+02  0.51100000000E-03 0.  1.
         11   -1    0    0    0    0 -0.00000000000E+00 -0.00000000000E+00 -0.45593999997E+02  0.45594000000E+02  0.51100000000E-03 0. -1.
    9900012    2    1    2    0    0 -0.24394487193E+02  0.27994560810E+02 -0.16564408013E+02  0.50528855233E+02  0.29999985966E+02 0.  0.
        -12    1    1    2    0    0  0.24394487193E+02 -0.27994560810E+02  0.16564408013E+02  0.40659144767E+02  0.00000000000E+00 0.  1.
         11    1    3    3    0    0 -0.10914424754E+02  0.76284753695E+01 -0.46063086439E+00  0.13324056636E+02  0.51100000000E-03 0. -1.
        -11    1    3    3    0    0 -0.15765014723E+02  0.85019188761E+01 -0.11057398608E+01  0.17945500124E+02  0.51100000000E-03 0.  1.
         12    1    3    3    0    0  0.22849522838E+01  0.11864166564E+02 -0.14998037288E+02  0.19259298474E+02  0.00000000000E+00 0. -1.
</event>
<event>
 7    1  0.5992960E-013  0.5052887E+02  0.7816164E-02  0.1300439E+00
        -11   -1    0    0    0    0  0.00000000000E+00  0.00000000000E+00  0.45593999997E+02  0.45594000000E+02  0.51100000000E-03 0.  1.
         11   -1    0    0    0    0 -0.00000000000E+00 -0.00000000000E+00 -0.45593999997E+02  0.45594000000E+02  0.51100000000E-03 0. -1.
    9900012    2    1    2    0    0 -0.17490152924E+02 -0.27272286470E+02 -0.24565864743E+02  0.50528871023E+02  0.30000033963E+02 0.  0.
        -12    1    1    2    0    0  0.17490152924E+02  0.27272286470E+02  0.24565864743E+02  0.40659128977E+02  0.00000000000E+00 0.  1.
         11    1    3    3    0    0 -0.24893417653E+01 -0.11287126714E+02 -0.17364783604E+02  0.20859812122E+02  0.51100000000E-03 0. -1.
        -11    1    3    3    0    0  0.32357046763E+01 -0.48740038921E+00  0.22146704658E+01  0.39512161956E+01  0.51100000000E-03 0.  1.
         12    1    3    3    0    0 -0.18236515835E+02 -0.15497759366E+02 -0.94157516049E+01  0.25717842706E+02  0.00000000000E+00 0. -1.
</event>
<event>
 7    1  0.5992960E-013  0.5052888E+02  0.7816164E-02  0.1300439E+00
        -11   -1    0    0    0    0  0.00000000000E+00  0.00000000000E+00  0.45593999997E+02  0.45594000000E+02  0.51100000000E-03 0.  1.
         11   -1    0    0    0    0 -0.00000000000E+00 -0.00000000000E+00 -0.45593999997E+02  0.45594000000E+02  0.51100000000E-03 0. -1.
    9900012    2    1    2    0    0 -0.18632153937E+01  0.12094961084E+02 -0.38773758659E+02  0.50528880288E+02  0.30000062123E+02 0.  0.
        -12    1    1    2    0    0  0.18632153937E+01 -0.12094961084E+02  0.38773758659E+02  0.40659119712E+02  0.00000000000E+00 0.  1.
         11    1    3    3    0    0  0.81975167804E+00 -0.54805243479E+01 -0.10886034434E+02  0.12215313582E+02  0.51100000000E-03 0. -1.
        -11    1    3    3    0    0 -0.29041210830E+01  0.14557108055E+02 -0.30751646603E+02  0.34146845875E+02  0.51100000000E-03 0.  1.
        -12    1    3    3    0    0  0.22115401118E+00  0.30183773777E+01  0.28639223782E+01  0.41667208305E+01  0.00000000000E+00 0.  1.
</event>
<event>
 7    1  0.5992960E-013  0.5052886E+02  0.7816164E-02  0.1300439E+00
        -11   -1    0    0    0    0  0.00000000000E+00  0.00000000000E+00  0.45593999997E+02  0.45594000000E+02  0.51100000000E-03 0.  1.
         11   -1    0    0    0    0 -0.00000000000E+00 -0.00000000000E+00 -0.45593999997E+02  0.45594000000E+02  0.51100000000E-03 0. -1.
    9900012    2    1    2    0    0  0.14670291875E+02  0.35914010537E+01 -0.37749833504E+02  0.50528861362E+02  0.30000004596E+02 0.  0.
        -12    1    1    2    0    0 -0.14670291875E+02 -0.35914010537E+01  0.37749833504E+02  0.40659138638E+02  0.00000000000E+00 0.  1.
         11    1    3    3    0    0  0.21345018548E+01 -0.65079412664E+01 -0.26388374137E+02  0.27262716071E+02  0.51100000000E-03 0. -1.
        -11    1    3    3    0    0  0.88979265386E+00 -0.25265321999E+01 -0.34152369537E+01  0.43403847335E+01  0.51100000000E-03 0.  1.
        -12    1    3    3    0    0  0.11645997366E+02  0.12625874520E+02 -0.79462224126E+01  0.18925760558E+02  0.00000000000E+00 0.  1.
</event>
<event>
 7    1  0.5992960E-013  0.5052885E+02  0.7816164E-02  0.1300439E+00
        -11   -1    0    0    0    0  0.00000000000E+00  0.00000000000E+00  0.45593999997E+02  0.45594000000E+02  0.51100000000E-03 0.  1.
         11   -1    0    0    0    0 -0.00000000000E+00 -0.00000000000E+00 -0.45593999997E+02  0.45594000000E+02  0.51100000000E-03 0. -1.
    9900012    2    1    2    0    0  0.15308588429E+02  0.21170542558E+02 -0.31154800198E+02  0.50528851863E+02  0.29999975722E+02 0.  0.
        -12    1    1    2    0    0 -0.15308588429E+02 -0.21170542558E+02  0.31154800198E+02  0.40659148137E+02  0.00000000000E+00 0.  1.
         11    1    3    3    0    0  0.35133059668E+01  0.55147519693E+01 -0.13993350771E+02  0.15445700831E+02  0.51100000000E-03 0. -1.
        -11    1    3    3    0    0  0.11762544100E+02 -0.14973964484E+01 -0.12667058088E+02  0.17350907777E+02  0.51100000000E-03 0.  1.
         12    1    3    3    0    0  0.32738362750E-01  0.17153187037E+02 -0.44943913384E+01  0.17732243254E+02  0.00000000000E+00 0. -1.
</event>
<event>
 7    1  0.5992960E-013  0.5052887E+02  0.7816164E-02  0.1300439E+00
        -11   -1    0    0    0    0  0.00000000000E+00  0.00000000000E+00  0.45593999997E+02  0.45594000000E+02  0.51100000000E-03 0.  1.
         11   -1    0    0    0    0 -0.00000000000E+00 -0.00000000000E+00 -0.45593999997E+02  0.45594000000E+02  0.51100000000E-03 0. -1.
    9900012    2    1    2    0    0 -0.11313088340E+02  0.48565638382E+01 -0.38750389485E+02  0.50528869841E+02  0.30000030368E+02 0.  0.
        -12    1    1    2    0    0  0.11313088340E+02 -0.48565638382E+01  0.38750389485E+02  0.40659130159E+02  0.00000000000E+00 0.  1.
         11    1    3    3    0    0  0.21642295847E+01  0.19578055350E+01 -0.73319777836E+00  0.30090648799E+01  0.51100000000E-03 0. -1.
        -11    1    3    3    0    0 -0.47813256330E+00  0.10424261371E+02 -0.57185767801E+01  0.11899409923E+02  0.51100000000E-03 0.  1.
         12    1    3    3    0    0 -0.12999185362E+02 -0.75255030674E+01 -0.32298614926E+02  0.35620395038E+02  0.00000000000E+00 0. -1.
</event>
<event>
 7    1  0.5992960E-013  0.5052885E+02  0.7816164E-02  0.1300439E+00
        -11   -1    0    0    0    0  0.00000000000E+00  0.00000000000E+00  0.45593999997E+02  0.45594000000E+02  0.51100000000E-03 0. -1.
         11   -1    0    0    0    0 -0.00000000000E+00 -0.00000000000E+00 -0.45593999997E+02  0.45594000000E+02  0.51100000000E-03 0.  1.
    9900012    2    1    2    0    0 -0.13703823461E+02  0.19900221303E+02 -0.32700956279E+02  0.50528854327E+02  0.29999983211E+02 0.  0.
        -12    1    1    2    0    0  0.13703823461E+02 -0.19900221303E+02  0.32700956279E+02  0.40659145673E+02  0.00000000000E+00 0.  1.
         11    1    3    3    0    0 -0.15982895271E+02  0.20970982102E+01 -0.82353695430E+01  0.18101714668E+02  0.51100000000E-03 0. -1.
        -11    1    3    3    0    0 -0.20989875542E+01 -0.21622684865E+00 -0.55527642617E+01  0.59401762609E+01  0.51100000000E-03 0.  1.
         12    1    3    3    0    0  0.43780593642E+01  0.18019349942E+02 -0.18912822474E+02  0.26486963398E+02  0.00000000000E+00 0. -1.
</event>
<event>
 7    1  0.5992960E-013  0.5052886E+02  0.7816164E-02  0.1300439E+00
        -11   -1    0    0    0    0  0.00000000000E+00  0.00000000000E+00  0.45593999997E+02  0.45594000000E+02  0.51100000000E-03 0. -1.
         11   -1    0    0    0    0 -0.00000000000E+00 -0.00000000000E+00 -0.45593999997E+02  0.45594000000E+02  0.51100000000E-03 0.  1.
    9900012    2    1    2    0    0 -0.32969563051E+02  0.20293637849E+02  0.12423451184E+02  0.50528856327E+02  0.29999989291E+02 0.  0.
        -12    1    1    2    0    0  0.32969563051E+02 -0.20293637849E+02 -0.12423451184E+02  0.40659143673E+02  0.00000000000E+00 0.  1.
         11    1    3    3    0    0 -0.43379083939E+01  0.17022846368E+02  0.16513651689E+01  0.17644312253E+02  0.51100000000E-03 0. -1.
        -11    1    3    3    0    0  0.43548121184E+00  0.16034541156E+01  0.17281028553E+01  0.23973002996E+01  0.51100000000E-03 0.  1.
         12    1    3    3    0    0 -0.29067135869E+02  0.16673373649E+01  0.90439831599E+01  0.30487243774E+02  0.00000000000E+00 0. -1.
</event>
<event>
 7    1  0.5992960E-013  0.5052886E+02  0.7816164E-02  0.1300439E+00
        -11   -1    0    0    0    0  0.00000000000E+00  0.00000000000E+00  0.45593999997E+02  0.45594000000E+02  0.51100000000E-03 0. -1.
         11   -1    0    0    0    0 -0.00000000000E+00 -0.00000000000E+00 -0.45593999997E+02  0.45594000000E+02  0.51100000000E-03 0.  1.
    9900012    2    1    2    0    0 -0.60470286141E+01 -0.63545728661E+00  0.40201934525E+02  0.50528857110E+02  0.29999991671E+02 0.  0.
        -12    1    1    2    0    0  0.60470286141E+01  0.63545728661E+00 -0.40201934525E+02  0.40659142890E+02  0.00000000000E+00 0.  1.
         11    1    3    3    0    0  0.21531306671E+01  0.48706078927E+01  0.13147182616E+02  0.14184752515E+02  0.51100000000E-03 0. -1.
        -11    1    3    3    0    0  0.18324747464E+01  0.75688160437E+01  0.86885213201E+01  0.11667705130E+02  0.51100000000E-03 0.  1.
        -12    1    3    3    0    0 -0.10032634028E+02 -0.13074881223E+02  0.18366230588E+02  0.24676399465E+02  0.00000000000E+00 0.  1.
</event>
<event>
 7    1  0.5992960E-013  0.5052886E+02  0.7816164E-02  0.1300439E+00
        -11   -1    0    0    0    0  0.00000000000E+00  0.00000000000E+00  0.45593999997E+02  0.45594000000E+02  0.51100000000E-03 0. -1.
         11   -1    0    0    0    0 -0.00000000000E+00 -0.00000000000E+00 -0.45593999997E+02  0.45594000000E+02  0.51100000000E-03 0.  1.
    9900012    2    1    2    0    0 -0.32722564169E+02 -0.19203745669E+01  0.24056429377E+02  0.50528857871E+02  0.29999993985E+02 0.  0.
        -12    1    1    2    0    0  0.32722564169E+02  0.19203745669E+01 -0.24056429377E+02  0.40659142129E+02  0.00000000000E+00 0.  1.
         11    1    3    3    0    0 -0.14413929341E+02 -0.10587395424E+02  0.16485741039E+02  0.24323526858E+02  0.51100000000E-03 0. -1.
        -11    1    3    3    0    0 -0.18275195946E+01  0.77707411012E+00  0.76800700261E+01  0.79326633553E+01  0.51100000000E-03 0.  1.
        -12    1    3    3    0    0 -0.16481115233E+02  0.78899467470E+01 -0.10938168754E+00  0.18272667658E+02  0.00000000000E+00 0.  1.
</event>
<event>
 7    1  0.5992960E-013  0.5052874E+02  0.7816164E-02  0.1300439E+00
        -11   -1    0    0    0    0  0.00000000000E+00  0.00000000000E+00  0.45593999997E+02  0.45594000000E+02  0.51100000000E-03 0. -1.
         11   -1    0    0    0    0 -0.00000000000E+00 -0.00000000000E+00 -0.45593999997E+02  0.45594000000E+02  0.51100000000E-03 0.  1.
    9900012    2    1    2    0    0  0.24920500467E+02 -0.14898274302E+02  0.28463753101E+02  0.50528743227E+02  0.29999645512E+02 0.  0.
        -12    1    1    2    0    0 -0.24920500467E+02  0.14898274302E+02 -0.28463753101E+02  0.40659256773E+02  0.00000000000E+00 0.  1.
         11    1    3    3    0    0  0.19356771056E+02 -0.97772113279E+01  0.24868989100E+02  0.32996137141E+02  0.51100000000E-03 0. -1.
        -11    1    3    3    0    0  0.75729896898E+01 -0.83816455445E+01  0.62141935301E+01  0.12892569812E+02  0.51100000000E-03 0.  1.
        -12    1    3    3    0    0 -0.20092602786E+01  0.32605825707E+01 -0.26194295295E+01  0.46400362744E+01  0.00000000000E+00 0.  1.
</event>
<event>
 7    1  0.5992960E-013  0.5052885E+02  0.7816164E-02  0.1300439E+00
        -11   -1    0    0    0    0  0.00000000000E+00  0.00000000000E+00  0.45593999997E+02  0.45594000000E+02  0.51100000000E-03 0.  1.
         11   -1    0    0    0    0 -0.00000000000E+00 -0.00000000000E+00 -0.45593999997E+02  0.45594000000E+02  0.51100000000E-03 0. -1.
    9900012    2    1    2    0    0  0.28202789253E+01 -0.35596653186E+02 -0.19444562528E+02  0.50528847240E+02  0.29999961671E+02 0.  0.
        -12    1    1    2    0    0 -0.28202789253E+01  0.35596653186E+02  0.19444562528E+02  0.40659152760E+02  0.00000000000E+00 0.  1.
         11    1    3    3    0    0 -0.25390877073E+01  0.10355793546E+01 -0.17284120466E+01  0.32414193572E+01  0.51100000000E-03 0. -1.
        -11    1    3    3    0    0 -0.68616103386E+01 -0.28044195425E+01 -0.57505259229E+01  0.93816317376E+01  0.51100000000E-03 0.  1.
        -12    1    3    3    0    0  0.12220976971E+02 -0.33827812998E+02 -0.11965624559E+02  0.37905796145E+02  0.00000000000E+00 0.  1.
</event>
<event>
 7    1  0.5992960E-013  0.5052886E+02  0.7816164E-02  0.1300439E+00
        -11   -1    0    0    0    0  0.00000000000E+00  0.00000000000E+00  0.45593999997E+02  0.45594000000E+02  0.51100000000E-03 0.  1.
         11   -1    0    0    0    0 -0.00000000000E+00 -0.00000000000E+00 -0.45593999997E+02  0.45594000000E+02  0.51100000000E-03 0. -1.
    9900012    2    1    2    0    0 -0.47505281607E+01  0.10742741293E+02 -0.38925463947E+02  0.50528858940E+02  0.29999997233E+02 0.  0.
        -12    1    1    2    0    0  0.47505281607E+01 -0.10742741293E+02  0.38925463947E+02  0.40659141060E+02  0.00000000000E+00 0.  1.
         11    1    3    3    0    0 -0.66564419741E+01 -0.29889270748E+01 -0.96307077419E+01  0.12082732997E+02  0.51100000000E-03 0. -1.
        -11    1    3    3    0    0 -0.46359988585E+01  0.14899240837E+01  0.11351636377E+01  0.50000955927E+01  0.51100000000E-03 0.  1.
        -12    1    3    3    0    0  0.65419126719E+01  0.12241744285E+02 -0.30429919842E+02  0.33446030350E+02  0.00000000000E+00 0.  1.
</event>
<event>
 7    1  0.5992960E-013  0.5052885E+02  0.7816164E-02  0.1300439E+00
        -11   -1    0    0    0    0  0.00000000000E+00  0.00000000000E+00  0.45593999997E+02  0.45594000000E+02  0.51100000000E-03 0. -1.
         11   -1    0    0    0    0 -0.00000000000E+00 -0.00000000000E+00 -0.45593999997E+02  0.45594000000E+02  0.51100000000E-03 0.  1.
    9900012    2    1    2    0    0 -0.27532149209E+02 -0.19538735222E+02 -0.22657997070E+02  0.50528852869E+02  0.29999978782E+02 0.  0.
        -12    1    1    2    0    0  0.27532149209E+02  0.19538735222E+02  0.22657997070E+02  0.40659147131E+02  0.00000000000E+00 0.  1.
         11    1    3    3    0    0 -0.86880161199E+01 -0.53993598008E-01  0.38143580006E+01  0.94886177405E+01  0.51100000000E-03 0. -1.
        -11    1    3    3    0    0 -0.26012759494E+01  0.21064836513E+01 -0.19864749471E+00  0.33531136316E+01  0.51100000000E-03 0.  1.
        -12    1    3    3    0    0 -0.16242857139E+02 -0.21591225275E+02 -0.26273707576E+02  0.37687121497E+02  0.00000000000E+00 0.  1.
</event>
<event>
 7    1  0.5992960E-013  0.5052892E+02  0.7816164E-02  0.1300439E+00
        -11   -1    0    0    0    0  0.00000000000E+00  0.00000000000E+00  0.45593999997E+02  0.45594000000E+02  0.51100000000E-03 0.  1.
         11   -1    0    0    0    0 -0.00000000000E+00 -0.00000000000E+00 -0.45593999997E+02  0.45594000000E+02  0.51100000000E-03 0. -1.
    9900012    2    1    2    0    0 -0.81854241947E+01 -0.30511903690E+02  0.25596554330E+02  0.50528917010E+02  0.30000173743E+02 0.  0.
        -12    1    1    2    0    0  0.81854241947E+01  0.30511903690E+02 -0.25596554330E+02  0.40659082990E+02  0.00000000000E+00 0.  1.
         11    1    3    3    0    0 -0.59888132758E+01 -0.29379206073E+01  0.13119648109E+02  0.14718098679E+02  0.51100000000E-03 0. -1.
        -11    1    3    3    0    0  0.26375717390E+01 -0.16594253368E+01  0.86232772480E+01  0.91690450912E+01  0.51100000000E-03 0.  1.
         12    1    3    3    0    0 -0.48341826580E+01 -0.25914557745E+02  0.38536289730E+01  0.26641773240E+02  0.00000000000E+00 0. -1.
</event>
<event>
 7    1  0.5992960E-013  0.5052886E+02  0.7816164E-02  0.1300439E+00
        -11   -1    0    0    0    0  0.00000000000E+00  0.00000000000E+00  0.45593999997E+02  0.45594000000E+02  0.51100000000E-03 0.  1.
         11   -1    0    0    0    0 -0.00000000000E+00 -0.00000000000E+00 -0.45593999997E+02  0.45594000000E+02  0.51100000000E-03 0. -1.
    9900012    2    1    2    0    0  0.41179729076E-01  0.23294826103E+02 -0.33324393953E+02  0.50528857716E+02  0.29999993513E+02 0.  0.
        -12    1    1    2    0    0 -0.41179729076E-01 -0.23294826103E+02  0.33324393953E+02  0.40659142284E+02  0.00000000000E+00 0.  1.
         11    1    3    3    0    0  0.23266743393E+01  0.45289035373E+01 -0.75646569467E+01  0.91185753116E+01  0.51100000000E-03 0. -1.
        -11    1    3    3    0    0  0.52200388892E+01  0.22445627931E+02 -0.23122426522E+02  0.32645085813E+02  0.51100000000E-03 0.  1.
        -12    1    3    3    0    0 -0.75055334995E+01 -0.36797053657E+01 -0.26373104847E+01  0.87651965912E+01  0.00000000000E+00 0.  1.
</event>
<event>
 7    1  0.5992960E-013  0.5052886E+02  0.7816164E-02  0.1300439E+00
        -11   -1    0    0    0    0  0.00000000000E+00  0.00000000000E+00  0.45593999997E+02  0.45594000000E+02  0.51100000000E-03 0. -1.
         11   -1    0    0    0    0 -0.00000000000E+00 -0.00000000000E+00 -0.45593999997E+02  0.45594000000E+02  0.51100000000E-03 0.  1.
    9900012    2    1    2    0    0  0.10804241095E+01  0.36213294984E+02  0.18455233945E+02  0.50528859455E+02  0.29999998800E+02 0.  0.
        -12    1    1    2    0    0 -0.10804241095E+01 -0.36213294984E+02 -0.18455233945E+02  0.40659140545E+02  0.00000000000E+00 0.  1.
         11    1    3    3    0    0  0.22842962155E+01  0.22299666316E+02  0.12396474677E+02  0.25615731723E+02  0.51100000000E-03 0. -1.
        -11    1    3    3    0    0 -0.13047934583E+01  0.15327592561E+02  0.11553468129E+02  0.19238508408E+02  0.51100000000E-03 0.  1.
        -12    1    3    3    0    0  0.10092135233E+00 -0.14139638931E+01 -0.54947088610E+01  0.56746193244E+01  0.00000000000E+00 0.  1.
</event>
<event>
 7    1  0.5992960E-013  0.5052886E+02  0.7816164E-02  0.1300439E+00
        -11   -1    0    0    0    0  0.00000000000E+00  0.00000000000E+00  0.45593999997E+02  0.45594000000E+02  0.51100000000E-03 0.  1.
         11   -1    0    0    0    0 -0.00000000000E+00 -0.00000000000E+00 -0.45593999997E+02  0.45594000000E+02  0.51100000000E-03 0. -1.
    9900012    2    1    2    0    0  0.79683729107E+01 -0.19473436219E+02 -0.34791609416E+02  0.50528858706E+02  0.29999996523E+02 0.  0.
        -12    1    1    2    0    0 -0.79683729107E+01  0.19473436219E+02  0.34791609416E+02  0.40659141294E+02  0.00000000000E+00 0.  1.
         11    1    3    3    0    0  0.36108948613E+01 -0.17221560215E+01 -0.10027932319E+02  0.10796472106E+02  0.51100000000E-03 0. -1.
        -11    1    3    3    0    0 -0.38898384456E+01 -0.15328515264E+02 -0.26596840997E+02  0.30943273495E+02  0.51100000000E-03 0.  1.
        -12    1    3    3    0    0  0.82473164950E+01 -0.24227649335E+01  0.18331639004E+01  0.87891131053E+01  0.00000000000E+00 0.  1.
</event>
<event>
 7    1  0.5992960E-013  0.5052886E+02  0.7816164E-02  0.1300439E+00
        -11   -1    0    0    0    0  0.00000000000E+00  0.00000000000E+00  0.45593999997E+02  0.45594000000E+02  0.51100000000E-03 0.  1.
         11   -1    0    0    0    0 -0.00000000000E+00 -0.00000000000E+00 -0.45593999997E+02  0.45594000000E+02  0.51100000000E-03 0. -1.
    9900012    2    1    2    0    0 -0.65945047385E+01  0.19380656039E+02 -0.35129309107E+02  0.50528859827E+02  0.29999999931E+02 0.  0.
        -12    1    1    2    0    0  0.65945047385E+01 -0.19380656039E+02  0.35129309107E+02  0.40659140173E+02  0.00000000000E+00 0.  1.
         11    1    3    3    0    0  0.57631231817E+01  0.13649889542E+02 -0.20359644942E+02  0.25180314052E+02  0.51100000000E-03 0. -1.
        -11    1    3    3    0    0  0.29814325145E+01  0.35843504716E+01 -0.13464487873E+01  0.48527757768E+01  0.51100000000E-03 0.  1.
         12    1    3    3    0    0 -0.15339060435E+02  0.21464160249E+01 -0.13423215378E+02  0.20495769999E+02  0.00000000000E+00 0. -1.
</event>
<event>
 7    1  0.5992960E-013  0.5052887E+02  0.7816164E-02  0.1300439E+00
        -11   -1    0    0    0    0  0.00000000000E+00  0.00000000000E+00  0.45593999997E+02  0.45594000000E+02  0.51100000000E-03 0. -1.
         11   -1    0    0    0    0 -0.00000000000E+00 -0.00000000000E+00 -0.45593999997E+02  0.45594000000E+02  0.51100000000E-03 0.  1.
    9900012    2    1    2    0    0 -0.20123070174E+02 -0.17499576808E+02 -0.30691889502E+02  0.50528865443E+02  0.30000017002E+02 0.  0.
        -12    1    1    2    0    0  0.20123070174E+02  0.17499576808E+02  0.30691889502E+02  0.40659134557E+02  0.00000000000E+00 0.  1.
         11    1    3    3    0    0 -0.13348546774E+02 -0.58041364388E+01 -0.71727317946E+01  0.16227131060E+02  0.51100000000E-03 0. -1.
        -11    1    3    3    0    0 -0.71364854392E+01 -0.13542176960E+02 -0.26600895679E+02  0.30690839552E+02  0.51100000000E-03 0.  1.
         12    1    3    3    0    0  0.36196203937E+00  0.18467365903E+01  0.30817379720E+01  0.36108948309E+01  0.00000000000E+00 0. -1.
</event>
<event>
 7    1  0.5992960E-013  0.5052885E+02  0.7816164E-02  0.1300439E+00
        -11   -1    0    0    0    0  0.00000000000E+00  0.00000000000E+00  0.45593999997E+02  0.45594000000E+02  0.51100000000E-03 0.  1.
         11   -1    0    0    0    0 -0.00000000000E+00 -0.00000000000E+00 -0.45593999997E+02  0.45594000000E+02  0.51100000000E-03 0. -1.
    9900012    2    1    2    0    0  0.28165034995E+01  0.39976037288E+02 -0.68665810221E+01  0.50528853623E+02  0.29999981071E+02 0.  0.
        -12    1    1    2    0    0 -0.28165034995E+01 -0.39976037288E+02  0.68665810221E+01  0.40659146377E+02  0.00000000000E+00 0.  1.
         11    1    3    3    0    0  0.49187794132E+01  0.38475805040E+02 -0.42746849163E+00  0.38791296626E+02  0.51100000000E-03 0. -1.
        -11    1    3    3    0    0 -0.32910342516E+01  0.50330010767E+01 -0.46577317304E+01  0.76063441558E+01  0.51100000000E-03 0.  1.
        -12    1    3    3    0    0  0.11887583379E+01 -0.35327688284E+01 -0.17813808001E+01  0.41312128408E+01  0.00000000000E+00 0.  1.
</event>
<event>
 7    1  0.5992960E-013  0.5052884E+02  0.7816164E-02  0.1300439E+00
        -11   -1    0    0    0    0  0.00000000000E+00  0.00000000000E+00  0.45593999997E+02  0.45594000000E+02  0.51100000000E-03 0.  1.
         11   -1    0    0    0    0 -0.00000000000E+00 -0.00000000000E+00 -0.45593999997E+02  0.45594000000E+02  0.51100000000E-03 0. -1.
    9900012    2    1    2    0    0 -0.17694348344E+02  0.34879849047E+02  0.11111850093E+02  0.50528843032E+02  0.29999948881E+02 0.  0.
        -12    1    1    2    0    0  0.17694348344E+02 -0.34879849047E+02 -0.11111850093E+02  0.40659156968E+02  0.00000000000E+00 0.  1.
         11    1    3    3    0    0 -0.72411747994E+01  0.65430176385E+01  0.75273943176E+01  0.12325070295E+02  0.51100000000E-03 0. -1.
        -11    1    3    3    0    0  0.15517357743E+01  0.10544960140E+02  0.11170223568E+02  0.15439493615E+02  0.51100000000E-03 0.  1.
         12    1    3    3    0    0 -0.12004909319E+02  0.17791871269E+02 -0.75857677924E+01  0.22764279123E+02  0.00000000000E+00 0. -1.
</event>
<event>
 7    1  0.5992960E-013  0.5052886E+02  0.7816164E-02  0.1300439E+00
        -11   -1    0    0    0    0  0.00000000000E+00  0.00000000000E+00  0.45593999997E+02  0.45594000000E+02  0.51100000000E-03 0.  1.
         11   -1    0    0    0    0 -0.00000000000E+00 -0.00000000000E+00 -0.45593999997E+02  0.45594000000E+02  0.51100000000E-03 0. -1.
    9900012    2    1    2    0    0  0.11304052094E+02  0.16878124339E+02 -0.35220916579E+02  0.50528860319E+02  0.30000001425E+02 0.  0.
        -12    1    1    2    0    0 -0.11304052094E+02 -0.16878124339E+02  0.35220916579E+02  0.40659139681E+02  0.00000000000E+00 0.  1.
         11    1    3    3    0    0 -0.12303727217E+00  0.11822851964E+02 -0.18174714419E+02  0.21682140374E+02  0.51100000000E-03 0. -1.
        -11    1    3    3    0    0  0.57703396443E+01  0.60965080333E+01 -0.20489978566E+02  0.22142796836E+02  0.51100000000E-03 0.  1.
        -12    1    3    3    0    0  0.56567497222E+01 -0.10412356586E+01  0.34437764056E+01  0.67039231088E+01  0.00000000000E+00 0.  1.
</event>
<event>
 7    1  0.5992960E-013  0.5052886E+02  0.7816164E-02  0.1300439E+00
        -11   -1    0    0    0    0  0.00000000000E+00  0.00000000000E+00  0.45593999997E+02  0.45594000000E+02  0.51100000000E-03 0.  1.
         11   -1    0    0    0    0 -0.00000000000E+00 -0.00000000000E+00 -0.45593999997E+02  0.45594000000E+02  0.51100000000E-03 0. -1.
    9900012    2    1    2    0    0 -0.23470731899E+02  0.23781058071E+02  0.23167909101E+02  0.50528855999E+02  0.29999988293E+02 0.  0.
        -12    1    1    2    0    0  0.23470731899E+02 -0.23781058071E+02 -0.23167909101E+02  0.40659144001E+02  0.00000000000E+00 0.  1.
         11    1    3    3    0    0 -0.14619602632E+02  0.14165198349E+02  0.76441032574E+01  0.21744377210E+02  0.51100000000E-03 0. -1.
        -11    1    3    3    0    0 -0.25409059734E+01  0.13591329798E+02  0.29083833162E+01  0.14129371628E+02  0.51100000000E-03 0.  1.
        -12    1    3    3    0    0 -0.63102232938E+01 -0.39754700761E+01  0.12615422527E+02  0.14655107160E+02  0.00000000000E+00 0.  1.
</event>
<event>
 7    1  0.5992960E-013  0.5052886E+02  0.7816164E-02  0.1300439E+00
        -11   -1    0    0    0    0  0.00000000000E+00  0.00000000000E+00  0.45593999997E+02  0.45594000000E+02  0.51100000000E-03 0. -1.
         11   -1    0    0    0    0 -0.00000000000E+00 -0.00000000000E+00 -0.45593999997E+02  0.45594000000E+02  0.51100000000E-03 0.  1.
    9900012    2    1    2    0    0  0.12530842006E+01 -0.37866076328E+02 -0.14756553134E+02  0.50528858139E+02  0.29999994799E+02 0.  0.
        -12    1    1    2    0    0 -0.12530842006E+01  0.37866076328E+02  0.14756553134E+02  0.40659141861E+02  0.00000000000E+00 0.  1.
         11    1    3    3    0    0 -0.12445101653E+00 -0.10628503918E+02  0.18017294358E+00  0.10630759434E+02  0.51100000000E-03 0. -1.
        -11    1    3    3    0    0  0.54064546010E+01 -0.31004523995E+02 -0.13014427987E+02  0.34057093176E+02  0.51100000000E-03 0.  1.
         12    1    3    3    0    0 -0.40289193839E+01  0.37669515846E+01 -0.19222980906E+01  0.58410055292E+01  0.00000000000E+00 0. -1.
</event>
<event>
 7    1  0.5992960E-013  0.5052886E+02  0.7816164E-02  0.1300439E+00
        -11   -1    0    0    0    0  0.00000000000E+00  0.00000000000E+00  0.45593999997E+02  0.45594000000E+02  0.51100000000E-03 0.  1.
         11   -1    0    0    0    0 -0.00000000000E+00 -0.00000000000E+00 -0.45593999997E+02  0.45594000000E+02  0.51100000000E-03 0. -1.
    9900012    2    1    2    0    0  0.27934306750E+02  0.29122827032E+02 -0.49700162484E+01  0.50528860690E+02  0.30000002553E+02 0.  0.
        -12    1    1    2    0    0 -0.27934306750E+02 -0.29122827032E+02  0.49700162484E+01  0.40659139310E+02  0.00000000000E+00 0.  1.
         11    1    3    3    0    0 -0.15555953179E+01 -0.10195340618E+01  0.63411703064E+00  0.19650524588E+01  0.51100000000E-03 0. -1.
        -11    1    3    3    0    0 -0.49549668559E+00  0.14081994502E+02 -0.63710028897E-02  0.14090710663E+02  0.51100000000E-03 0.  1.
         12    1    3    3    0    0  0.29985398753E+02  0.16060366591E+02 -0.55977622762E+01  0.34473097568E+02  0.00000000000E+00 0. -1.
</event>
<event>
 7    1  0.5992960E-013  0.5052886E+02  0.7816164E-02  0.1300439E+00
        -11   -1    0    0    0    0  0.00000000000E+00  0.00000000000E+00  0.45593999997E+02  0.45594000000E+02  0.51100000000E-03 0. -1.
         11   -1    0    0    0    0 -0.00000000000E+00 -0.00000000000E+00 -0.45593999997E+02  0.45594000000E+02  0.51100000000E-03 0.  1.
    9900012    2    1    2    0    0 -0.77155030726E+01 -0.19756278516E+02  0.34688994668E+02  0.50528857368E+02  0.29999992456E+02 0.  0.
        -12    1    1    2    0    0  0.77155030726E+01  0.19756278516E+02 -0.34688994668E+02  0.40659142632E+02  0.00000000000E+00 0.  1.
         11    1    3    3    0    0 -0.32562735228E+01 -0.19627307631E+01  0.17847040481E+02  0.18247533628E+02  0.51100000000E-03 0. -1.
        -11    1    3    3    0    0 -0.40684979051E+01  0.47291195475E+00  0.12974751405E+02  0.13605899279E+02  0.51100000000E-03 0.  1.
        -12    1    3    3    0    0 -0.39073164471E+00 -0.18266459707E+02  0.38672027830E+01  0.18675424462E+02  0.00000000000E+00 0.  1.
</event>
<event>
 7    1  0.5992960E-013  0.5052886E+02  0.7816164E-02  0.1300439E+00
        -11   -1    0    0    0    0  0.00000000000E+00  0.00000000000E+00  0.45593999997E+02  0.45594000000E+02  0.51100000000E-03 0. -1.
         11   -1    0    0    0    0 -0.00000000000E+00 -0.00000000000E+00 -0.45593999997E+02  0.45594000000E+02  0.51100000000E-03 0.  1.
    9900012    2    1    2    0    0  0.20491703979E+02 -0.22028606130E+01  0.35048584539E+02  0.50528858285E+02  0.29999995243E+02 0.  0.
        -12    1    1    2    0    0 -0.20491703979E+02  0.22028606130E+01 -0.35048584539E+02  0.40659141715E+02  0.00000000000E+00 0.  1.
         11    1    3    3    0    0  0.93816063947E+01  0.92812100872E+00  0.17924803460E+02  0.20252765898E+02  0.51100000000E-03 0. -1.
        -11    1    3    3    0    0 -0.46015104580E+01 -0.45813880515E+01  0.12074027083E+02  0.13709308708E+02  0.51100000000E-03 0.  1.
        -12    1    3    3    0    0  0.15711608042E+02  0.14504064298E+01  0.50497539953E+01  0.16566783680E+02  0.00000000000E+00 0.  1.
</event>
<event>
 7    1  0.5992960E-013  0.5052888E+02  0.7816164E-02  0.1300439E+00
        -11   -1    0    0    0    0  0.00000000000E+00  0.00000000000E+00  0.45593999997E+02  0.45594000000E+02  0.51100000000E-03 0.  1.
         11   -1    0    0    0    0 -0.00000000000E+00 -0.00000000000E+00 -0.45593999997E+02  0.45594000000E+02  0.51100000000E-03 0. -1.
    9900012    2    1    2    0    0 -0.28912417676E+02 -0.28570185797E+02  0.99035825490E+00  0.50528877753E+02  0.30000054419E+02 0.  0.
        -12    1    1    2    0    0  0.28912417676E+02  0.28570185797E+02 -0.99035825490E+00  0.40659122247E+02  0.00000000000E+00 0.  1.
         11    1    3    3    0    0 -0.81988893421E-02 -0.73668905155E+01  0.18777695298E+01  0.76024444593E+01  0.51100000000E-03 0. -1.
        -11    1    3    3    0    0  0.29140986194E+01  0.18136145032E+01 -0.12534586064E+01  0.36540836155E+01  0.51100000000E-03 0.  1.
         12    1    3    3    0    0 -0.31818317406E+02 -0.23016909785E+02  0.36604733157E+00  0.39272349679E+02  0.00000000000E+00 0. -1.
</event>
<event>
 7    1  0.5992960E-013  0.5052888E+02  0.7816164E-02  0.1300439E+00
        -11   -1    0    0    0    0  0.00000000000E+00  0.00000000000E+00  0.45593999997E+02  0.45594000000E+02  0.51100000000E-03 0.  1.
         11   -1    0    0    0    0 -0.00000000000E+00 -0.00000000000E+00 -0.45593999997E+02  0.45594000000E+02  0.51100000000E-03 0. -1.
    9900012    2    1    2    0    0 -0.27815098388E+02  0.23083257838E+02 -0.18618479755E+02  0.50528877049E+02  0.30000052279E+02 0.  0.
        -12    1    1    2    0    0  0.27815098388E+02 -0.23083257838E+02  0.18618479755E+02  0.40659122951E+02  0.00000000000E+00 0.  1.
         11    1    3    3    0    0 -0.99107442564E+01 -0.50528313325E+01 -0.11947182706E+02  0.16324494818E+02  0.51100000000E-03 0. -1.
        -11    1    3    3    0    0 -0.19480435356E+01  0.32637408509E+01 -0.19734881328E+01  0.42827016741E+01  0.51100000000E-03 0.  1.
        -12    1    3    3    0    0 -0.15956310596E+02  0.24872348319E+02 -0.46978089156E+01  0.29921680557E+02  0.00000000000E+00 0.  1.
</event>
<event>
 7    1  0.5992960E-013  0.5052886E+02  0.7816164E-02  0.1300439E+00
        -11   -1    0    0    0    0  0.00000000000E+00  0.00000000000E+00  0.45593999997E+02  0.45594000000E+02  0.51100000000E-03 0.  1.
         11   -1    0    0    0    0 -0.00000000000E+00 -0.00000000000E+00 -0.45593999997E+02  0.45594000000E+02  0.51100000000E-03 0. -1.
    9900012    2    1    2    0    0  0.68704717234E+01 -0.11825605086E+02 -0.38289907965E+02  0.50528863643E+02  0.30000011529E+02 0.  0.
        -12    1    1    2    0    0 -0.68704717234E+01  0.11825605086E+02  0.38289907965E+02  0.40659136357E+02  0.00000000000E+00 0.  1.
         11    1    3    3    0    0  0.25508374933E+01 -0.11781879847E+02 -0.39998835735E+01  0.12701123317E+02  0.51100000000E-03 0. -1.
        -11    1    3    3    0    0 -0.35128894836E+01 -0.47912213598E+01 -0.78394939659E+01  0.98363540270E+01  0.51100000000E-03 0.  1.
        -12    1    3    3    0    0  0.78325237138E+01  0.47474961210E+01 -0.26450530425E+02  0.27991386299E+02  0.00000000000E+00 0.  1.
</event>
<event>
 7    1  0.5992960E-013  0.5052885E+02  0.7816164E-02  0.1300439E+00
        -11   -1    0    0    0    0  0.00000000000E+00  0.00000000000E+00  0.45593999997E+02  0.45594000000E+02  0.51100000000E-03 0. -1.
         11   -1    0    0    0    0 -0.00000000000E+00 -0.00000000000E+00 -0.45593999997E+02  0.45594000000E+02  0.51100000000E-03 0.  1.
    9900012    2    1    2    0    0  0.12990494702E+01  0.26636726789E+02  0.30691432771E+02  0.50528846183E+02  0.29999958459E+02 0.  0.
        -12    1    1    2    0    0 -0.12990494702E+01 -0.26636726789E+02 -0.30691432771E+02  0.40659153817E+02  0.00000000000E+00 0.  1.
         11    1    3    3    0    0 -0.79366124042E+01  0.15069289071E+02  0.12180790113E+01  0.17075040448E+02  0.51100000000E-03 0. -1.
        -11    1    3    3    0    0 -0.17284404272E+00 -0.49709111507E+00  0.92153932071E+00  0.10612302392E+01  0.51100000000E-03 0.  1.
         12    1    3    3    0    0  0.94085059171E+01  0.12064528833E+02  0.28551814439E+02  0.32392575497E+02  0.00000000000E+00 0. -1.
</event>
<event>
 7    1  0.5992960E-013  0.5052873E+02  0.7816164E-02  0.1300439E+00
        -11   -1    0    0    0    0  0.00000000000E+00  0.00000000000E+00  0.45593999997E+02  0.45594000000E+02  0.51100000000E-03 0.  1.
         11   -1    0    0    0    0 -0.00000000000E+00 -0.00000000000E+00 -0.45593999997E+02  0.45594000000E+02  0.51100000000E-03 0. -1.
    9900012    2    1    2    0    0  0.26832115341E+01 -0.35534477170E+02 -0.19577475581E+02  0.50528729938E+02  0.29999605117E+02 0.  0.
        -12    1    1    2    0    0 -0.26832115341E+01  0.35534477170E+02  0.19577475581E+02  0.40659270062E+02  0.00000000000E+00 0.  1.
         11    1    3    3    0    0 -0.38115002899E+01 -0.19156460236E+02 -0.18578544544E+01  0.19620120455E+02  0.51100000000E-03 0. -1.
        -11    1    3    3    0    0  0.82853269676E+01 -0.19069311413E+02 -0.18210653417E+02  0.27638979338E+02  0.51100000000E-03 0.  1.
         12    1    3    3    0    0 -0.17906151436E+01  0.26912944796E+01  0.49103229080E+00  0.32696301441E+01  0.00000000000E+00 0. -1.
</event>
<event>
 7    1  0.5992960E-013  0.5052887E+02  0.7816164E-02  0.1300439E+00
        -11   -1    0    0    0    0  0.00000000000E+00  0.00000000000E+00  0.45593999997E+02  0.45594000000E+02  0.51100000000E-03 0.  1.
         11   -1    0    0    0    0 -0.00000000000E+00 -0.00000000000E+00 -0.45593999997E+02  0.45594000000E+02  0.51100000000E-03 0. -1.
    9900012    2    1    2    0    0  0.19638636922E+01  0.12825836222E+02 -0.38533180990E+02  0.50528869750E+02  0.30000030094E+02 0.  0.
        -12    1    1    2    0    0 -0.19638636922E+01 -0.12825836222E+02  0.38533180990E+02  0.40659130250E+02  0.00000000000E+00 0.  1.
         11    1    3    3    0    0  0.23149820202E+01  0.21434415305E+02 -0.27636139760E+02  0.35050670783E+02  0.51100000000E-03 0. -1.
        -11    1    3    3    0    0  0.31230891159E+01 -0.55057343233E+01 -0.60626247298E+01  0.87648282893E+01  0.51100000000E-03 0.  1.
        -12    1    3    3    0    0 -0.34742074439E+01 -0.31028447595E+01 -0.48344165003E+01  0.67133706782E+01  0.00000000000E+00 0.  1.
</event>
<event>
 7    1  0.5992960E-013  0.5052886E+02  0.7816164E-02  0.1300439E+00
        -11   -1    0    0    0    0  0.00000000000E+00  0.00000000000E+00  0.45593999997E+02  0.45594000000E+02  0.51100000000E-03 0. -1.
         11   -1    0    0    0    0 -0.00000000000E+00 -0.00000000000E+00 -0.45593999997E+02  0.45594000000E+02  0.51100000000E-03 0.  1.
    9900012    2    1    2    0    0 -0.31207751715E+02  0.12215053462E+02  0.23022468492E+02  0.50528863836E+02  0.30000012116E+02 0.  0.
        -12    1    1    2    0    0  0.31207751715E+02 -0.12215053462E+02 -0.23022468492E+02  0.40659136164E+02  0.00000000000E+00 0.  1.
         11    1    3    3    0    0 -0.60910852046E+01  0.73030469353E+01  0.90774341496E+01  0.13146696334E+02  0.51100000000E-03 0. -1.
        -11    1    3    3    0    0 -0.11755144361E+01  0.56714028830E+01  0.12031043533E+02  0.13352627217E+02  0.51100000000E-03 0.  1.
        -12    1    3    3    0    0 -0.23941152074E+02 -0.75939635614E+00  0.19139908090E+01  0.24029540284E+02  0.00000000000E+00 0.  1.
</event>
<event>
 7    1  0.5992960E-013  0.5052885E+02  0.7816164E-02  0.1300439E+00
        -11   -1    0    0    0    0  0.00000000000E+00  0.00000000000E+00  0.45593999997E+02  0.45594000000E+02  0.51100000000E-03 0. -1.
         11   -1    0    0    0    0 -0.00000000000E+00 -0.00000000000E+00 -0.45593999997E+02  0.45594000000E+02  0.51100000000E-03 0.  1.
    9900012    2    1    2    0    0 -0.21280323833E+02 -0.28622657472E+02  0.19520697174E+02  0.50528851935E+02  0.29999975943E+02 0.  0.
        -12    1    1    2    0    0  0.21280323833E+02  0.28622657472E+02 -0.19520697174E+02  0.40659148065E+02  0.00000000000E+00 0.  1.
         11    1    3    3    0    0 -0.11050537996E+02 -0.55607104203E+01  0.14493830257E+02  0.19055366859E+02  0.51100000000E-03 0. -1.
        -11    1    3    3    0    0 -0.10113516877E+02 -0.31269394424E+01  0.45771902002E+01  0.11533067428E+02  0.51100000000E-03 0.  1.
         12    1    3    3    0    0 -0.11626896015E+00 -0.19935007609E+02  0.44967671693E+00  0.19940417648E+02  0.00000000000E+00 0. -1.
</event>
<event>
 7    1  0.5992960E-013  0.5052886E+02  0.7816164E-02  0.1300439E+00
        -11   -1    0    0    0    0  0.00000000000E+00  0.00000000000E+00  0.45593999997E+02  0.45594000000E+02  0.51100000000E-03 0. -1.
         11   -1    0    0    0    0 -0.00000000000E+00 -0.00000000000E+00 -0.45593999997E+02  0.45594000000E+02  0.51100000000E-03 0.  1.
    9900012    2    1    2    0    0 -0.50505385311E+01  0.16385675392E+02  0.36866887200E+02  0.50528859953E+02  0.30000000314E+02 0.  0.
        -12    1    1    2    0    0  0.50505385311E+01 -0.16385675392E+02 -0.36866887200E+02  0.40659140047E+02  0.00000000000E+00 0.  1.
         11    1    3    3    0    0 -0.40225496555E+01 -0.24177408393E+01 -0.61743759982E+00  0.47336672832E+01  0.51100000000E-03 0. -1.
        -11    1    3    3    0    0  0.43618725265E+01 -0.12960074526E+01  0.27868460238E+01  0.53359233762E+01  0.51100000000E-03 0.  1.
         12    1    3    3    0    0 -0.53898614022E+01  0.20099423684E+02  0.34697478776E+02  0.40459269294E+02  0.00000000000E+00 0. -1.
</event>
<event>
 7    1  0.5992960E-013  0.5052886E+02  0.7816164E-02  0.1300439E+00
        -11   -1    0    0    0    0  0.00000000000E+00  0.00000000000E+00  0.45593999997E+02  0.45594000000E+02  0.51100000000E-03 0. -1.
         11   -1    0    0    0    0 -0.00000000000E+00 -0.00000000000E+00 -0.45593999997E+02  0.45594000000E+02  0.51100000000E-03 0.  1.
    9900012    2    1    2    0    0  0.27546607123E+02  0.21388255079E+02  0.20901974172E+02  0.50528861499E+02  0.30000005012E+02 0.  0.
        -12    1    1    2    0    0 -0.27546607123E+02 -0.21388255079E+02 -0.20901974172E+02  0.40659138501E+02  0.00000000000E+00 0.  1.
         11    1    3    3    0    0  0.13240093291E+02  0.21459492325E+02  0.10770849485E+02  0.27419355938E+02  0.51100000000E-03 0. -1.
        -11    1    3    3    0    0  0.67931026179E+01  0.57064714659E+01 -0.47612081987E+00  0.88846356743E+01  0.51100000000E-03 0.  1.
         12    1    3    3    0    0  0.75134112148E+01 -0.57777087113E+01  0.10607245508E+02  0.14224869887E+02  0.00000000000E+00 0. -1.
</event>
<event>
 7    1  0.5992960E-013  0.5052886E+02  0.7816164E-02  0.1300439E+00
        -11   -1    0    0    0    0  0.00000000000E+00  0.00000000000E+00  0.45593999997E+02  0.45594000000E+02  0.51100000000E-03 0.  1.
         11   -1    0    0    0    0 -0.00000000000E+00 -0.00000000000E+00 -0.45593999997E+02  0.45594000000E+02  0.51100000000E-03 0. -1.
    9900012    2    1    2    0    0  0.18974042896E+02 -0.24033983382E+02 -0.26749182767E+02  0.50528862776E+02  0.30000008895E+02 0.  0.
        -12    1    1    2    0    0 -0.18974042896E+02  0.24033983382E+02  0.26749182767E+02  0.40659137224E+02  0.00000000000E+00 0.  1.
         11    1    3    3    0    0  0.15442356852E+02 -0.20855561573E+02 -0.10221374926E+02  0.27890811019E+02  0.51100000000E-03 0. -1.
        -11    1    3    3    0    0  0.19660713388E+01  0.20570189895E+01  0.18970816796E+01  0.34198951435E+01  0.51100000000E-03 0.  1.
        -12    1    3    3    0    0  0.15656147055E+01 -0.52354407985E+01 -0.18424889521E+02  0.19218156613E+02  0.00000000000E+00 0.  1.
</event>
<event>
 7    1  0.5992960E-013  0.5052886E+02  0.7816164E-02  0.1300439E+00
        -11   -1    0    0    0    0  0.00000000000E+00  0.00000000000E+00  0.45593999997E+02  0.45594000000E+02  0.51100000000E-03 0.  1.
         11   -1    0    0    0    0 -0.00000000000E+00 -0.00000000000E+00 -0.45593999997E+02  0.45594000000E+02  0.51100000000E-03 0. -1.
    9900012    2    1    2    0    0  0.36546291388E+02 -0.12129157776E+02 -0.13054410081E+02  0.50528861973E+02  0.30000006452E+02 0.  0.
        -12    1    1    2    0    0 -0.36546291388E+02  0.12129157776E+02  0.13054410081E+02  0.40659138027E+02  0.00000000000E+00 0.  1.
         11    1    3    3    0    0  0.12768178432E+02 -0.11723986051E+01 -0.43136853840E+01  0.13528073803E+02  0.51100000000E-03 0. -1.
        -11    1    3    3    0    0  0.26130293747E+02 -0.11812944026E+02 -0.13445114527E+02  0.31671896104E+02  0.51100000000E-03 0.  1.
        -12    1    3    3    0    0 -0.23521807912E+01  0.85618485536E+00  0.47043898303E+01  0.53288920665E+01  0.00000000000E+00 0.  1.
</event>
<event>
 7    1  0.5992960E-013  0.5052885E+02  0.7816164E-02  0.1300439E+00
        -11   -1    0    0    0    0  0.00000000000E+00  0.00000000000E+00  0.45593999997E+02  0.45594000000E+02  0.51100000000E-03 0.  1.
         11   -1    0    0    0    0 -0.00000000000E+00 -0.00000000000E+00 -0.45593999997E+02  0.45594000000E+02  0.51100000000E-03 0. -1.
    9900012    2    1    2    0    0 -0.22589728372E+02 -0.11297201492E+02 -0.31862894383E+02  0.50528848165E+02  0.29999964482E+02 0.  0.
        -12    1    1    2    0    0  0.22589728372E+02  0.11297201492E+02  0.31862894383E+02  0.40659151835E+02  0.00000000000E+00 0.  1.
         11    1    3    3    0    0  0.91451343171E+00 -0.67292431034E+01 -0.71265838380E+01  0.98441477550E+01  0.51100000000E-03 0. -1.
        -11    1    3    3    0    0  0.42168475700E+01 -0.10665927327E+01 -0.29902874259E+01  0.52783749996E+01  0.51100000000E-03 0.  1.
        -12    1    3    3    0    0 -0.27721089374E+02 -0.35013656556E+01 -0.21746023119E+02  0.35406325410E+02  0.00000000000E+00 0.  1.
</event>
<event>
 7    1  0.5992960E-013  0.5052886E+02  0.7816164E-02  0.1300439E+00
        -11   -1    0    0    0    0  0.00000000000E+00  0.00000000000E+00  0.45593999997E+02  0.45594000000E+02  0.51100000000E-03 0. -1.
         11   -1    0    0    0    0 -0.00000000000E+00 -0.00000000000E+00 -0.45593999997E+02  0.45594000000E+02  0.51100000000E-03 0.  1.
    9900012    2    1    2    0    0  0.35817355850E+02  0.18061089960E+02  0.66392485422E+01  0.50528861152E+02  0.30000003957E+02 0.  0.
        -12    1    1    2    0    0 -0.35817355850E+02 -0.18061089960E+02 -0.66392485422E+01  0.40659138848E+02  0.00000000000E+00 0.  1.
         11    1    3    3    0    0  0.39567507390E+01  0.52098942395E+01 -0.37141464275E+01  0.75228823162E+01  0.51100000000E-03 0. -1.
        -11    1    3    3    0    0  0.62045434365E+01  0.11253274970E+02 -0.41338172503E+01  0.13498925962E+02  0.51100000000E-03 0.  1.
         12    1    3    3    0    0  0.25656061675E+02  0.15979207510E+01  0.14487212220E+02  0.29507052874E+02  0.00000000000E+00 0. -1.
</event>
<event>
 7    1  0.5992960E-013  0.5052891E+02  0.7816164E-02  0.1300439E+00
        -11   -1    0    0    0    0  0.00000000000E+00  0.00000000000E+00  0.45593999997E+02  0.45594000000E+02  0.51100000000E-03 0. -1.
         11   -1    0    0    0    0 -0.00000000000E+00 -0.00000000000E+00 -0.45593999997E+02  0.45594000000E+02  0.51100000000E-03 0.  1.
    9900012    2    1    2    0    0 -0.77575747144E+01  0.41185589130E+01  0.39699107280E+02  0.50528909850E+02  0.30000151980E+02 0.  0.
        -12    1    1    2    0    0  0.77575747144E+01 -0.41185589130E+01 -0.39699107280E+02  0.40659090150E+02  0.00000000000E+00 0.  1.
         11    1    3    3    0    0 -0.48435171370E+01  0.66756806094E+01  0.17799979406E+02  0.19617941711E+02  0.51100000000E-03 0. -1.
        -11    1    3    3    0    0  0.79043531256E+01 -0.13597835471E+01  0.17349917553E+02  0.19114064167E+02  0.51100000000E-03 0.  1.
        -12    1    3    3    0    0 -0.10818410703E+02 -0.11973381494E+01  0.45492103214E+01  0.11796903972E+02  0.00000000000E+00 0.  1.
</event>
<event>
 7    1  0.5992960E-013  0.5052884E+02  0.7816164E-02  0.1300439E+00
        -11   -1    0    0    0    0  0.00000000000E+00  0.00000000000E+00  0.45593999997E+02  0.45594000000E+02  0.51100000000E-03 0.  1.
         11   -1    0    0    0    0 -0.00000000000E+00 -0.00000000000E+00 -0.45593999997E+02  0.45594000000E+02  0.51100000000E-03 0. -1.
    9900012    2    1    2    0    0 -0.34660592017E+02  0.15019999720E+02 -0.15040277867E+02  0.50528843726E+02  0.29999950989E+02 0.  0.
        -12    1    1    2    0    0  0.34660592017E+02 -0.15019999720E+02  0.15040277867E+02  0.40659156274E+02  0.00000000000E+00 0.  1.
         11    1    3    3    0    0 -0.25788900917E+02  0.25735544610E-01 -0.45649063057E-01  0.25788954165E+02  0.51100000000E-03 0.  1.
        -11    1    3    3    0    0 -0.97482205241E+01  0.93919836116E+01 -0.12888589579E+02  0.18690984489E+02  0.51100000000E-03 0. -1.
        -12    1    3    3    0    0  0.87652942406E+00  0.56022805641E+01 -0.21060392249E+01  0.60489050717E+01  0.00000000000E+00 0.  1.
</event>
<event>
 7    1  0.5992960E-013  0.5052885E+02  0.7816164E-02  0.1300439E+00
        -11   -1    0    0    0    0  0.00000000000E+00  0.00000000000E+00  0.45593999997E+02  0.45594000000E+02  0.51100000000E-03 0. -1.
         11   -1    0    0    0    0 -0.00000000000E+00 -0.00000000000E+00 -0.45593999997E+02  0.45594000000E+02  0.51100000000E-03 0.  1.
    9900012    2    1    2    0    0 -0.30104694989E+02  0.18302104755E+02 -0.20295484335E+02  0.50528851174E+02  0.29999973629E+02 0.  0.
        -12    1    1    2    0    0  0.30104694989E+02 -0.18302104755E+02  0.20295484335E+02  0.40659148826E+02  0.00000000000E+00 0.  1.
         11    1    3    3    0    0 -0.83929115756E+01  0.29464090339E+01  0.26993994213E+01  0.92956467450E+01  0.51100000000E-03 0. -1.
        -11    1    3    3    0    0 -0.24224000702E+01  0.33113210971E+01  0.41403584871E+01  0.58288453548E+01  0.51100000000E-03 0.  1.
        -12    1    3    3    0    0 -0.19289383343E+02  0.12044374624E+02 -0.27135242244E+02  0.35404359074E+02  0.00000000000E+00 0.  1.
</event>
<event>
 7    1  0.5992960E-013  0.5052886E+02  0.7816164E-02  0.1300439E+00
        -11   -1    0    0    0    0  0.00000000000E+00  0.00000000000E+00  0.45593999997E+02  0.45594000000E+02  0.51100000000E-03 0.  1.
         11   -1    0    0    0    0 -0.00000000000E+00 -0.00000000000E+00 -0.45593999997E+02  0.45594000000E+02  0.51100000000E-03 0. -1.
    9900012    2    1    2    0    0  0.22680448959E+02 -0.16051078752E+02 -0.29683763506E+02  0.50528859454E+02  0.29999998795E+02 0.  0.
        -12    1    1    2    0    0 -0.22680448959E+02  0.16051078752E+02  0.29683763506E+02  0.40659140546E+02  0.00000000000E+00 0.  1.
         11    1    3    3    0    0  0.23745541718E+01  0.23020050130E+01 -0.82017097812E+01  0.88434030888E+01  0.51100000000E-03 0. -1.
        -11    1    3    3    0    0  0.14010092819E+02 -0.35453573839E+01 -0.21119609878E+02  0.25590822211E+02  0.51100000000E-03 0.  1.
        -12    1    3    3    0    0  0.62958019683E+01 -0.14807726381E+02 -0.36244384661E+00  0.16094634154E+02  0.00000000000E+00 0.  1.
</event>
<event>
 7    1  0.5992960E-013  0.5052886E+02  0.7816164E-02  0.1300439E+00
        -11   -1    0    0    0    0  0.00000000000E+00  0.00000000000E+00  0.45593999997E+02  0.45594000000E+02  0.51100000000E-03 0.  1.
         11   -1    0    0    0    0 -0.00000000000E+00 -0.00000000000E+00 -0.45593999997E+02  0.45594000000E+02  0.51100000000E-03 0. -1.
    9900012    2    1    2    0    0 -0.40287129668E+02  0.11618001042E+01 -0.53631453266E+01  0.50528856820E+02  0.29999990790E+02 0.  0.
        -12    1    1    2    0    0  0.40287129668E+02 -0.11618001042E+01  0.53631453266E+01  0.40659143180E+02  0.00000000000E+00 0.  1.
         11    1    3    3    0    0 -0.19074733440E+02  0.49510414703E+01 -0.13939661370E+02  0.24138608635E+02  0.51100000000E-03 0. -1.
        -11    1    3    3    0    0 -0.15652151094E+02 -0.62995152897E+01  0.13401314072E+01  0.16925415186E+02  0.51100000000E-03 0.  1.
        -12    1    3    3    0    0 -0.55602451331E+01  0.25102739236E+01  0.72363846358E+01  0.94648329995E+01  0.00000000000E+00 0.  1.
</event>
<event>
 7    1  0.5992960E-013  0.5052886E+02  0.7816164E-02  0.1300439E+00
        -11   -1    0    0    0    0  0.00000000000E+00  0.00000000000E+00  0.45593999997E+02  0.45594000000E+02  0.51100000000E-03 0. -1.
         11   -1    0    0    0    0 -0.00000000000E+00 -0.00000000000E+00 -0.45593999997E+02  0.45594000000E+02  0.51100000000E-03 0.  1.
    9900012    2    1    2    0    0  0.24509838193E+02 -0.14684197201E+02  0.28927631274E+02  0.50528859984E+02  0.30000000408E+02 0.  0.
        -12    1    1    2    0    0 -0.24509838193E+02  0.14684197201E+02 -0.28927631274E+02  0.40659140016E+02  0.00000000000E+00 0.  1.
         11    1    3    3    0    0  0.17936508630E+02 -0.71744430111E+01  0.13969946179E+02  0.23840100060E+02  0.51100000000E-03 0. -1.
        -11    1    3    3    0    0  0.11454844335E+02 -0.94006107220E+01  0.15478203266E+02  0.21428012443E+02  0.51100000000E-03 0.  1.
        -12    1    3    3    0    0 -0.48815147717E+01  0.18908565320E+01 -0.52051817096E+00  0.52607474809E+01  0.00000000000E+00 0.  1.
</event>
<event>
 7    1  0.5992960E-013  0.5052886E+02  0.7816164E-02  0.1300439E+00
        -11   -1    0    0    0    0  0.00000000000E+00  0.00000000000E+00  0.45593999997E+02  0.45594000000E+02  0.51100000000E-03 0.  1.
         11   -1    0    0    0    0 -0.00000000000E+00 -0.00000000000E+00 -0.45593999997E+02  0.45594000000E+02  0.51100000000E-03 0. -1.
    9900012    2    1    2    0    0  0.22105273516E+02 -0.34043040592E+02  0.23650822316E+01  0.50528863956E+02  0.30000012479E+02 0.  0.
        -12    1    1    2    0    0 -0.22105273516E+02  0.34043040592E+02 -0.23650822316E+01  0.40659136044E+02  0.00000000000E+00 0.  1.
         11    1    3    3    0    0  0.63072822202E+01 -0.89109982125E+01 -0.61535349990E+01  0.12532106423E+02  0.51100000000E-03 0. -1.
        -11    1    3    3    0    0  0.98848381756E+01 -0.14854783550E+02 -0.63857782873E+01  0.18951326726E+02  0.51100000000E-03 0.  1.
        -12    1    3    3    0    0  0.59131531198E+01 -0.10277258829E+02  0.14904395518E+02  0.19045430806E+02  0.00000000000E+00 0.  1.
</event>
<event>
 7    1  0.5992960E-013  0.5052886E+02  0.7816164E-02  0.1300439E+00
        -11   -1    0    0    0    0  0.00000000000E+00  0.00000000000E+00  0.45593999997E+02  0.45594000000E+02  0.51100000000E-03 0.  1.
         11   -1    0    0    0    0 -0.00000000000E+00 -0.00000000000E+00 -0.45593999997E+02  0.45594000000E+02  0.51100000000E-03 0. -1.
    9900012    2    1    2    0    0 -0.32401306511E+02 -0.21830495301E+02 -0.11258355904E+02  0.50528858760E+02  0.29999996686E+02 0.  0.
        -12    1    1    2    0    0  0.32401306511E+02  0.21830495301E+02  0.11258355904E+02  0.40659141240E+02  0.00000000000E+00 0.  1.
         11    1    3    3    0    0 -0.24874680248E+02 -0.18618624207E+01 -0.13119564329E+02  0.28184024155E+02  0.51100000000E-03 0. -1.
        -11    1    3    3    0    0 -0.39837166520E+01 -0.45071286599E+01  0.23926263282E+01  0.64737059037E+01  0.51100000000E-03 0.  1.
        -12    1    3    3    0    0 -0.35429096119E+01 -0.15461504220E+02 -0.53141790313E+00  0.15871128701E+02  0.00000000000E+00 0.  1.
</event>
<event>
 7    1  0.5992960E-013  0.5052885E+02  0.7816164E-02  0.1300439E+00
        -11   -1    0    0    0    0  0.00000000000E+00  0.00000000000E+00  0.45593999997E+02  0.45594000000E+02  0.51100000000E-03 0. -1.
         11   -1    0    0    0    0 -0.00000000000E+00 -0.00000000000E+00 -0.45593999997E+02  0.45594000000E+02  0.51100000000E-03 0.  1.
    9900012    2    1    2    0    0  0.19933862873E+02 -0.34226673367E+02  0.91837969711E+01  0.50528853604E+02  0.29999981016E+02 0.  0.
        -12    1    1    2    0    0 -0.19933862873E+02  0.34226673367E+02 -0.91837969711E+01  0.40659146396E+02  0.00000000000E+00 0.  1.
         11    1    3    3    0    0  0.11772573046E+02 -0.28464821777E+02  0.49424639414E+00  0.30807204266E+02  0.51100000000E-03 0. -1.
        -11    1    3    3    0    0  0.39036970157E+01 -0.61407081036E+01 -0.25392416665E+01  0.77068083475E+01  0.51100000000E-03 0.  1.
         12    1    3    3    0    0  0.42575928106E+01  0.37885651287E+00  0.11228792244E+02  0.12014840991E+02  0.00000000000E+00 0. -1.
</event>
<event>
 7    1  0.5992960E-013  0.5052886E+02  0.7816164E-02  0.1300439E+00
        -11   -1    0    0    0    0  0.00000000000E+00  0.00000000000E+00  0.45593999997E+02  0.45594000000E+02  0.51100000000E-03 0. -1.
         11   -1    0    0    0    0 -0.00000000000E+00 -0.00000000000E+00 -0.45593999997E+02  0.45594000000E+02  0.51100000000E-03 0.  1.
    9900012    2    1    2    0    0 -0.95270300705E+01 -0.23414105256E+02  0.31846212434E+02  0.50528857445E+02  0.29999992690E+02 0.  0.
        -12    1    1    2    0    0  0.95270300705E+01  0.23414105256E+02 -0.31846212434E+02  0.40659142555E+02  0.00000000000E+00 0.  1.
         11    1    3    3    0    0  0.73060164075E+01 -0.39137688562E+01  0.98579222176E+01  0.12879211665E+02  0.51100000000E-03 0. -1.
        -11    1    3    3    0    0  0.21012129155E+01 -0.41194381493E+01 -0.26251715128E+00  0.46318227403E+01  0.51100000000E-03 0.  1.
        -12    1    3    3    0    0 -0.18934259393E+02 -0.15380898251E+02  0.22250807367E+02  0.33017823040E+02  0.00000000000E+00 0.  1.
</event>
<event>
 7    1  0.5992960E-013  0.5052886E+02  0.7816164E-02  0.1300439E+00
        -11   -1    0    0    0    0  0.00000000000E+00  0.00000000000E+00  0.45593999997E+02  0.45594000000E+02  0.51100000000E-03 0.  1.
         11   -1    0    0    0    0 -0.00000000000E+00 -0.00000000000E+00 -0.45593999997E+02  0.45594000000E+02  0.51100000000E-03 0. -1.
    9900012    2    1    2    0    0 -0.23660588184E+02 -0.28476460783E+02 -0.16805753823E+02  0.50528860640E+02  0.30000002402E+02 0.  0.
        -12    1    1    2    0    0  0.23660588184E+02  0.28476460783E+02  0.16805753823E+02  0.40659139360E+02  0.00000000000E+00 0.  1.
         11    1    3    3    0    0 -0.57673768425E+01 -0.16556829912E+02  0.19775081634E+01  0.17643746518E+02  0.51100000000E-03 0. -1.
        -11    1    3    3    0    0  0.21276184689E+01 -0.13857264619E+01  0.10992496713E+01  0.27668300052E+01  0.51100000000E-03 0.  1.
         12    1    3    3    0    0 -0.20020829810E+02 -0.10533904409E+02 -0.19882511657E+02  0.30118284117E+02  0.00000000000E+00 0. -1.
</event>
<event>
 7    1  0.5992960E-013  0.5052885E+02  0.7816164E-02  0.1300439E+00
        -11   -1    0    0    0    0  0.00000000000E+00  0.00000000000E+00  0.45593999997E+02  0.45594000000E+02  0.51100000000E-03 0.  1.
         11   -1    0    0    0    0 -0.00000000000E+00 -0.00000000000E+00 -0.45593999997E+02  0.45594000000E+02  0.51100000000E-03 0. -1.
    9900012    2    1    2    0    0 -0.19083447285E+02  0.20275352726E+02 -0.29629347845E+02  0.50528854139E+02  0.29999982642E+02 0.  0.
        -12    1    1    2    0    0  0.19083447285E+02 -0.20275352726E+02  0.29629347845E+02  0.40659145861E+02  0.00000000000E+00 0.  1.
         11    1    3    3    0    0  0.48950517177E+01  0.15959107997E+01 -0.25697877052E+01  0.57543263472E+01  0.51100000000E-03 0. -1.
        -11    1    3    3    0    0  0.27139460860E+01  0.71994995185E+00 -0.51024477661E+01  0.58239852986E+01  0.51100000000E-03 0.  1.
        -12    1    3    3    0    0 -0.26692445088E+02  0.17959491974E+02 -0.21957112373E+02  0.38950542494E+02  0.00000000000E+00 0.  1.
</event>
<event>
 7    1  0.5992960E-013  0.5052886E+02  0.7816164E-02  0.1300439E+00
        -11   -1    0    0    0    0  0.00000000000E+00  0.00000000000E+00  0.45593999997E+02  0.45594000000E+02  0.51100000000E-03 0.  1.
         11   -1    0    0    0    0 -0.00000000000E+00 -0.00000000000E+00 -0.45593999997E+02  0.45594000000E+02  0.51100000000E-03 0. -1.
    9900012    2    1    2    0    0 -0.99717592746E+01  0.25579115062E+02 -0.29990638273E+02  0.50528862104E+02  0.30000006853E+02 0.  0.
        -12    1    1    2    0    0  0.99717592746E+01 -0.25579115062E+02  0.29990638273E+02  0.40659137896E+02  0.00000000000E+00 0.  1.
         11    1    3    3    0    0  0.22961777505E+01  0.20398905495E+02 -0.15369601730E+02  0.25643955141E+02  0.51100000000E-03 0. -1.
        -11    1    3    3    0    0 -0.11910326576E+00  0.23837075906E+00 -0.11369179046E+02  0.11372301379E+02  0.51100000000E-03 0.  1.
         12    1    3    3    0    0 -0.12148833759E+02  0.49418388076E+01 -0.32518574969E+01  0.13512605585E+02  0.00000000000E+00 0. -1.
</event>
<event>
 7    1  0.5992960E-013  0.5052886E+02  0.7816164E-02  0.1300439E+00
        -11   -1    0    0    0    0  0.00000000000E+00  0.00000000000E+00  0.45593999997E+02  0.45594000000E+02  0.51100000000E-03 0. -1.
         11   -1    0    0    0    0 -0.00000000000E+00 -0.00000000000E+00 -0.45593999997E+02  0.45594000000E+02  0.51100000000E-03 0.  1.
    9900012    2    1    2    0    0 -0.86167661944E+01  0.11871020578E+02  0.37920916895E+02  0.50528859240E+02  0.29999998145E+02 0.  0.
        -12    1    1    2    0    0  0.86167661944E+01 -0.11871020578E+02 -0.37920916895E+02  0.40659140760E+02  0.00000000000E+00 0.  1.
         11    1    3    3    0    0 -0.16260451918E+01 -0.33184845795E+01  0.28696481512E+01  0.46788079297E+01  0.51100000000E-03 0. -1.
        -11    1    3    3    0    0 -0.68555308635E+01  0.14386135277E+01 -0.11739251417E+01  0.71025356600E+01  0.51100000000E-03 0.  1.
         12    1    3    3    0    0 -0.13519013910E+00  0.13750891630E+02  0.36225193885E+02  0.38747515650E+02  0.00000000000E+00 0. -1.
</event>
<event>
 7    1  0.5992960E-013  0.5052884E+02  0.7816164E-02  0.1300439E+00
        -11   -1    0    0    0    0  0.00000000000E+00  0.00000000000E+00  0.45593999997E+02  0.45594000000E+02  0.51100000000E-03 0. -1.
         11   -1    0    0    0    0 -0.00000000000E+00 -0.00000000000E+00 -0.45593999997E+02  0.45594000000E+02  0.51100000000E-03 0.  1.
    9900012    2    1    2    0    0 -0.33351346977E+02 -0.22391874346E+02  0.62816122581E+01  0.50528843165E+02  0.29999949286E+02 0.  0.
        -12    1    1    2    0    0  0.33351346977E+02  0.22391874346E+02 -0.62816122581E+01  0.40659156835E+02  0.00000000000E+00 0.  1.
         11    1    3    3    0    0 -0.10467854642E+02 -0.14093914854E+02  0.50560031048E+01  0.18269580849E+02  0.51100000000E-03 0. -1.
        -11    1    3    3    0    0 -0.28975431740E+01 -0.22372782165E-01 -0.81750099414E+01  0.86733525691E+01  0.51100000000E-03 0.  1.
         12    1    3    3    0    0 -0.19985949161E+02 -0.82755867100E+01  0.94006190947E+01  0.23585909748E+02  0.00000000000E+00 0. -1.
</event>
<event>
 7    1  0.5992960E-013  0.5052886E+02  0.7816164E-02  0.1300439E+00
        -11   -1    0    0    0    0  0.00000000000E+00  0.00000000000E+00  0.45593999997E+02  0.45594000000E+02  0.51100000000E-03 0.  1.
         11   -1    0    0    0    0 -0.00000000000E+00 -0.00000000000E+00 -0.45593999997E+02  0.45594000000E+02  0.51100000000E-03 0. -1.
    9900012    2    1    2    0    0 -0.35219412835E+02  0.20172806410E+02  0.24117614175E+01  0.50528858937E+02  0.29999997224E+02 0.  0.
        -12    1    1    2    0    0  0.35219412835E+02 -0.20172806410E+02 -0.24117614175E+01  0.40659141063E+02  0.00000000000E+00 0.  1.
         11    1    3    3    0    0 -0.17370243677E+02  0.17982612844E+02  0.70223438323E+00  0.25011854459E+02  0.51100000000E-03 0. -1.
        -11    1    3    3    0    0 -0.96006643610E+01  0.10167970658E+02  0.90854358312E+00  0.14013773053E+02  0.51100000000E-03 0.  1.
         12    1    3    3    0    0 -0.82485047968E+01 -0.79777770922E+01  0.80098345117E+00  0.11503231424E+02  0.00000000000E+00 0. -1.
</event>
<event>
 7    1  0.6410088E-013  0.5052887E+02  0.7816164E-02  0.1300439E+00
        -11   -1    0    0    0    0  0.00000000000E+00  0.00000000000E+00  0.45593999997E+02  0.45594000000E+02  0.51100000000E-03 0.  1.
         11   -1    0    0    0    0 -0.00000000000E+00 -0.00000000000E+00 -0.45593999997E+02  0.45594000000E+02  0.51100000000E-03 0. -1.
    9900012    2    1    2    0    0 -0.15820706341E+01 -0.38619658800E+02 -0.12616805167E+02  0.50528871063E+02  0.30000034083E+02 0.  0.
        -12    1    1    2    0    0  0.15820706341E+01  0.38619658800E+02  0.12616805167E+02  0.40659128937E+02  0.00000000000E+00 0.  1.
         11    1    3    3    0    0  0.16471293910E+01 -0.18746766944E+02 -0.96637256720E+01  0.21155186130E+02  0.51100000000E-03 0. -1.
        -11    1    3    3    0    0 -0.44744881483E+01 -0.93221357751E+01 -0.11698341282E+02  0.15613277958E+02  0.51100000000E-03 0.  1.
        -12    1    3    3    0    0  0.12452881232E+01 -0.10550756081E+02  0.87452617869E+01  0.13760406974E+02  0.00000000000E+00 0.  1.
</event>
<event>
 7    1  0.5992960E-013  0.5052886E+02  0.7816164E-02  0.1300439E+00
        -11   -1    0    0    0    0  0.00000000000E+00  0.00000000000E+00  0.45593999997E+02  0.45594000000E+02  0.51100000000E-03 0.  1.
         11   -1    0    0    0    0 -0.00000000000E+00 -0.00000000000E+00 -0.45593999997E+02  0.45594000000E+02  0.51100000000E-03 0. -1.
    9900012    2    1    2    0    0  0.24940297280E+02 -0.11968517296E+02 -0.29797677988E+02  0.50528862673E+02  0.30000008582E+02 0.  0.
        -12    1    1    2    0    0 -0.24940297280E+02  0.11968517296E+02  0.29797677988E+02  0.40659137327E+02  0.00000000000E+00 0.  1.
         11    1    3    3    0    0  0.12040679571E+02  0.25250740130E+01 -0.14463783404E+01  0.12387331184E+02  0.51100000000E-03 0. -1.
        -11    1    3    3    0    0  0.68599246215E+01  0.23001688524E+01 -0.52010338505E+01  0.89106731473E+01  0.51100000000E-03 0.  1.
         12    1    3    3    0    0  0.60396930882E+01 -0.16793760161E+02 -0.23150265797E+02  0.29230858342E+02  0.00000000000E+00 0. -1.
</event>
<event>
 7    1  0.5992960E-013  0.5052886E+02  0.7816164E-02  0.1300439E+00
        -11   -1    0    0    0    0  0.00000000000E+00  0.00000000000E+00  0.45593999997E+02  0.45594000000E+02  0.51100000000E-03 0.  1.
         11   -1    0    0    0    0 -0.00000000000E+00 -0.00000000000E+00 -0.45593999997E+02  0.45594000000E+02  0.51100000000E-03 0. -1.
    9900012    2    1    2    0    0 -0.10824248754E+02 -0.39186152848E+02  0.66839041937E+00  0.50528859799E+02  0.29999999845E+02 0.  0.
        -12    1    1    2    0    0  0.10824248754E+02  0.39186152848E+02 -0.66839041937E+00  0.40659140201E+02  0.00000000000E+00 0.  1.
         11    1    3    3    0    0 -0.48275850307E+01 -0.10408223728E+02  0.38628498016E+01  0.12106126847E+02  0.51100000000E-03 0.  1.
        -11    1    3    3    0    0 -0.11459712868E+02 -0.27877664493E+02  0.27898375270E+01  0.30269991581E+02  0.51100000000E-03 0. -1.
        -12    1    3    3    0    0  0.54630491449E+01 -0.90026462725E+00 -0.59842969093E+01  0.81527413707E+01  0.00000000000E+00 0.  1.
</event>
<event>
 7    1  0.5992960E-013  0.5052886E+02  0.7816164E-02  0.1300439E+00
        -11   -1    0    0    0    0  0.00000000000E+00  0.00000000000E+00  0.45593999997E+02  0.45594000000E+02  0.51100000000E-03 0.  1.
         11   -1    0    0    0    0 -0.00000000000E+00 -0.00000000000E+00 -0.45593999997E+02  0.45594000000E+02  0.51100000000E-03 0. -1.
    9900012    2    1    2    0    0 -0.12026028927E+02  0.21792396329E+02 -0.32150145800E+02  0.50528858537E+02  0.29999996010E+02 0.  0.
        -12    1    1    2    0    0  0.12026028927E+02 -0.21792396329E+02  0.32150145800E+02  0.40659141463E+02  0.00000000000E+00 0.  1.
         11    1    3    3    0    0 -0.12016813082E+02  0.98947260353E+01 -0.16558810402E+02  0.22726715604E+02  0.51100000000E-03 0. -1.
        -11    1    3    3    0    0 -0.19572927322E+01  0.17227709205E+02 -0.12005989340E+02  0.21089541000E+02  0.51100000000E-03 0.  1.
         12    1    3    3    0    0  0.19480768876E+01 -0.53300389115E+01 -0.35853460592E+01  0.67126019339E+01  0.00000000000E+00 0. -1.
</event>
<event>
 7    1  0.5992960E-013  0.5052885E+02  0.7816164E-02  0.1300439E+00
        -11   -1    0    0    0    0  0.00000000000E+00  0.00000000000E+00  0.45593999997E+02  0.45594000000E+02  0.51100000000E-03 0.  1.
         11   -1    0    0    0    0 -0.00000000000E+00 -0.00000000000E+00 -0.45593999997E+02  0.45594000000E+02  0.51100000000E-03 0. -1.
    9900012    2    1    2    0    0 -0.13331820785E+02 -0.33608253376E+02  0.18598782327E+02  0.50528845503E+02  0.29999956390E+02 0.  0.
        -12    1    1    2    0    0  0.13331820785E+02  0.33608253376E+02 -0.18598782327E+02  0.40659154497E+02  0.00000000000E+00 0.  1.
         11    1    3    3    0    0 -0.61660238029E+01 -0.81848823121E+01 -0.11673429935E+01  0.10313817815E+02  0.51100000000E-03 0. -1.
        -11    1    3    3    0    0 -0.14819609718E+02 -0.13680475957E+02  0.72772672131E+01  0.21441428893E+02  0.51100000000E-03 0.  1.
        -12    1    3    3    0    0  0.76538127359E+01 -0.11742895106E+02  0.12488858107E+02  0.18773598794E+02  0.00000000000E+00 0.  1.
</event>
<event>
 7    1  0.5992960E-013  0.5052887E+02  0.7816164E-02  0.1300439E+00
        -11   -1    0    0    0    0  0.00000000000E+00  0.00000000000E+00  0.45593999997E+02  0.45594000000E+02  0.51100000000E-03 0. -1.
         11   -1    0    0    0    0 -0.00000000000E+00 -0.00000000000E+00 -0.45593999997E+02  0.45594000000E+02  0.51100000000E-03 0.  1.
    9900012    2    1    2    0    0  0.36986216503E+02  0.15011101868E+02 -0.77363878439E+01  0.50528867110E+02  0.30000022068E+02 0.  0.
        -12    1    1    2    0    0 -0.36986216503E+02 -0.15011101868E+02  0.77363878439E+01  0.40659132890E+02  0.00000000000E+00 0.  1.
         11    1    3    3    0    0  0.20766848273E+02  0.62327075147E+01 -0.27866435837E+01  0.21860329661E+02  0.51100000000E-03 0. -1.
        -11    1    3    3    0    0  0.37010156662E+01 -0.55911783653E+01 -0.67646538971E+01  0.95246698149E+01  0.51100000000E-03 0.  1.
         12    1    3    3    0    0  0.12518352564E+02  0.14369572718E+02  0.18149096368E+01  0.19143867635E+02  0.00000000000E+00 0. -1.
</event>
<event>
 7    1  0.5992960E-013  0.5052886E+02  0.7816164E-02  0.1300439E+00
        -11   -1    0    0    0    0  0.00000000000E+00  0.00000000000E+00  0.45593999997E+02  0.45594000000E+02  0.51100000000E-03 0.  1.
         11   -1    0    0    0    0 -0.00000000000E+00 -0.00000000000E+00 -0.45593999997E+02  0.45594000000E+02  0.51100000000E-03 0. -1.
    9900012    2    1    2    0    0  0.31149182045E+02  0.12029204608E+02 -0.23198967536E+02  0.50528863261E+02  0.30000010369E+02 0.  0.
        -12    1    1    2    0    0 -0.31149182045E+02 -0.12029204608E+02  0.23198967536E+02  0.40659136739E+02  0.00000000000E+00 0.  1.
         11    1    3    3    0    0  0.23043433806E+02  0.67744947004E+01 -0.12993799286E+02  0.27308102097E+02  0.51100000000E-03 0. -1.
        -11    1    3    3    0    0  0.12736849926E+02 -0.61503191417E+00 -0.36148658920E+01  0.13254164099E+02  0.51100000000E-03 0.  1.
        -12    1    3    3    0    0 -0.46311016862E+01  0.58697418222E+01 -0.65903023580E+01  0.99665970651E+01  0.00000000000E+00 0.  1.
</event>
<event>
 7    1  0.5992960E-013  0.5052886E+02  0.7816164E-02  0.1300439E+00
        -11   -1    0    0    0    0  0.00000000000E+00  0.00000000000E+00  0.45593999997E+02  0.45594000000E+02  0.51100000000E-03 0. -1.
         11   -1    0    0    0    0 -0.00000000000E+00 -0.00000000000E+00 -0.45593999997E+02  0.45594000000E+02  0.51100000000E-03 0.  1.
    9900012    2    1    2    0    0 -0.93952955892E+01  0.16647533830E+02  0.35885288437E+02  0.50528857264E+02  0.29999992139E+02 0.  0.
        -12    1    1    2    0    0  0.93952955892E+01 -0.16647533830E+02 -0.35885288437E+02  0.40659142736E+02  0.00000000000E+00 0.  1.
         11    1    3    3    0    0 -0.52040378890E+01  0.24773676723E+02  0.28574251820E+02  0.38174663536E+02  0.51100000000E-03 0. -1.
        -11    1    3    3    0    0  0.18817043023E+00 -0.65261524023E+00  0.21868249560E+01  0.22898730122E+01  0.51100000000E-03 0.  1.
         12    1    3    3    0    0 -0.43794281304E+01 -0.74735276529E+01  0.51242116610E+01  0.10064320716E+02  0.00000000000E+00 0. -1.
</event>
<event>
 7    1  0.5992960E-013  0.5052885E+02  0.7816164E-02  0.1300439E+00
        -11   -1    0    0    0    0  0.00000000000E+00  0.00000000000E+00  0.45593999997E+02  0.45594000000E+02  0.51100000000E-03 0.  1.
         11   -1    0    0    0    0 -0.00000000000E+00 -0.00000000000E+00 -0.45593999997E+02  0.45594000000E+02  0.51100000000E-03 0. -1.
    9900012    2    1    2    0    0 -0.71860264696E+01 -0.17919411725E+02 -0.35782984981E+02  0.50528852110E+02  0.29999976473E+02 0.  0.
        -12    1    1    2    0    0  0.71860264696E+01  0.17919411725E+02  0.35782984981E+02  0.40659147890E+02  0.00000000000E+00 0.  1.
         11    1    3    3    0    0 -0.68902619141E+01 -0.77659758177E+01 -0.62475621955E+01  0.12116852863E+02  0.51100000000E-03 0. -1.
        -11    1    3    3    0    0 -0.11262042602E+02 -0.53995093928E+01 -0.13216930202E+02  0.18184486506E+02  0.51100000000E-03 0.  1.
        -12    1    3    3    0    0  0.10966278046E+02 -0.47539265141E+01 -0.16318492584E+02  0.20227512742E+02  0.00000000000E+00 0.  1.
</event>
<event>
 7    1  0.5992960E-013  0.5052887E+02  0.7816164E-02  0.1300439E+00
        -11   -1    0    0    0    0  0.00000000000E+00  0.00000000000E+00  0.45593999997E+02  0.45594000000E+02  0.51100000000E-03 0. -1.
         11   -1    0    0    0    0 -0.00000000000E+00 -0.00000000000E+00 -0.45593999997E+02  0.45594000000E+02  0.51100000000E-03 0.  1.
    9900012    2    1    2    0    0 -0.22202201708E+02 -0.10690723365E+02  0.32340930803E+02  0.50528866561E+02  0.30000020400E+02 0.  0.
        -12    1    1    2    0    0  0.22202201708E+02  0.10690723365E+02 -0.32340930803E+02  0.40659133439E+02  0.00000000000E+00 0.  1.
         11    1    3    3    0    0  0.65390671999E+00 -0.23062928483E+01  0.21742797046E+02  0.21874546951E+02  0.51100000000E-03 0. -1.
        -11    1    3    3    0    0 -0.49356323614E+01  0.22034927175E+01  0.25416063724E+00  0.54111408089E+01  0.51100000000E-03 0.  1.
        -12    1    3    3    0    0 -0.17920476067E+02 -0.10587923234E+02  0.10343973121E+02  0.23243178801E+02  0.00000000000E+00 0.  1.
</event>
<event>
 7    1  0.5992960E-013  0.5052879E+02  0.7816164E-02  0.1300439E+00
        -11   -1    0    0    0    0  0.00000000000E+00  0.00000000000E+00  0.45593999997E+02  0.45594000000E+02  0.51100000000E-03 0.  1.
         11   -1    0    0    0    0 -0.00000000000E+00 -0.00000000000E+00 -0.45593999997E+02  0.45594000000E+02  0.51100000000E-03 0. -1.
    9900012    2    1    2    0    0  0.34525481232E+02  0.17074182426E+02 -0.13024396857E+02  0.50528788580E+02  0.29999783366E+02 0.  0.
        -12    1    1    2    0    0 -0.34525481232E+02 -0.17074182426E+02  0.13024396857E+02  0.40659211420E+02  0.00000000000E+00 0.  1.
         11    1    3    3    0    0  0.14632130447E+02  0.20651202738E+01 -0.64991887364E+01  0.16143215840E+02  0.51100000000E-03 0. -1.
        -11    1    3    3    0    0  0.19257076562E+02  0.36490099328E+01  0.26382457814E+01  0.19776516687E+02  0.51100000000E-03 0.  1.
        -12    1    3    3    0    0  0.63627422244E+00  0.11360052220E+02 -0.91634539025E+01  0.14609056053E+02  0.00000000000E+00 0.  1.
</event>
<event>
 7    1  0.5992960E-013  0.5052886E+02  0.7816164E-02  0.1300439E+00
        -11   -1    0    0    0    0  0.00000000000E+00  0.00000000000E+00  0.45593999997E+02  0.45594000000E+02  0.51100000000E-03 0. -1.
         11   -1    0    0    0    0 -0.00000000000E+00 -0.00000000000E+00 -0.45593999997E+02  0.45594000000E+02  0.51100000000E-03 0.  1.
    9900012    2    1    2    0    0 -0.28799010947E+02 -0.20172639701E+02  0.20416835443E+02  0.50528860885E+02  0.30000003147E+02 0.  0.
        -12    1    1    2    0    0  0.28799010947E+02  0.20172639701E+02 -0.20416835443E+02  0.40659139115E+02  0.00000000000E+00 0.  1.
         11    1    3    3    0    0 -0.50051444138E+01 -0.16360462559E+01 -0.10486994131E+01  0.53691608911E+01  0.51100000000E-03 0. -1.
        -11    1    3    3    0    0 -0.14714292425E+02 -0.23802948766E+02  0.10258382553E+02  0.29804784589E+02  0.51100000000E-03 0.  1.
         12    1    3    3    0    0 -0.90795741078E+01  0.52663553209E+01  0.11207152303E+02  0.15354915405E+02  0.00000000000E+00 0. -1.
</event>
<event>
 7    1  0.5992960E-013  0.5052886E+02  0.7816164E-02  0.1300439E+00
        -11   -1    0    0    0    0  0.00000000000E+00  0.00000000000E+00  0.45593999997E+02  0.45594000000E+02  0.51100000000E-03 0. -1.
         11   -1    0    0    0    0 -0.00000000000E+00 -0.00000000000E+00 -0.45593999997E+02  0.45594000000E+02  0.51100000000E-03 0.  1.
    9900012    2    1    2    0    0 -0.22356387496E+02 -0.12925264575E+01  0.33936516791E+02  0.50528857628E+02  0.29999993247E+02 0.  0.
        -12    1    1    2    0    0  0.22356387496E+02  0.12925264575E+01 -0.33936516791E+02  0.40659142372E+02  0.00000000000E+00 0.  1.
         11    1    3    3    0    0 -0.41505973622E+01 -0.95273060217E+01  0.86829447463E+01  0.13542176643E+02  0.51100000000E-03 0. -1.
        -11    1    3    3    0    0 -0.28842114692E+01  0.29599827896E+01  0.19277725240E+02  0.19715751687E+02  0.51100000000E-03 0.  1.
         12    1    3    3    0    0 -0.15321578665E+02  0.52747967746E+01  0.59758468048E+01  0.17270929298E+02  0.00000000000E+00 0. -1.
</event>
<event>
 7    1  0.5992960E-013  0.5052877E+02  0.7816164E-02  0.1300439E+00
        -11   -1    0    0    0    0  0.00000000000E+00  0.00000000000E+00  0.45593999997E+02  0.45594000000E+02  0.51100000000E-03 0. -1.
         11   -1    0    0    0    0 -0.00000000000E+00 -0.00000000000E+00 -0.45593999997E+02  0.45594000000E+02  0.51100000000E-03 0.  1.
    9900012    2    1    2    0    0 -0.49229059584E+01 -0.38847725480E+02  0.10944970481E+02  0.50528767877E+02  0.29999720436E+02 0.  0.
        -12    1    1    2    0    0  0.49229059584E+01  0.38847725480E+02 -0.10944970481E+02  0.40659232123E+02  0.00000000000E+00 0.  1.
         11    1    3    3    0    0  0.17948221487E-01 -0.43445904485E+01 -0.86270816383E+00  0.44294530070E+01  0.51100000000E-03 0. -1.
        -11    1    3    3    0    0 -0.83912603397E+00 -0.72740569277E+01 -0.89876962122E+01  0.11592873680E+02  0.51100000000E-03 0.  1.
         12    1    3    3    0    0 -0.41017281459E+01 -0.27229078104E+02  0.20795374857E+02  0.34506441190E+02  0.00000000000E+00 0. -1.
</event>
<event>
 7    1  0.5992960E-013  0.5052892E+02  0.7816164E-02  0.1300439E+00
        -11   -1    0    0    0    0  0.00000000000E+00  0.00000000000E+00  0.45593999997E+02  0.45594000000E+02  0.51100000000E-03 0.  1.
         11   -1    0    0    0    0 -0.00000000000E+00 -0.00000000000E+00 -0.45593999997E+02  0.45594000000E+02  0.51100000000E-03 0. -1.
    9900012    2    1    2    0    0  0.48714047010E+01  0.19592246724E+02 -0.35292686547E+02  0.50528924271E+02  0.30000195814E+02 0.  0.
        -12    1    1    2    0    0 -0.48714047010E+01 -0.19592246724E+02  0.35292686547E+02  0.40659075729E+02  0.00000000000E+00 0.  1.
         11    1    3    3    0    0 -0.42708485862E+01  0.16889402255E+02 -0.19131371093E+02  0.25874725435E+02  0.51100000000E-03 0. -1.
        -11    1    3    3    0    0 -0.36863179156E+01  0.24489912668E+01 -0.57037459823E+00  0.44622668503E+01  0.51100000000E-03 0.  1.
         12    1    3    3    0    0  0.12828571203E+02  0.25385320193E+00 -0.15590940855E+02  0.20191931986E+02  0.00000000000E+00 0. -1.
</event>
<event>
 7    1  0.5992960E-013  0.5052885E+02  0.7816164E-02  0.1300439E+00
        -11   -1    0    0    0    0  0.00000000000E+00  0.00000000000E+00  0.45593999997E+02  0.45594000000E+02  0.51100000000E-03 0.  1.
         11   -1    0    0    0    0 -0.00000000000E+00 -0.00000000000E+00 -0.45593999997E+02  0.45594000000E+02  0.51100000000E-03 0. -1.
    9900012    2    1    2    0    0  0.13308204641E+02 -0.17172245309E+02 -0.34368187698E+02  0.50528847950E+02  0.29999963830E+02 0.  0.
        -12    1    1    2    0    0 -0.13308204641E+02  0.17172245309E+02  0.34368187698E+02  0.40659152050E+02  0.00000000000E+00 0.  1.
         11    1    3    3    0    0  0.65876466808E+01 -0.18774280773E+01 -0.16631158897E+02  0.17986585877E+02  0.51100000000E-03 0. -1.
        -11    1    3    3    0    0 -0.44828542028E+01 -0.14805944734E+02 -0.68697811487E+01  0.16926484412E+02  0.51100000000E-03 0.  1.
         12    1    3    3    0    0  0.11203412163E+02 -0.48887249773E+00 -0.10867247652E+02  0.15615777661E+02  0.00000000000E+00 0. -1.
</event>
<event>
 7    1  0.5992960E-013  0.5052887E+02  0.7816164E-02  0.1300439E+00
        -11   -1    0    0    0    0  0.00000000000E+00  0.00000000000E+00  0.45593999997E+02  0.45594000000E+02  0.51100000000E-03 0.  1.
         11   -1    0    0    0    0 -0.00000000000E+00 -0.00000000000E+00 -0.45593999997E+02  0.45594000000E+02  0.51100000000E-03 0. -1.
    9900012    2    1    2    0    0 -0.10089325425E+02  0.37913556208E+02 -0.10673938475E+02  0.50528865794E+02  0.30000018067E+02 0.  0.
        -12    1    1    2    0    0  0.10089325425E+02 -0.37913556208E+02  0.10673938475E+02  0.40659134206E+02  0.00000000000E+00 0.  1.
         11    1    3    3    0    0 -0.74641812318E+01  0.15248455429E+02 -0.95070468460E+00  0.17003918198E+02  0.51100000000E-03 0.  1.
        -11    1    3    3    0    0 -0.19133558225E+01  0.25160657553E+02 -0.19254225856E+01  0.25306656661E+02  0.51100000000E-03 0. -1.
         12    1    3    3    0    0 -0.71178837093E+00 -0.24955567743E+01 -0.77978112044E+01  0.82182909341E+01  0.00000000000E+00 0. -1.
</event>
<event>
 7    1  0.5992960E-013  0.5052886E+02  0.7816164E-02  0.1300439E+00
        -11   -1    0    0    0    0  0.00000000000E+00  0.00000000000E+00  0.45593999997E+02  0.45594000000E+02  0.51100000000E-03 0.  1.
         11   -1    0    0    0    0 -0.00000000000E+00 -0.00000000000E+00 -0.45593999997E+02  0.45594000000E+02  0.51100000000E-03 0. -1.
    9900012    2    1    2    0    0 -0.54745225959E+01 -0.58921832073E+01 -0.39855703770E+02  0.50528863959E+02  0.30000012490E+02 0.  0.
        -12    1    1    2    0    0  0.54745225959E+01  0.58921832073E+01  0.39855703770E+02  0.40659136041E+02  0.00000000000E+00 0.  1.
         11    1    3    3    0    0  0.17797930223E+01  0.11562531335E+01 -0.21039351481E+01  0.29884992688E+01  0.51100000000E-03 0. -1.
        -11    1    3    3    0    0  0.41601941138E+00  0.47916595621E+01  0.21127245019E+01  0.52532540955E+01  0.51100000000E-03 0.  1.
        -12    1    3    3    0    0 -0.76703350296E+01 -0.11840095903E+02 -0.39864493124E+02  0.42287110595E+02  0.00000000000E+00 0.  1.
</event>
<event>
 7    1  0.5992960E-013  0.5052886E+02  0.7816164E-02  0.1300439E+00
        -11   -1    0    0    0    0  0.00000000000E+00  0.00000000000E+00  0.45593999997E+02  0.45594000000E+02  0.51100000000E-03 0. -1.
         11   -1    0    0    0    0 -0.00000000000E+00 -0.00000000000E+00 -0.45593999997E+02  0.45594000000E+02  0.51100000000E-03 0.  1.
    9900012    2    1    2    0    0  0.25069253288E+01 -0.11466560149E+02  0.38928127549E+02  0.50528858460E+02  0.29999995776E+02 0.  0.
        -12    1    1    2    0    0 -0.25069253288E+01  0.11466560149E+02 -0.38928127549E+02  0.40659141540E+02  0.00000000000E+00 0.  1.
         11    1    3    3    0    0  0.34223804725E+01 -0.88650340145E+01  0.30555265811E+02  0.31998840373E+02  0.51100000000E-03 0. -1.
        -11    1    3    3    0    0 -0.76085715364E+01  0.56255489232E+00  0.80918388961E+01  0.11121361689E+02  0.51100000000E-03 0.  1.
         12    1    3    3    0    0  0.66931163927E+01 -0.31640810266E+01  0.28102284188E+00  0.74086563982E+01  0.00000000000E+00 0. -1.
</event>
<event>
 7    1  0.5992960E-013  0.5052886E+02  0.7816164E-02  0.1300439E+00
        -11   -1    0    0    0    0  0.00000000000E+00  0.00000000000E+00  0.45593999997E+02  0.45594000000E+02  0.51100000000E-03 0. -1.
         11   -1    0    0    0    0 -0.00000000000E+00 -0.00000000000E+00 -0.45593999997E+02  0.45594000000E+02  0.51100000000E-03 0.  1.
    9900012    2    1    2    0    0  0.36960604760E+02 -0.14979737449E+02  0.79174873054E+01  0.50528862730E+02  0.30000008754E+02 0.  0.
        -12    1    1    2    0    0 -0.36960604760E+02  0.14979737449E+02 -0.79174873054E+01  0.40659137270E+02  0.00000000000E+00 0.  1.
         11    1    3    3    0    0  0.36002496871E+02 -0.78438776583E+01  0.99382007852E+01  0.38163779069E+02  0.51100000000E-03 0.  1.
        -11    1    3    3    0    0  0.47373683035E+01 -0.24726450421E+01  0.13078816768E+01  0.55015622044E+01  0.51100000000E-03 0. -1.
        -12    1    3    3    0    0 -0.37792604145E+01 -0.46632147489E+01 -0.33285951566E+01  0.68635214571E+01  0.00000000000E+00 0.  1.
</event>
<event>
 7    1  0.5992960E-013  0.5052886E+02  0.7816164E-02  0.1300439E+00
        -11   -1    0    0    0    0  0.00000000000E+00  0.00000000000E+00  0.45593999997E+02  0.45594000000E+02  0.51100000000E-03 0.  1.
         11   -1    0    0    0    0 -0.00000000000E+00 -0.00000000000E+00 -0.45593999997E+02  0.45594000000E+02  0.51100000000E-03 0. -1.
    9900012    2    1    2    0    0  0.36952600259E+02  0.12515025431E+02  0.11447494212E+02  0.50528860177E+02  0.30000000993E+02 0.  0.
        -12    1    1    2    0    0 -0.36952600259E+02 -0.12515025431E+02 -0.11447494212E+02  0.40659139823E+02  0.00000000000E+00 0.  1.
         11    1    3    3    0    0  0.81636566122E+01  0.46362811038E+01 -0.80951814284E+01  0.12396465398E+02  0.51100000000E-03 0. -1.
        -11    1    3    3    0    0  0.11568725689E+00 -0.14622939675E+01 -0.88066651295E+00  0.17109240068E+01  0.51100000000E-03 0.  1.
        -12    1    3    3    0    0  0.28673256390E+02  0.93410382950E+01  0.20423342153E+02  0.36421470771E+02  0.00000000000E+00 0.  1.
</event>
<event>
 7    1  0.5992960E-013  0.5052887E+02  0.7816164E-02  0.1300439E+00
        -11   -1    0    0    0    0  0.00000000000E+00  0.00000000000E+00  0.45593999997E+02  0.45594000000E+02  0.51100000000E-03 0.  1.
         11   -1    0    0    0    0 -0.00000000000E+00 -0.00000000000E+00 -0.45593999997E+02  0.45594000000E+02  0.51100000000E-03 0. -1.
    9900012    2    1    2    0    0 -0.64934342595E+01 -0.27178016537E+02 -0.29535663603E+02  0.50528871925E+02  0.30000036703E+02 0.  0.
        -12    1    1    2    0    0  0.64934342595E+01  0.27178016537E+02  0.29535663603E+02  0.40659128075E+02  0.00000000000E+00 0.  1.
         11    1    3    3    0    0  0.12431046599E+01 -0.84392554095E+01 -0.30604082703E+01  0.90626949692E+01  0.51100000000E-03 0. -1.
        -11    1    3    3    0    0  0.32028102651E+01 -0.85425874191E+01  0.19663576541E+01  0.93327571538E+01  0.51100000000E-03 0.  1.
         12    1    3    3    0    0 -0.10939349185E+02 -0.10196173709E+02 -0.28441612987E+02  0.32133419802E+02  0.00000000000E+00 0. -1.
</event>
<event>
 7    1  0.5992960E-013  0.5052885E+02  0.7816164E-02  0.1300439E+00
        -11   -1    0    0    0    0  0.00000000000E+00  0.00000000000E+00  0.45593999997E+02  0.45594000000E+02  0.51100000000E-03 0. -1.
         11   -1    0    0    0    0 -0.00000000000E+00 -0.00000000000E+00 -0.45593999997E+02  0.45594000000E+02  0.51100000000E-03 0.  1.
    9900012    2    1    2    0    0 -0.14152575325E+02  0.19284873707E+02  0.32878029559E+02  0.50528848879E+02  0.29999966653E+02 0.  0.
        -12    1    1    2    0    0  0.14152575325E+02 -0.19284873707E+02 -0.32878029559E+02  0.40659151121E+02  0.00000000000E+00 0.  1.
         11    1    3    3    0    0 -0.12436879435E+01  0.44961046843E+01  0.88455328779E+00  0.47480682191E+01  0.51100000000E-03 0.  1.
        -11    1    3    3    0    0 -0.15236588132E+02  0.32416222522E+01  0.30042336584E+02  0.33840858742E+02  0.51100000000E-03 0. -1.
         12    1    3    3    0    0  0.23277007508E+01  0.11547146771E+02  0.19511396870E+01  0.11939921918E+02  0.00000000000E+00 0. -1.
</event>
<event>
 7    1  0.5992960E-013  0.5052885E+02  0.7816164E-02  0.1300439E+00
        -11   -1    0    0    0    0  0.00000000000E+00  0.00000000000E+00  0.45593999997E+02  0.45594000000E+02  0.51100000000E-03 0.  1.
         11   -1    0    0    0    0 -0.00000000000E+00 -0.00000000000E+00 -0.45593999997E+02  0.45594000000E+02  0.51100000000E-03 0. -1.
    9900012    2    1    2    0    0 -0.10063219472E+02  0.35788954478E+02  0.16463551054E+02  0.50528853894E+02  0.29999981896E+02 0.  0.
        -12    1    1    2    0    0  0.10063219472E+02 -0.35788954478E+02 -0.16463551054E+02  0.40659146106E+02  0.00000000000E+00 0.  1.
         11    1    3    3    0    0 -0.79367473962E-01  0.48747738501E+01 -0.17550013427E+01  0.51816743684E+01  0.51100000000E-03 0. -1.
        -11    1    3    3    0    0  0.86270654065E+01  0.13408967562E+02  0.61367321366E+01  0.17084675887E+02  0.51100000000E-03 0.  1.
         12    1    3    3    0    0 -0.18610917404E+02  0.17505213066E+02  0.12081820260E+02  0.28262503638E+02  0.00000000000E+00 0. -1.
</event>
<event>
 7    1  0.5992960E-013  0.5052886E+02  0.7816164E-02  0.1300439E+00
        -11   -1    0    0    0    0  0.00000000000E+00  0.00000000000E+00  0.45593999997E+02  0.45594000000E+02  0.51100000000E-03 0.  1.
         11   -1    0    0    0    0 -0.00000000000E+00 -0.00000000000E+00 -0.45593999997E+02  0.45594000000E+02  0.51100000000E-03 0. -1.
    9900012    2    1    2    0    0  0.37566708892E+02 -0.11361603510E+02 -0.10621786996E+02  0.50528855760E+02  0.29999987569E+02 0.  0.
        -12    1    1    2    0    0 -0.37566708892E+02  0.11361603510E+02  0.10621786996E+02  0.40659144240E+02  0.00000000000E+00 0.  1.
         11    1    3    3    0    0  0.20238109607E+02 -0.10989810892E+02 -0.96631588414E+00  0.23049745998E+02  0.51100000000E-03 0. -1.
        -11    1    3    3    0    0 -0.23777692192E+01 -0.47068972496E+01 -0.36967768760E+01  0.64400953184E+01  0.51100000000E-03 0.  1.
        -12    1    3    3    0    0  0.19706368504E+02  0.43351046309E+01 -0.59586942354E+01  0.21039014444E+02  0.00000000000E+00 0.  1.
</event>
<event>
 7    1  0.5992960E-013  0.5052886E+02  0.7816164E-02  0.1300439E+00
        -11   -1    0    0    0    0  0.00000000000E+00  0.00000000000E+00  0.45593999997E+02  0.45594000000E+02  0.51100000000E-03 0. -1.
         11   -1    0    0    0    0 -0.00000000000E+00 -0.00000000000E+00 -0.45593999997E+02  0.45594000000E+02  0.51100000000E-03 0.  1.
    9900012    2    1    2    0    0 -0.16983943637E+02  0.18091419870E+02 -0.32208882434E+02  0.50528856846E+02  0.29999990869E+02 0.  0.
        -12    1    1    2    0    0  0.16983943637E+02 -0.18091419870E+02  0.32208882434E+02  0.40659143154E+02  0.00000000000E+00 0.  1.
         11    1    3    3    0    0  0.13018963080E+01 -0.24632963949E+01  0.27426169626E+01  0.39095666244E+01  0.51100000000E-03 0. -1.
        -11    1    3    3    0    0  0.13755708446E+01  0.33891407224E+00  0.32793718032E+00  0.14541667553E+01  0.51100000000E-03 0.  1.
         12    1    3    3    0    0 -0.19661410790E+02  0.20215802192E+02 -0.35279436577E+02  0.45165123466E+02  0.00000000000E+00 0. -1.
</event>
<event>
 7    1  0.5992960E-013  0.5052886E+02  0.7816164E-02  0.1300439E+00
        -11   -1    0    0    0    0  0.00000000000E+00  0.00000000000E+00  0.45593999997E+02  0.45594000000E+02  0.51100000000E-03 0. -1.
         11   -1    0    0    0    0 -0.00000000000E+00 -0.00000000000E+00 -0.45593999997E+02  0.45594000000E+02  0.51100000000E-03 0.  1.
    9900012    2    1    2    0    0  0.15858345760E+02 -0.17089943557E+02  0.33310844209E+02  0.50528860278E+02  0.30000001302E+02 0.  0.
        -12    1    1    2    0    0 -0.15858345760E+02  0.17089943557E+02 -0.33310844209E+02  0.40659139722E+02  0.00000000000E+00 0.  1.
         11    1    3    3    0    0  0.13340502002E+02 -0.21004599536E+02  0.16801544778E+02  0.30024225261E+02  0.51100000000E-03 0. -1.
        -11    1    3    3    0    0  0.45261240231E+00 -0.38719735283E+01  0.72485602947E+01  0.82303501503E+01  0.51100000000E-03 0.  1.
        -12    1    3    3    0    0  0.20652313553E+01  0.77866295076E+01  0.92607391362E+01  0.12274284867E+02  0.00000000000E+00 0.  1.
</event>
<event>
 7    1  0.5992960E-013  0.5052894E+02  0.7816164E-02  0.1300438E+00
        -11   -1    0    0    0    0  0.00000000000E+00  0.00000000000E+00  0.45593999997E+02  0.45594000000E+02  0.51100000000E-03 0.  1.
         11   -1    0    0    0    0 -0.00000000000E+00 -0.00000000000E+00 -0.45593999997E+02  0.45594000000E+02  0.51100000000E-03 0. -1.
    9900012    2    1    2    0    0 -0.27990788020E+02  0.17607193896E+02 -0.23657163670E+02  0.50528943398E+02  0.30000253952E+02 0.  0.
        -12    1    1    2    0    0  0.27990788020E+02 -0.17607193896E+02  0.23657163670E+02  0.40659056602E+02  0.00000000000E+00 0.  1.
         11    1    3    3    0    0 -0.16422512416E+02  0.11631709269E+02 -0.71691068418E+01  0.21363325297E+02  0.51100000000E-03 0. -1.
        -11    1    3    3    0    0 -0.16080414616E+02  0.51506408408E+00 -0.75809277809E+01  0.17785260513E+02  0.51100000000E-03 0.  1.
         12    1    3    3    0    0  0.45121390124E+01  0.54604205427E+01 -0.89071290476E+01  0.11380357588E+02  0.00000000000E+00 0. -1.
</event>
<event>
 7    1  0.5992960E-013  0.5052887E+02  0.7816164E-02  0.1300439E+00
        -11   -1    0    0    0    0  0.00000000000E+00  0.00000000000E+00  0.45593999997E+02  0.45594000000E+02  0.51100000000E-03 0.  1.
         11   -1    0    0    0    0 -0.00000000000E+00 -0.00000000000E+00 -0.45593999997E+02  0.45594000000E+02  0.51100000000E-03 0. -1.
    9900012    2    1    2    0    0 -0.24440980765E+02  0.17097693579E+02 -0.27630993212E+02  0.50528874919E+02  0.30000045805E+02 0.  0.
        -12    1    1    2    0    0  0.24440980765E+02 -0.17097693579E+02  0.27630993212E+02  0.40659125081E+02  0.00000000000E+00 0.  1.
         11    1    3    3    0    0 -0.14899854362E+02  0.12366658369E+02 -0.25444333090E+02  0.31974270685E+02  0.51100000000E-03 0. -1.
        -11    1    3    3    0    0 -0.63934243092E+01  0.52798321528E+01 -0.82525802789E+01  0.11698614597E+02  0.51100000000E-03 0.  1.
        -12    1    3    3    0    0 -0.31477020941E+01 -0.54879694314E+00  0.60659201570E+01  0.68559896374E+01  0.00000000000E+00 0.  1.
</event>
<event>
 7    1  0.5992960E-013  0.5052886E+02  0.7816164E-02  0.1300439E+00
        -11   -1    0    0    0    0  0.00000000000E+00  0.00000000000E+00  0.45593999997E+02  0.45594000000E+02  0.51100000000E-03 0.  1.
         11   -1    0    0    0    0 -0.00000000000E+00 -0.00000000000E+00 -0.45593999997E+02  0.45594000000E+02  0.51100000000E-03 0. -1.
    9900012    2    1    2    0    0 -0.17503999121E+02 -0.78166884399E+01 -0.35856305924E+02  0.50528864767E+02  0.30000014946E+02 0.  0.
        -12    1    1    2    0    0  0.17503999121E+02  0.78166884399E+01  0.35856305924E+02  0.40659135233E+02  0.00000000000E+00 0.  1.
         11    1    3    3    0    0 -0.11209230846E+02 -0.12082664951E+02 -0.19052882315E+02  0.25192260185E+02  0.51100000000E-03 0. -1.
        -11    1    3    3    0    0  0.28988328972E+01  0.18095054739E+00  0.23273385266E+01  0.37218920115E+01  0.51100000000E-03 0.  1.
         12    1    3    3    0    0 -0.91936011724E+01  0.40850259634E+01 -0.19130762135E+02  0.21614712571E+02  0.00000000000E+00 0. -1.
</event>
<event>
 7    1  0.5992960E-013  0.5052890E+02  0.7816164E-02  0.1300439E+00
        -11   -1    0    0    0    0  0.00000000000E+00  0.00000000000E+00  0.45593999997E+02  0.45594000000E+02  0.51100000000E-03 0.  1.
         11   -1    0    0    0    0 -0.00000000000E+00 -0.00000000000E+00 -0.45593999997E+02  0.45594000000E+02  0.51100000000E-03 0. -1.
    9900012    2    1    2    0    0 -0.23729547686E+02 -0.24676279246E+02 -0.21935176261E+02  0.50528903251E+02  0.30000131921E+02 0.  0.
        -12    1    1    2    0    0  0.23729547686E+02  0.24676279246E+02  0.21935176261E+02  0.40659096749E+02  0.00000000000E+00 0.  1.
         11    1    3    3    0    0 -0.48909990949E+01  0.20308926834E+00 -0.19986349725E+01  0.52875002990E+01  0.51100000000E-03 0. -1.
        -11    1    3    3    0    0  0.13596705548E+01  0.16059032410E+01  0.37980002697E+01  0.43419391459E+01  0.51100000000E-03 0.  1.
         12    1    3    3    0    0 -0.20198219146E+02 -0.26485271755E+02 -0.23734541558E+02  0.40899463806E+02  0.00000000000E+00 0. -1.
</event>
<event>
 7    1  0.5992960E-013  0.5052887E+02  0.7816164E-02  0.1300439E+00
        -11   -1    0    0    0    0  0.00000000000E+00  0.00000000000E+00  0.45593999997E+02  0.45594000000E+02  0.51100000000E-03 0. -1.
         11   -1    0    0    0    0 -0.00000000000E+00 -0.00000000000E+00 -0.45593999997E+02  0.45594000000E+02  0.51100000000E-03 0.  1.
    9900012    2    1    2    0    0 -0.30475805597E+02 -0.16865477123E+02  0.20974892318E+02  0.50528866302E+02  0.30000019611E+02 0.  0.
        -12    1    1    2    0    0  0.30475805597E+02  0.16865477123E+02 -0.20974892318E+02  0.40659133698E+02  0.00000000000E+00 0.  1.
         11    1    3    3    0    0 -0.18098582754E+02 -0.55303180536E+01  0.73942982776E+01  0.20317941892E+02  0.51100000000E-03 0. -1.
        -11    1    3    3    0    0 -0.68394721218E+01 -0.31263223604E+01 -0.50873893689E+01  0.90793062101E+01  0.51100000000E-03 0.  1.
        -12    1    3    3    0    0 -0.55377507214E+01 -0.82088367092E+01  0.18667983409E+02  0.21131618199E+02  0.00000000000E+00 0.  1.
</event>
<event>
 7    1  0.7314731E-013  0.5052886E+02  0.7816164E-02  0.1300439E+00
        -11   -1    0    0    0    0  0.00000000000E+00  0.00000000000E+00  0.45593999997E+02  0.45594000000E+02  0.51100000000E-03 0. -1.
         11   -1    0    0    0    0 -0.00000000000E+00 -0.00000000000E+00 -0.45593999997E+02  0.45594000000E+02  0.51100000000E-03 0.  1.
    9900012    2    1    2    0    0  0.19265645904E+02 -0.72809569391E+01  0.35056926536E+02  0.50528861492E+02  0.30000004992E+02 0.  0.
        -12    1    1    2    0    0 -0.19265645904E+02  0.72809569391E+01 -0.35056926536E+02  0.40659138508E+02  0.00000000000E+00 0.  1.
         11    1    3    3    0    0  0.12932152745E+02 -0.62345338062E+01  0.19178407505E+02  0.23956654630E+02  0.51100000000E-03 0. -1.
        -11    1    3    3    0    0  0.64240523693E+01 -0.29527693703E+01 -0.29400566415E+01  0.76571031803E+01  0.51100000000E-03 0.  1.
         12    1    3    3    0    0 -0.90559210281E-01  0.19063462374E+01  0.18818575672E+02  0.18915103682E+02  0.00000000000E+00 0. -1.
</event>
<event>
 7    1  0.5992960E-013  0.5052884E+02  0.7816164E-02  0.1300439E+00
        -11   -1    0    0    0    0  0.00000000000E+00  0.00000000000E+00  0.45593999997E+02  0.45594000000E+02  0.51100000000E-03 0. -1.
         11   -1    0    0    0    0 -0.00000000000E+00 -0.00000000000E+00 -0.45593999997E+02  0.45594000000E+02  0.51100000000E-03 0.  1.
    9900012    2    1    2    0    0 -0.14443315353E+02 -0.37448800825E+02  0.64919209867E+01  0.50528842610E+02  0.29999947596E+02 0.  0.
        -12    1    1    2    0    0  0.14443315353E+02  0.37448800825E+02 -0.64919209867E+01  0.40659157390E+02  0.00000000000E+00 0.  1.
         11    1    3    3    0    0 -0.12359747704E+02 -0.63969305972E+01  0.18326262411E+01  0.14037186455E+02  0.51100000000E-03 0. -1.
        -11    1    3    3    0    0 -0.62943295570E+00 -0.92646602938E+01  0.10371542230E+02  0.13921171097E+02  0.51100000000E-03 0.  1.
        -12    1    3    3    0    0 -0.14541346928E+01 -0.21787209934E+02 -0.57122474846E+01  0.22570485058E+02  0.00000000000E+00 0.  1.
</event>
<event>
 7    1  0.5992960E-013  0.5052885E+02  0.7816164E-02  0.1300439E+00
        -11   -1    0    0    0    0  0.00000000000E+00  0.00000000000E+00  0.45593999997E+02  0.45594000000E+02  0.51100000000E-03 0.  1.
         11   -1    0    0    0    0 -0.00000000000E+00 -0.00000000000E+00 -0.45593999997E+02  0.45594000000E+02  0.51100000000E-03 0. -1.
    9900012    2    1    2    0    0 -0.12494650374E+02  0.36783228341E+02 -0.12001853554E+02  0.50528847723E+02  0.29999963139E+02 0.  0.
        -12    1    1    2    0    0  0.12494650374E+02 -0.36783228341E+02  0.12001853554E+02  0.40659152277E+02  0.00000000000E+00 0.  1.
         11    1    3    3    0    0  0.18257852695E+01 -0.29984145179E+00  0.13437609744E+01  0.22867204822E+01  0.51100000000E-03 0.  1.
        -11    1    3    3    0    0 -0.17233937681E+02  0.11848688592E+02 -0.49899447836E+01  0.21501152958E+02  0.51100000000E-03 0. -1.
         12    1    3    3    0    0  0.29135020376E+01  0.25234381201E+02 -0.83556697450E+01  0.26740974283E+02  0.00000000000E+00 0. -1.
</event>
<event>
 7    1  0.6057168E-013  0.5052886E+02  0.7816164E-02  0.1300439E+00
        -11   -1    0    0    0    0  0.00000000000E+00  0.00000000000E+00  0.45593999997E+02  0.45594000000E+02  0.51100000000E-03 0.  1.
         11   -1    0    0    0    0 -0.00000000000E+00 -0.00000000000E+00 -0.45593999997E+02  0.45594000000E+02  0.51100000000E-03 0. -1.
    9900012    2    1    2    0    0 -0.29248816044E+02  0.23514640987E+02  0.15643987166E+02  0.50528856931E+02  0.29999991126E+02 0.  0.
        -12    1    1    2    0    0  0.29248816044E+02 -0.23514640987E+02 -0.15643987166E+02  0.40659143069E+02  0.00000000000E+00 0.  1.
         11    1    3    3    0    0  0.53344749886E+00 -0.22332499551E+01  0.16686233419E+01  0.28383579256E+01  0.51100000000E-03 0. -1.
        -11    1    3    3    0    0  0.22889947921E+01  0.92402330987E+01  0.25797726604E+01  0.98628916712E+01  0.51100000000E-03 0.  1.
         12    1    3    3    0    0 -0.32071258335E+02  0.16507657843E+02  0.11395591164E+02  0.37827607334E+02  0.00000000000E+00 0. -1.
</event>
<event>
 7    1  0.5992960E-013  0.5052886E+02  0.7816164E-02  0.1300439E+00
        -11   -1    0    0    0    0  0.00000000000E+00  0.00000000000E+00  0.45593999997E+02  0.45594000000E+02  0.51100000000E-03 0. -1.
         11   -1    0    0    0    0 -0.00000000000E+00 -0.00000000000E+00 -0.45593999997E+02  0.45594000000E+02  0.51100000000E-03 0.  1.
    9900012    2    1    2    0    0 -0.71424567803E+01 -0.38399550168E+02 -0.11297158721E+02  0.50528856660E+02  0.29999990303E+02 0.  0.
        -12    1    1    2    0    0  0.71424567803E+01  0.38399550168E+02  0.11297158721E+02  0.40659143340E+02  0.00000000000E+00 0.  1.
         11    1    3    3    0    0  0.36484071632E+01 -0.16654155122E+02 -0.12616147059E+02  0.21209406511E+02  0.51100000000E-03 0. -1.
        -11    1    3    3    0    0  0.43448540284E+01 -0.62404797693E+01  0.79327609953E+00  0.76453012700E+01  0.51100000000E-03 0.  1.
         12    1    3    3    0    0 -0.15135717972E+02 -0.15504915277E+02  0.52571223853E+00  0.21674148879E+02  0.00000000000E+00 0. -1.
</event>
<event>
 7    1  0.5992960E-013  0.5052886E+02  0.7816164E-02  0.1300439E+00
        -11   -1    0    0    0    0  0.00000000000E+00  0.00000000000E+00  0.45593999997E+02  0.45594000000E+02  0.51100000000E-03 0.  1.
         11   -1    0    0    0    0 -0.00000000000E+00 -0.00000000000E+00 -0.45593999997E+02  0.45594000000E+02  0.51100000000E-03 0. -1.
    9900012    2    1    2    0    0 -0.34447799784E+02  0.19273929921E+02 -0.97483529410E+01  0.50528859950E+02  0.30000000303E+02 0.  0.
        -12    1    1    2    0    0  0.34447799784E+02 -0.19273929921E+02  0.97483529410E+01  0.40659140050E+02  0.00000000000E+00 0.  1.
         11    1    3    3    0    0 -0.16544235239E+02  0.34791166903E+01 -0.11750957022E+02  0.20588855330E+02  0.51100000000E-03 0. -1.
        -11    1    3    3    0    0 -0.14526903989E+02  0.97469808589E+01 -0.67738094178E+01  0.18759506114E+02  0.51100000000E-03 0.  1.
        -12    1    3    3    0    0 -0.33766605560E+01  0.60478323720E+01  0.87764134993E+01  0.11180498505E+02  0.00000000000E+00 0.  1.
</event>
<event>
 7    1  0.5992960E-013  0.5052886E+02  0.7816164E-02  0.1300439E+00
        -11   -1    0    0    0    0  0.00000000000E+00  0.00000000000E+00  0.45593999997E+02  0.45594000000E+02  0.51100000000E-03 0.  1.
         11   -1    0    0    0    0 -0.00000000000E+00 -0.00000000000E+00 -0.45593999997E+02  0.45594000000E+02  0.51100000000E-03 0. -1.
    9900012    2    1    2    0    0 -0.28089212433E+02  0.18478366769E+02 -0.22862890145E+02  0.50528860322E+02  0.30000001436E+02 0.  0.
        -12    1    1    2    0    0  0.28089212433E+02 -0.18478366769E+02  0.22862890145E+02  0.40659139678E+02  0.00000000000E+00 0.  1.
         11    1    3    3    0    0 -0.70423952249E+01  0.77973408840E+01 -0.22629122556E+01  0.10747773142E+02  0.51100000000E-03 0. -1.
        -11    1    3    3    0    0 -0.25838212274E+02  0.75027685813E+01 -0.12057079137E+02  0.29483519251E+02  0.51100000000E-03 0.  1.
         12    1    3    3    0    0  0.47913950653E+01  0.31782573034E+01 -0.85428987528E+01  0.10297567929E+02  0.00000000000E+00 0. -1.
</event>
<event>
 7    1  0.5992960E-013  0.5052886E+02  0.7816164E-02  0.1300439E+00
        -11   -1    0    0    0    0  0.00000000000E+00  0.00000000000E+00  0.45593999997E+02  0.45594000000E+02  0.51100000000E-03 0.  1.
         11   -1    0    0    0    0 -0.00000000000E+00 -0.00000000000E+00 -0.45593999997E+02  0.45594000000E+02  0.51100000000E-03 0. -1.
    9900012    2    1    2    0    0 -0.37610738814E+02  0.36457444801E+01  0.15010206556E+02  0.50528862923E+02  0.30000009342E+02 0.  0.
        -12    1    1    2    0    0  0.37610738814E+02 -0.36457444801E+01 -0.15010206556E+02  0.40659137077E+02  0.00000000000E+00 0.  1.
         11    1    3    3    0    0 -0.12613591299E+02 -0.37231814311E+01  0.68660928534E+01  0.14836037098E+02  0.51100000000E-03 0. -1.
        -11    1    3    3    0    0 -0.87360663306E+01 -0.79425888287E+01  0.60302326914E+01  0.13257725250E+02  0.51100000000E-03 0.  1.
         12    1    3    3    0    0 -0.16261081184E+02  0.15311514740E+02  0.21138810115E+01  0.22435100575E+02  0.00000000000E+00 0. -1.
</event>
<event>
 7    1  0.5992960E-013  0.5052887E+02  0.7816164E-02  0.1300439E+00
        -11   -1    0    0    0    0  0.00000000000E+00  0.00000000000E+00  0.45593999997E+02  0.45594000000E+02  0.51100000000E-03 0. -1.
         11   -1    0    0    0    0 -0.00000000000E+00 -0.00000000000E+00 -0.45593999997E+02  0.45594000000E+02  0.51100000000E-03 0.  1.
    9900012    2    1    2    0    0 -0.22060880852E+02 -0.32006752216E+02  0.11918496051E+02  0.50528865731E+02  0.30000017876E+02 0.  0.
        -12    1    1    2    0    0  0.22060880852E+02  0.32006752216E+02 -0.11918496051E+02  0.40659134269E+02  0.00000000000E+00 0.  1.
         11    1    3    3    0    0 -0.38287149945E+01 -0.16426524392E+02  0.63709109715E+01  0.18029927037E+02  0.51100000000E-03 0. -1.
        -11    1    3    3    0    0 -0.14986174906E+02 -0.12987193693E+02 -0.55968678568E+01  0.20605280110E+02  0.51100000000E-03 0.  1.
         12    1    3    3    0    0 -0.32459909510E+01 -0.25930341319E+01  0.11144452936E+02  0.11893658584E+02  0.00000000000E+00 0. -1.
</event>
<event>
 7    1  0.5992960E-013  0.5052885E+02  0.7816164E-02  0.1300439E+00
        -11   -1    0    0    0    0  0.00000000000E+00  0.00000000000E+00  0.45593999997E+02  0.45594000000E+02  0.51100000000E-03 0. -1.
         11   -1    0    0    0    0 -0.00000000000E+00 -0.00000000000E+00 -0.45593999997E+02  0.45594000000E+02  0.51100000000E-03 0.  1.
    9900012    2    1    2    0    0  0.25797513767E+02  0.31279921134E+01  0.31270913584E+02  0.50528854810E+02  0.29999984680E+02 0.  0.
        -12    1    1    2    0    0 -0.25797513767E+02 -0.31279921134E+01 -0.31270913584E+02  0.40659145190E+02  0.00000000000E+00 0.  1.
         11    1    3    3    0    0  0.10511620911E+02 -0.11865457550E+02  0.19525838042E+02  0.25150379889E+02  0.51100000000E-03 0. -1.
        -11    1    3    3    0    0  0.31106648550E+01 -0.69552003214E-02  0.23316332737E+01  0.38875182571E+01  0.51100000000E-03 0.  1.
        -12    1    3    3    0    0  0.12175228001E+02  0.15000404864E+02  0.94134422676E+01  0.21490956663E+02  0.00000000000E+00 0.  1.
</event>
<event>
 7    1  0.5992960E-013  0.5052887E+02  0.7816164E-02  0.1300439E+00
        -11   -1    0    0    0    0  0.00000000000E+00  0.00000000000E+00  0.45593999997E+02  0.45594000000E+02  0.51100000000E-03 0. -1.
         11   -1    0    0    0    0 -0.00000000000E+00 -0.00000000000E+00 -0.45593999997E+02  0.45594000000E+02  0.51100000000E-03 0.  1.
    9900012    2    1    2    0    0 -0.30003076505E+01  0.25812838455E+02  0.31270756400E+02  0.50528872109E+02  0.30000037262E+02 0.  0.
        -12    1    1    2    0    0  0.30003076505E+01 -0.25812838455E+02 -0.31270756400E+02  0.40659127891E+02  0.00000000000E+00 0.  1.
         11    1    3    3    0    0 -0.59410535281E+01  0.11824765002E+02  0.75835537341E+01  0.15252261205E+02  0.51100000000E-03 0. -1.
        -11    1    3    3    0    0 -0.10572961484E+01 -0.50130789942E+01  0.67602835707E+00  0.51677703846E+01  0.51100000000E-03 0.  1.
        -12    1    3    3    0    0  0.39980420260E+01  0.19001152447E+02  0.23011174308E+02  0.30108840519E+02  0.00000000000E+00 0.  1.
</event>
<event>
 7    1  0.5992960E-013  0.5052886E+02  0.7816164E-02  0.1300439E+00
        -11   -1    0    0    0    0  0.00000000000E+00  0.00000000000E+00  0.45593999997E+02  0.45594000000E+02  0.51100000000E-03 0.  1.
         11   -1    0    0    0    0 -0.00000000000E+00 -0.00000000000E+00 -0.45593999997E+02  0.45594000000E+02  0.51100000000E-03 0. -1.
    9900012    2    1    2    0    0  0.36174031219E+02  0.10990329909E+02 -0.14960550162E+02  0.50528856535E+02  0.29999989924E+02 0.  0.
        -12    1    1    2    0    0 -0.36174031219E+02 -0.10990329909E+02  0.14960550162E+02  0.40659143465E+02  0.00000000000E+00 0.  1.
         11    1    3    3    0    0  0.21744664601E+01 -0.93449480212E+00  0.90970963354E+00  0.25355781983E+01  0.51100000000E-03 0. -1.
        -11    1    3    3    0    0  0.32619255443E+02  0.64285000605E+01 -0.23455783026E+01  0.33329314072E+02  0.51100000000E-03 0.  1.
         12    1    3    3    0    0  0.13803093164E+01  0.54963246505E+01 -0.13524681493E+02  0.14663964265E+02  0.00000000000E+00 0. -1.
</event>
<event>
 7    1  0.5992960E-013  0.5052886E+02  0.7816164E-02  0.1300439E+00
        -11   -1    0    0    0    0  0.00000000000E+00  0.00000000000E+00  0.45593999997E+02  0.45594000000E+02  0.51100000000E-03 0. -1.
         11   -1    0    0    0    0 -0.00000000000E+00 -0.00000000000E+00 -0.45593999997E+02  0.45594000000E+02  0.51100000000E-03 0.  1.
    9900012    2    1    2    0    0  0.28230196918E+02 -0.27452782524E+02 -0.10127505363E+02  0.50528860176E+02  0.30000000991E+02 0.  0.
        -12    1    1    2    0    0 -0.28230196918E+02  0.27452782524E+02  0.10127505363E+02  0.40659139824E+02  0.00000000000E+00 0.  1.
         11    1    3    3    0    0  0.30039593472E+01 -0.55434012996E+01 -0.56745933212E+01  0.84825750424E+01  0.51100000000E-03 0.  1.
        -11    1    3    3    0    0 -0.93452442596E+00 -0.13298314395E+02 -0.56494598292E+01  0.14478774060E+02  0.51100000000E-03 0. -1.
        -12    1    3    3    0    0  0.26160761996E+02 -0.86110668294E+01  0.11965477872E+01  0.27567511073E+02  0.00000000000E+00 0.  1.
</event>
<event>
 7    1  0.5992960E-013  0.5052886E+02  0.7816164E-02  0.1300439E+00
        -11   -1    0    0    0    0  0.00000000000E+00  0.00000000000E+00  0.45593999997E+02  0.45594000000E+02  0.51100000000E-03 0. -1.
         11   -1    0    0    0    0 -0.00000000000E+00 -0.00000000000E+00 -0.45593999997E+02  0.45594000000E+02  0.51100000000E-03 0.  1.
    9900012    2    1    2    0    0 -0.28258464735E+01 -0.40505678014E+02  0.21142650447E+01  0.50528862327E+02  0.30000007528E+02 0.  0.
        -12    1    1    2    0    0  0.28258464735E+01  0.40505678014E+02 -0.21142650447E+01  0.40659137673E+02  0.00000000000E+00 0.  1.
         11    1    3    3    0    0 -0.17646643396E+01 -0.11821366201E+02  0.37871329461E+01  0.12537986892E+02  0.51100000000E-03 0. -1.
        -11    1    3    3    0    0 -0.10459527757E+02 -0.34316838958E+01 -0.35421991648E+00  0.11013793501E+02  0.51100000000E-03 0.  1.
         12    1    3    3    0    0  0.93983456233E+01 -0.25252627917E+02 -0.13186479849E+01  0.26977081934E+02  0.00000000000E+00 0. -1.
</event>
<event>
 7    1  0.5992960E-013  0.5052883E+02  0.7816164E-02  0.1300439E+00
        -11   -1    0    0    0    0  0.00000000000E+00  0.00000000000E+00  0.45593999997E+02  0.45594000000E+02  0.51100000000E-03 0.  1.
         11   -1    0    0    0    0 -0.00000000000E+00 -0.00000000000E+00 -0.45593999997E+02  0.45594000000E+02  0.51100000000E-03 0. -1.
    9900012    2    1    2    0    0  0.18758880676E+02 -0.32064252395E+02 -0.16527427392E+02  0.50528834464E+02  0.29999922837E+02 0.  0.
        -12    1    1    2    0    0 -0.18758880676E+02  0.32064252395E+02  0.16527427392E+02  0.40659165536E+02  0.00000000000E+00 0.  1.
         11    1    3    3    0    0  0.14767305741E+02 -0.32382884277E+02 -0.19988590649E+02  0.40819949404E+02  0.51100000000E-03 0. -1.
        -11    1    3    3    0    0 -0.43112958238E+00 -0.23753594772E+01 -0.12406046879E+01  0.27142781021E+01  0.51100000000E-03 0.  1.
         12    1    3    3    0    0  0.44227045175E+01  0.26939913589E+01  0.47017679450E+01  0.69946069581E+01  0.00000000000E+00 0. -1.
</event>
<event>
 7    1  0.5992960E-013  0.5052886E+02  0.7816164E-02  0.1300439E+00
        -11   -1    0    0    0    0  0.00000000000E+00  0.00000000000E+00  0.45593999997E+02  0.45594000000E+02  0.51100000000E-03 0. -1.
         11   -1    0    0    0    0 -0.00000000000E+00 -0.00000000000E+00 -0.45593999997E+02  0.45594000000E+02  0.51100000000E-03 0.  1.
    9900012    2    1    2    0    0 -0.30979231732E+02 -0.15309683892E+02  0.21425832292E+02  0.50528861925E+02  0.30000006309E+02 0.  0.
        -12    1    1    2    0    0  0.30979231732E+02  0.15309683892E+02 -0.21425832292E+02  0.40659138075E+02  0.00000000000E+00 0.  1.
         11    1    3    3    0    0 -0.45928248109E+01 -0.42577734640E+01  0.98074340067E+01  0.11636513080E+02  0.51100000000E-03 0. -1.
        -11    1    3    3    0    0 -0.44029829694E+01 -0.13836438283E+02  0.75400233991E+01  0.16361089099E+02  0.51100000000E-03 0.  1.
         12    1    3    3    0    0 -0.21983423952E+02  0.27845278556E+01  0.40783748860E+01  0.22531259746E+02  0.00000000000E+00 0. -1.
</event>
<event>
 7    1  0.5992960E-013  0.5052886E+02  0.7816164E-02  0.1300439E+00
        -11   -1    0    0    0    0  0.00000000000E+00  0.00000000000E+00  0.45593999997E+02  0.45594000000E+02  0.51100000000E-03 0. -1.
         11   -1    0    0    0    0 -0.00000000000E+00 -0.00000000000E+00 -0.45593999997E+02  0.45594000000E+02  0.51100000000E-03 0.  1.
    9900012    2    1    2    0    0 -0.17085581173E+00  0.29394490632E+02  0.28090929089E+02  0.50528861196E+02  0.30000004091E+02 0.  0.
        -12    1    1    2    0    0  0.17085581173E+00 -0.29394490632E+02 -0.28090929089E+02  0.40659138804E+02  0.00000000000E+00 0.  1.
         11    1    3    3    0    0  0.21705533384E+01  0.64729847891E+01  0.10051587692E+02  0.12150936148E+02  0.51100000000E-03 0. -1.
        -11    1    3    3    0    0 -0.98794068349E+01  0.24184584836E+02  0.12652555197E+02  0.29027297090E+02  0.51100000000E-03 0.  1.
         12    1    3    3    0    0  0.75379976847E+01 -0.12630789931E+01  0.53867861996E+01  0.93506279574E+01  0.00000000000E+00 0. -1.
</event>
<event>
 7    1  0.5992960E-013  0.5052886E+02  0.7816164E-02  0.1300439E+00
        -11   -1    0    0    0    0  0.00000000000E+00  0.00000000000E+00  0.45593999997E+02  0.45594000000E+02  0.51100000000E-03 0.  1.
         11   -1    0    0    0    0 -0.00000000000E+00 -0.00000000000E+00 -0.45593999997E+02  0.45594000000E+02  0.51100000000E-03 0. -1.
    9900012    2    1    2    0    0  0.26116825432E+02  0.31161202715E+02 -0.23780343534E+00  0.50528859874E+02  0.30000000074E+02 0.  0.
        -12    1    1    2    0    0 -0.26116825432E+02 -0.31161202715E+02  0.23780343534E+00  0.40659140126E+02  0.00000000000E+00 0.  1.
         11    1    3    3    0    0  0.60294932003E+01  0.20935509579E+02 -0.15936390349E+00  0.21787054567E+02  0.51100000000E-03 0. -1.
        -11    1    3    3    0    0  0.83876168222E+01  0.13696291005E+02  0.25408088254E+01  0.16260264850E+02  0.51100000000E-03 0.  1.
        -12    1    3    3    0    0  0.11699715409E+02 -0.34705978689E+01 -0.26192483573E+01  0.12481540457E+02  0.00000000000E+00 0.  1.
</event>
<event>
 7    1  0.5992960E-013  0.5052886E+02  0.7816164E-02  0.1300439E+00
        -11   -1    0    0    0    0  0.00000000000E+00  0.00000000000E+00  0.45593999997E+02  0.45594000000E+02  0.51100000000E-03 0. -1.
         11   -1    0    0    0    0 -0.00000000000E+00 -0.00000000000E+00 -0.45593999997E+02  0.45594000000E+02  0.51100000000E-03 0.  1.
    9900012    2    1    2    0    0 -0.12337044896E+02 -0.75724742755E+01  0.37995007542E+02  0.50528860295E+02  0.30000001352E+02 0.  0.
        -12    1    1    2    0    0  0.12337044896E+02  0.75724742755E+01 -0.37995007542E+02  0.40659139705E+02  0.00000000000E+00 0.  1.
         11    1    3    3    0    0  0.62726115561E+00 -0.33650074146E+01  0.27677203351E+02  0.27888067647E+02  0.51100000000E-03 0. -1.
        -11    1    3    3    0    0 -0.13604891972E+02 -0.56484664296E+01  0.12922679903E+02  0.19595762672E+02  0.51100000000E-03 0.  1.
         12    1    3    3    0    0  0.64058591994E+00  0.14409995686E+01 -0.26048757122E+01  0.30450299758E+01  0.00000000000E+00 0. -1.
</event>
<event>
 7    1  0.5992960E-013  0.5052888E+02  0.7816164E-02  0.1300439E+00
        -11   -1    0    0    0    0  0.00000000000E+00  0.00000000000E+00  0.45593999997E+02  0.45594000000E+02  0.51100000000E-03 0.  1.
         11   -1    0    0    0    0 -0.00000000000E+00 -0.00000000000E+00 -0.45593999997E+02  0.45594000000E+02  0.51100000000E-03 0. -1.
    9900012    2    1    2    0    0  0.27562918119E+01 -0.20091261321E+02 -0.35240720484E+02  0.50528876716E+02  0.30000051267E+02 0.  0.
        -12    1    1    2    0    0 -0.27562918119E+01  0.20091261321E+02  0.35240720484E+02  0.40659123284E+02  0.00000000000E+00 0.  1.
         11    1    3    3    0    0 -0.42653149497E+01 -0.97928255431E+01  0.10138507781E+01  0.10729409928E+02  0.51100000000E-03 0. -1.
        -11    1    3    3    0    0  0.15501990900E+01 -0.95498453060E+01 -0.15080871466E+02  0.17917459279E+02  0.51100000000E-03 0.  1.
        -12    1    3    3    0    0  0.54714076716E+01 -0.74859047148E+00 -0.21173699795E+02  0.21882007509E+02  0.00000000000E+00 0.  1.
</event>
<event>
 7    1  0.5992960E-013  0.5052886E+02  0.7816164E-02  0.1300439E+00
        -11   -1    0    0    0    0  0.00000000000E+00  0.00000000000E+00  0.45593999997E+02  0.45594000000E+02  0.51100000000E-03 0.  1.
         11   -1    0    0    0    0 -0.00000000000E+00 -0.00000000000E+00 -0.45593999997E+02  0.45594000000E+02  0.51100000000E-03 0. -1.
    9900012    2    1    2    0    0 -0.26444191650E+02 -0.11965389547E+02 -0.28472794975E+02  0.50528857452E+02  0.29999992711E+02 0.  0.
        -12    1    1    2    0    0  0.26444191650E+02  0.11965389547E+02  0.28472794975E+02  0.40659142548E+02  0.00000000000E+00 0.  1.
         11    1    3    3    0    0 -0.68478646877E+01 -0.13800524679E+02 -0.21663267926E+02  0.26582793489E+02  0.51100000000E-03 0. -1.
        -11    1    3    3    0    0 -0.22634552676E+01 -0.52892359211E+00 -0.59994129727E+01  0.64339681529E+01  0.51100000000E-03 0.  1.
         12    1    3    3    0    0 -0.17332871695E+02  0.23640587241E+01 -0.81011407643E+00  0.17512095810E+02  0.00000000000E+00 0. -1.
</event>
<event>
 7    1  0.5992960E-013  0.5052886E+02  0.7816164E-02  0.1300439E+00
        -11   -1    0    0    0    0  0.00000000000E+00  0.00000000000E+00  0.45593999997E+02  0.45594000000E+02  0.51100000000E-03 0. -1.
         11   -1    0    0    0    0 -0.00000000000E+00 -0.00000000000E+00 -0.45593999997E+02  0.45594000000E+02  0.51100000000E-03 0.  1.
    9900012    2    1    2    0    0 -0.17814943925E+02 -0.36502120079E+02 -0.18409193681E+01  0.50528856115E+02  0.29999988648E+02 0.  0.
        -12    1    1    2    0    0  0.17814943925E+02  0.36502120079E+02  0.18409193681E+01  0.40659143885E+02  0.00000000000E+00 0.  1.
         11    1    3    3    0    0 -0.35939118523E+01 -0.15933991298E+02  0.10033127239E+02  0.19169557208E+02  0.51100000000E-03 0. -1.
        -11    1    3    3    0    0 -0.50309913416E+01 -0.13360864012E+02  0.57653443418E+00  0.14288315269E+02  0.51100000000E-03 0.  1.
        -12    1    3    3    0    0 -0.91900407315E+01 -0.72072647687E+01 -0.12450581041E+02  0.17070983638E+02  0.00000000000E+00 0.  1.
</event>
<event>
 7    1  0.5992960E-013  0.5052885E+02  0.7816164E-02  0.1300439E+00
        -11   -1    0    0    0    0  0.00000000000E+00  0.00000000000E+00  0.45593999997E+02  0.45594000000E+02  0.51100000000E-03 0. -1.
         11   -1    0    0    0    0 -0.00000000000E+00 -0.00000000000E+00 -0.45593999997E+02  0.45594000000E+02  0.51100000000E-03 0.  1.
    9900012    2    1    2    0    0 -0.21548356247E+02  0.80456053029E+01  0.33527644037E+02  0.50528851752E+02  0.29999975384E+02 0.  0.
        -12    1    1    2    0    0  0.21548356247E+02 -0.80456053029E+01 -0.33527644037E+02  0.40659148248E+02  0.00000000000E+00 0.  1.
         11    1    3    3    0    0 -0.76062388560E+00  0.34310748303E+01  0.12119990997E+02  0.12619231562E+02  0.51100000000E-03 0. -1.
        -11    1    3    3    0    0 -0.10194749753E+02 -0.47628024083E+00  0.23817770834E+02  0.25912274565E+02  0.51100000000E-03 0.  1.
        -12    1    3    3    0    0 -0.10592982608E+02  0.50908107135E+01 -0.24101177940E+01  0.11997345624E+02  0.00000000000E+00 0.  1.
</event>
<event>
 7    1  0.5992960E-013  0.5052886E+02  0.7816164E-02  0.1300439E+00
        -11   -1    0    0    0    0  0.00000000000E+00  0.00000000000E+00  0.45593999997E+02  0.45594000000E+02  0.51100000000E-03 0.  1.
         11   -1    0    0    0    0 -0.00000000000E+00 -0.00000000000E+00 -0.45593999997E+02  0.45594000000E+02  0.51100000000E-03 0. -1.
    9900012    2    1    2    0    0 -0.37822777819E+01  0.26542853766E+02 -0.30566926510E+02  0.50528859484E+02  0.29999998886E+02 0.  0.
        -12    1    1    2    0    0  0.37822777819E+01 -0.26542853766E+02  0.30566926510E+02  0.40659140516E+02  0.00000000000E+00 0.  1.
         11    1    3    3    0    0 -0.49793738861E+01  0.86540213715E+01 -0.56122236306E+01  0.11453528039E+02  0.51100000000E-03 0. -1.
        -11    1    3    3    0    0 -0.10334735867E+02  0.12668736352E+02 -0.88489868998E+01  0.18590541026E+02  0.51100000000E-03 0.  1.
         12    1    3    3    0    0  0.11531831971E+02  0.52200960422E+01 -0.16105715980E+02  0.20484790419E+02  0.00000000000E+00 0. -1.
</event>
<event>
 7    1  0.5992960E-013  0.5052887E+02  0.7816164E-02  0.1300439E+00
        -11   -1    0    0    0    0  0.00000000000E+00  0.00000000000E+00  0.45593999997E+02  0.45594000000E+02  0.51100000000E-03 0. -1.
         11   -1    0    0    0    0 -0.00000000000E+00 -0.00000000000E+00 -0.45593999997E+02  0.45594000000E+02  0.51100000000E-03 0.  1.
    9900012    2    1    2    0    0 -0.32835739781E+02  0.12615531647E+02  0.20391849018E+02  0.50528868773E+02  0.30000027123E+02 0.  0.
        -12    1    1    2    0    0  0.32835739781E+02 -0.12615531647E+02 -0.20391849018E+02  0.40659131227E+02  0.00000000000E+00 0.  1.
         11    1    3    3    0    0 -0.35889969815E+01 -0.74723041199E+01  0.91952662456E+01  0.12380191831E+02  0.51100000000E-03 0. -1.
        -11    1    3    3    0    0 -0.39509295358E+01 -0.32389393317E+00  0.11689013025E+01  0.41329265651E+01  0.51100000000E-03 0.  1.
        -12    1    3    3    0    0 -0.25295813264E+02  0.20411729700E+02  0.10027681470E+02  0.34015750377E+02  0.00000000000E+00 0.  1.
</event>
<event>
 7    1  0.5992960E-013  0.5052886E+02  0.7816164E-02  0.1300439E+00
        -11   -1    0    0    0    0  0.00000000000E+00  0.00000000000E+00  0.45593999997E+02  0.45594000000E+02  0.51100000000E-03 0. -1.
         11   -1    0    0    0    0 -0.00000000000E+00 -0.00000000000E+00 -0.45593999997E+02  0.45594000000E+02  0.51100000000E-03 0.  1.
    9900012    2    1    2    0    0 -0.18616704264E+02  0.31085037601E+02 -0.18447337059E+02  0.50528862222E+02  0.30000007210E+02 0.  0.
        -12    1    1    2    0    0  0.18616704264E+02 -0.31085037601E+02  0.18447337059E+02  0.40659137778E+02  0.00000000000E+00 0.  1.
         11    1    3    3    0    0 -0.55222299665E+01  0.15076251878E+02  0.28173440154E+01  0.16301098799E+02  0.51100000000E-03 0. -1.
        -11    1    3    3    0    0 -0.34941317862E+01 -0.22175443407E+01  0.60643238409E+00  0.41826092741E+01  0.51100000000E-03 0.  1.
        -12    1    3    3    0    0 -0.96003425112E+01  0.18226330064E+02 -0.21871113458E+02  0.30045154149E+02  0.00000000000E+00 0.  1.
</event>
<event>
 7    1  0.5992960E-013  0.5052886E+02  0.7816164E-02  0.1300439E+00
        -11   -1    0    0    0    0  0.00000000000E+00  0.00000000000E+00  0.45593999997E+02  0.45594000000E+02  0.51100000000E-03 0.  1.
         11   -1    0    0    0    0 -0.00000000000E+00 -0.00000000000E+00 -0.45593999997E+02  0.45594000000E+02  0.51100000000E-03 0. -1.
    9900012    2    1    2    0    0 -0.13741316100E+02  0.12899257804E+02 -0.36027089071E+02  0.50528858752E+02  0.29999996663E+02 0.  0.
        -12    1    1    2    0    0  0.13741316100E+02 -0.12899257804E+02  0.36027089071E+02  0.40659141248E+02  0.00000000000E+00 0.  1.
         11    1    3    3    0    0 -0.97255001865E+01  0.11815390179E+02 -0.70066432310E+01  0.16830978836E+02  0.51100000000E-03 0. -1.
        -11    1    3    3    0    0 -0.28289709186E+01 -0.73230620890E+01 -0.89479920316E+01  0.11903649712E+02  0.51100000000E-03 0.  1.
         12    1    3    3    0    0 -0.11868449946E+01  0.84069297142E+01 -0.20072453809E+02  0.21794230204E+02  0.00000000000E+00 0. -1.
</event>
<event>
 7    1  0.5992960E-013  0.5052885E+02  0.7816164E-02  0.1300439E+00
        -11   -1    0    0    0    0  0.00000000000E+00  0.00000000000E+00  0.45593999997E+02  0.45594000000E+02  0.51100000000E-03 0.  1.
         11   -1    0    0    0    0 -0.00000000000E+00 -0.00000000000E+00 -0.45593999997E+02  0.45594000000E+02  0.51100000000E-03 0. -1.
    9900012    2    1    2    0    0 -0.27310654495E+02 -0.27837384188E+02 -0.11505415694E+02  0.50528850997E+02  0.29999973090E+02 0.  0.
        -12    1    1    2    0    0  0.27310654495E+02  0.27837384188E+02  0.11505415694E+02  0.40659149003E+02  0.00000000000E+00 0.  1.
         11    1    3    3    0    0 -0.92709231025E+01 -0.25579723042E+01  0.63452673726E+01  0.11521964059E+02  0.51100000000E-03 0. -1.
        -11    1    3    3    0    0 -0.62428631738E+00  0.14086029373E+01  0.11338158384E+01  0.19129647821E+01  0.51100000000E-03 0.  1.
         12    1    3    3    0    0 -0.17415445075E+02 -0.26688014821E+02 -0.18984498905E+02  0.37093922156E+02  0.00000000000E+00 0. -1.
</event>
<event>
 7    1  0.5992960E-013  0.5052886E+02  0.7816164E-02  0.1300439E+00
        -11   -1    0    0    0    0  0.00000000000E+00  0.00000000000E+00  0.45593999997E+02  0.45594000000E+02  0.51100000000E-03 0. -1.
         11   -1    0    0    0    0 -0.00000000000E+00 -0.00000000000E+00 -0.45593999997E+02  0.45594000000E+02  0.51100000000E-03 0.  1.
    9900012    2    1    2    0    0 -0.15772453013E+02 -0.10905561620E+02  0.35853374064E+02  0.50528856132E+02  0.29999988700E+02 0.  0.
        -12    1    1    2    0    0  0.15772453013E+02  0.10905561620E+02 -0.35853374064E+02  0.40659143868E+02  0.00000000000E+00 0.  1.
         11    1    3    3    0    0 -0.10660352367E+02  0.19982852449E+01  0.12838300197E+02  0.16806493052E+02  0.51100000000E-03 0. -1.
        -11    1    3    3    0    0  0.52074761723E+01  0.18764854986E+01  0.10199551584E+02  0.11604734322E+02  0.51100000000E-03 0.  1.
         12    1    3    3    0    0 -0.10319576818E+02 -0.14780332364E+02  0.12815522283E+02  0.22117628758E+02  0.00000000000E+00 0. -1.
</event>
<event>
 7    1  0.5992960E-013  0.5052886E+02  0.7816164E-02  0.1300439E+00
        -11   -1    0    0    0    0  0.00000000000E+00  0.00000000000E+00  0.45593999997E+02  0.45594000000E+02  0.51100000000E-03 0.  1.
         11   -1    0    0    0    0 -0.00000000000E+00 -0.00000000000E+00 -0.45593999997E+02  0.45594000000E+02  0.51100000000E-03 0. -1.
    9900012    2    1    2    0    0  0.69820357836E+01 -0.31927777615E+02 -0.24187472769E+02  0.50528860239E+02  0.30000001183E+02 0.  0.
        -12    1    1    2    0    0 -0.69820357836E+01  0.31927777615E+02  0.24187472769E+02  0.40659139761E+02  0.00000000000E+00 0.  1.
         11    1    3    3    0    0 -0.84054316818E+01 -0.88450119282E+01 -0.66430645462E+01  0.13893013517E+02  0.51100000000E-03 0. -1.
        -11    1    3    3    0    0 -0.17053516374E+01  0.21440842312E+00 -0.47191362436E+01  0.50223940831E+01  0.51100000000E-03 0.  1.
         12    1    3    3    0    0  0.17092819103E+02 -0.23297174110E+02 -0.12825271979E+02  0.31613452639E+02  0.00000000000E+00 0. -1.
</event>
<event>
 7    1  0.5992960E-013  0.5052886E+02  0.7816164E-02  0.1300439E+00
        -11   -1    0    0    0    0  0.00000000000E+00  0.00000000000E+00  0.45593999997E+02  0.45594000000E+02  0.51100000000E-03 0. -1.
         11   -1    0    0    0    0 -0.00000000000E+00 -0.00000000000E+00 -0.45593999997E+02  0.45594000000E+02  0.51100000000E-03 0.  1.
    9900012    2    1    2    0    0 -0.20714810950E+02 -0.27569751729E+02 -0.21539994253E+02  0.50528856434E+02  0.29999989617E+02 0.  0.
        -12    1    1    2    0    0  0.20714810950E+02  0.27569751729E+02  0.21539994253E+02  0.40659143566E+02  0.00000000000E+00 0.  1.
         11    1    3    3    0    0 -0.13037902142E+02 -0.11678006296E+02 -0.68635966436E-01  0.17503354949E+02  0.51100000000E-03 0. -1.
        -11    1    3    3    0    0  0.14176723027E+01 -0.32923185224E+01  0.25621908231E+01  0.44061296038E+01  0.51100000000E-03 0.  1.
        -12    1    3    3    0    0 -0.90945811099E+01 -0.12599426911E+02 -0.24033549110E+02  0.28619371881E+02  0.00000000000E+00 0.  1.
</event>
<event>
 7    1  0.5992960E-013  0.5052883E+02  0.7816164E-02  0.1300439E+00
        -11   -1    0    0    0    0  0.00000000000E+00  0.00000000000E+00  0.45593999997E+02  0.45594000000E+02  0.51100000000E-03 0.  1.
         11   -1    0    0    0    0 -0.00000000000E+00 -0.00000000000E+00 -0.45593999997E+02  0.45594000000E+02  0.51100000000E-03 0. -1.
    9900012    2    1    2    0    0  0.38968613587E+02 -0.10503475210E+02  0.49287047808E+01  0.50528831696E+02  0.29999914423E+02 0.  0.
        -12    1    1    2    0    0 -0.38968613587E+02  0.10503475210E+02 -0.49287047808E+01  0.40659168304E+02  0.00000000000E+00 0.  1.
         11    1    3    3    0    0  0.21358692578E+02 -0.10262712925E+02  0.64526637811E+01  0.24559191667E+02  0.51100000000E-03 0.  1.
        -11    1    3    3    0    0  0.15369047480E+02 -0.64730432119E+01 -0.62758463455E+01  0.17818365707E+02  0.51100000000E-03 0. -1.
        -12    1    3    3    0    0  0.22408735295E+01  0.62322809269E+01  0.47518873452E+01  0.81512743218E+01  0.00000000000E+00 0.  1.
</event>
<event>
 7    1  0.5992960E-013  0.5052889E+02  0.7816164E-02  0.1300439E+00
        -11   -1    0    0    0    0  0.00000000000E+00  0.00000000000E+00  0.45593999997E+02  0.45594000000E+02  0.51100000000E-03 0.  1.
         11   -1    0    0    0    0 -0.00000000000E+00 -0.00000000000E+00 -0.45593999997E+02  0.45594000000E+02  0.51100000000E-03 0. -1.
    9900012    2    1    2    0    0  0.30545261703E+02 -0.17464450292E+02 -0.20375057162E+02  0.50528892892E+02  0.30000100434E+02 0.  0.
        -12    1    1    2    0    0 -0.30545261703E+02  0.17464450292E+02  0.20375057162E+02  0.40659107108E+02  0.00000000000E+00 0.  1.
         11    1    3    3    0    0  0.11918917719E+01 -0.20116315726E+01  0.15344733917E+01  0.27967617758E+01  0.51100000000E-03 0. -1.
        -11    1    3    3    0    0 -0.28413951120E+01 -0.65416044908E+01  0.10339892983E+01  0.72066115219E+01  0.51100000000E-03 0.  1.
         12    1    3    3    0    0  0.32194765043E+02 -0.89112142290E+01 -0.22943519852E+02  0.40525519594E+02  0.00000000000E+00 0. -1.
</event>
<event>
 7    1  0.5992960E-013  0.5052881E+02  0.7816164E-02  0.1300439E+00
        -11   -1    0    0    0    0  0.00000000000E+00  0.00000000000E+00  0.45593999997E+02  0.45594000000E+02  0.51100000000E-03 0. -1.
         11   -1    0    0    0    0 -0.00000000000E+00 -0.00000000000E+00 -0.45593999997E+02  0.45594000000E+02  0.51100000000E-03 0.  1.
    9900012    2    1    2    0    0 -0.39131849796E+02 -0.15527720795E+01  0.10929638074E+02  0.50528809673E+02  0.29999847482E+02 0.  0.
        -12    1    1    2    0    0  0.39131849796E+02  0.15527720795E+01 -0.10929638074E+02  0.40659190327E+02  0.00000000000E+00 0.  1.
         11    1    3    3    0    0 -0.82187900903E+01  0.45841020478E+01 -0.46492122085E+01  0.10496555461E+02  0.51100000000E-03 0. -1.
        -11    1    3    3    0    0 -0.19338113185E+02  0.29233170515E+01  0.13980588677E+01  0.19607727380E+02  0.51100000000E-03 0.  1.
         12    1    3    3    0    0 -0.11574946520E+02 -0.90601911788E+01  0.14180791415E+02  0.20424526832E+02  0.00000000000E+00 0. -1.
</event>
<event>
 7    1  0.5992960E-013  0.5052887E+02  0.7816164E-02  0.1300439E+00
        -11   -1    0    0    0    0  0.00000000000E+00  0.00000000000E+00  0.45593999997E+02  0.45594000000E+02  0.51100000000E-03 0. -1.
         11   -1    0    0    0    0 -0.00000000000E+00 -0.00000000000E+00 -0.45593999997E+02  0.45594000000E+02  0.51100000000E-03 0.  1.
    9900012    2    1    2    0    0  0.21151033821E+00  0.53298797740E+01  0.40307727474E+02  0.50528865121E+02  0.30000016021E+02 0.  0.
        -12    1    1    2    0    0 -0.21151033821E+00 -0.53298797740E+01 -0.40307727474E+02  0.40659134879E+02  0.00000000000E+00 0.  1.
         11    1    3    3    0    0 -0.58810346912E+00 -0.82186501049E+01  0.56287804113E+01  0.99787396207E+01  0.51100000000E-03 0. -1.
        -11    1    3    3    0    0  0.29543423589E+01 -0.69556769426E+00  0.40555972624E-01  0.30353909533E+01  0.51100000000E-03 0.  1.
         12    1    3    3    0    0 -0.21547285516E+01  0.14244097573E+02  0.34638391090E+02  0.37514734547E+02  0.00000000000E+00 0. -1.
</event>
<event>
 7    1  0.5992960E-013  0.5052886E+02  0.7816164E-02  0.1300439E+00
        -11   -1    0    0    0    0  0.00000000000E+00  0.00000000000E+00  0.45593999997E+02  0.45594000000E+02  0.51100000000E-03 0.  1.
         11   -1    0    0    0    0 -0.00000000000E+00 -0.00000000000E+00 -0.45593999997E+02  0.45594000000E+02  0.51100000000E-03 0. -1.
    9900012    2    1    2    0    0  0.37746774708E+01 -0.16847871511E+02 -0.36811234732E+02  0.50528856294E+02  0.29999989191E+02 0.  0.
        -12    1    1    2    0    0 -0.37746774708E+01  0.16847871511E+02  0.36811234732E+02  0.40659143706E+02  0.00000000000E+00 0.  1.
         11    1    3    3    0    0  0.38671504263E+01 -0.14140159543E+02 -0.10107533688E+02  0.17806212451E+02  0.51100000000E-03 0. -1.
        -11    1    3    3    0    0 -0.93165309857E+01 -0.89715967246E-01 -0.13611063189E+02  0.16494448762E+02  0.51100000000E-03 0.  1.
         12    1    3    3    0    0  0.92240580302E+01 -0.26179960003E+01 -0.13092637855E+02  0.16228195081E+02  0.00000000000E+00 0. -1.
</event>
<event>
 7    1  0.5992960E-013  0.5052882E+02  0.7816164E-02  0.1300439E+00
        -11   -1    0    0    0    0  0.00000000000E+00  0.00000000000E+00  0.45593999997E+02  0.45594000000E+02  0.51100000000E-03 0. -1.
         11   -1    0    0    0    0 -0.00000000000E+00 -0.00000000000E+00 -0.45593999997E+02  0.45594000000E+02  0.51100000000E-03 0.  1.
    9900012    2    1    2    0    0 -0.40282456451E+02 -0.54303890421E+01  0.10018637011E+01  0.50528817104E+02  0.29999870070E+02 0.  0.
        -12    1    1    2    0    0  0.40282456451E+02  0.54303890421E+01 -0.10018637011E+01  0.40659182896E+02  0.00000000000E+00 0.  1.
         11    1    3    3    0    0 -0.38390874379E+02 -0.10504641586E+02 -0.35465116990E+01  0.39959785734E+02  0.51100000000E-03 0. -1.
        -11    1    3    3    0    0 -0.44621736634E+01  0.53121594255E+01  0.36228496269E+01  0.78265619045E+01  0.51100000000E-03 0.  1.
        -12    1    3    3    0    0  0.25705915912E+01 -0.23790688145E+00  0.92552577324E+00  0.27424694656E+01  0.00000000000E+00 0.  1.
</event>
<event>
 7    1  0.5992960E-013  0.5052886E+02  0.7816164E-02  0.1300439E+00
        -11   -1    0    0    0    0  0.00000000000E+00  0.00000000000E+00  0.45593999997E+02  0.45594000000E+02  0.51100000000E-03 0.  1.
         11   -1    0    0    0    0 -0.00000000000E+00 -0.00000000000E+00 -0.45593999997E+02  0.45594000000E+02  0.51100000000E-03 0. -1.
    9900012    2    1    2    0    0  0.36638879648E+02 -0.16411207638E+02  0.64366678290E+01  0.50528856739E+02  0.29999990544E+02 0.  0.
        -12    1    1    2    0    0 -0.36638879648E+02  0.16411207638E+02 -0.64366678290E+01  0.40659143261E+02  0.00000000000E+00 0.  1.
         11    1    3    3    0    0  0.29744568491E+02 -0.34956325407E+01  0.25833406468E+01  0.30060479882E+02  0.51100000000E-03 0. -1.
        -11    1    3    3    0    0  0.72943569789E+00  0.29688301163E+01  0.40024506452E+00  0.30832166758E+01  0.51100000000E-03 0.  1.
         12    1    3    3    0    0  0.61648754586E+01 -0.15884405214E+02  0.34530821177E+01  0.17385160181E+02  0.00000000000E+00 0. -1.
</event>
<event>
 7    1  0.5992960E-013  0.5052886E+02  0.7816164E-02  0.1300439E+00
        -11   -1    0    0    0    0  0.00000000000E+00  0.00000000000E+00  0.45593999997E+02  0.45594000000E+02  0.51100000000E-03 0.  1.
         11   -1    0    0    0    0 -0.00000000000E+00 -0.00000000000E+00 -0.45593999997E+02  0.45594000000E+02  0.51100000000E-03 0. -1.
    9900012    2    1    2    0    0 -0.12503068351E+02 -0.19993717314E+02 -0.33122350847E+02  0.50528861103E+02  0.30000003809E+02 0.  0.
        -12    1    1    2    0    0  0.12503068351E+02  0.19993717314E+02  0.33122350847E+02  0.40659138897E+02  0.00000000000E+00 0.  1.
         11    1    3    3    0    0 -0.10691592969E+02 -0.13009999266E+02 -0.18144610047E+02  0.24754739246E+02  0.51100000000E-03 0. -1.
        -11    1    3    3    0    0  0.18710563765E+01 -0.11480767946E+02 -0.23420549675E+01  0.11865669232E+02  0.51100000000E-03 0.  1.
        -12    1    3    3    0    0 -0.36825317585E+01  0.44970498989E+01 -0.12635685833E+02  0.13908452625E+02  0.00000000000E+00 0.  1.
</event>
<event>
 7    1  0.5992960E-013  0.5052887E+02  0.7816164E-02  0.1300439E+00
        -11   -1    0    0    0    0  0.00000000000E+00  0.00000000000E+00  0.45593999997E+02  0.45594000000E+02  0.51100000000E-03 0. -1.
         11   -1    0    0    0    0 -0.00000000000E+00 -0.00000000000E+00 -0.45593999997E+02  0.45594000000E+02  0.51100000000E-03 0.  1.
    9900012    2    1    2    0    0  0.33312906868E+01  0.36553344470E+02 -0.17490586457E+02  0.50528866903E+02  0.30000021438E+02 0.  0.
        -12    1    1    2    0    0 -0.33312906868E+01 -0.36553344470E+02  0.17490586457E+02  0.40659133097E+02  0.00000000000E+00 0.  1.
         11    1    3    3    0    0 -0.43069802998E+01  0.24252919573E+02 -0.13940834887E+02  0.28303728813E+02  0.51100000000E-03 0. -1.
        -11    1    3    3    0    0 -0.98768254819E+00  0.12554759606E+02  0.68545733112E+00  0.12612190832E+02  0.51100000000E-03 0.  1.
        -12    1    3    3    0    0  0.86259535348E+01 -0.25433470887E+00 -0.42352089015E+01  0.96129472571E+01  0.00000000000E+00 0.  1.
</event>
<event>
 7    1  0.5992960E-013  0.5052887E+02  0.7816164E-02  0.1300439E+00
        -11   -1    0    0    0    0  0.00000000000E+00  0.00000000000E+00  0.45593999997E+02  0.45594000000E+02  0.51100000000E-03 0.  1.
         11   -1    0    0    0    0 -0.00000000000E+00 -0.00000000000E+00 -0.45593999997E+02  0.45594000000E+02  0.51100000000E-03 0. -1.
    9900012    2    1    2    0    0  0.20966353123E+02  0.23669909910E+02 -0.25559978462E+02  0.50528866986E+02  0.30000021692E+02 0.  0.
        -12    1    1    2    0    0 -0.20966353123E+02 -0.23669909910E+02  0.25559978462E+02  0.40659133014E+02  0.00000000000E+00 0.  1.
         11    1    3    3    0    0 -0.99707738941E+00  0.40891283992E+00 -0.11916664780E+02  0.11965294513E+02  0.51100000000E-03 0. -1.
        -11    1    3    3    0    0 -0.12144127112E+01  0.54997928635E+01 -0.63064347341E+01  0.84553911259E+01  0.51100000000E-03 0.  1.
         12    1    3    3    0    0  0.23177843224E+02  0.17761204207E+02 -0.73368789474E+01  0.30108181348E+02  0.00000000000E+00 0. -1.
</event>
<event>
 7    1  0.5992960E-013  0.5052886E+02  0.7816164E-02  0.1300439E+00
        -11   -1    0    0    0    0  0.00000000000E+00  0.00000000000E+00  0.45593999997E+02  0.45594000000E+02  0.51100000000E-03 0.  1.
         11   -1    0    0    0    0 -0.00000000000E+00 -0.00000000000E+00 -0.45593999997E+02  0.45594000000E+02  0.51100000000E-03 0. -1.
    9900012    2    1    2    0    0  0.11574318382E+02  0.38976899874E+02  0.47160611954E-01  0.50528858422E+02  0.29999995659E+02 0.  0.
        -12    1    1    2    0    0 -0.11574318382E+02 -0.38976899874E+02 -0.47160611954E-01  0.40659141578E+02  0.00000000000E+00 0.  1.
         11    1    3    3    0    0 -0.48643283973E+01  0.65563807575E+01  0.54894658049E+00  0.81822467577E+01  0.51100000000E-03 0. -1.
        -11    1    3    3    0    0 -0.40424608910E+01  0.12508234756E+02  0.32363731588E+01  0.13537781881E+02  0.51100000000E-03 0.  1.
         12    1    3    3    0    0  0.20481107670E+02  0.19912284360E+02 -0.37381591274E+01  0.28808829783E+02  0.00000000000E+00 0. -1.
</event>
<event>
 7    1  0.5992960E-013  0.5052886E+02  0.7816164E-02  0.1300439E+00
        -11   -1    0    0    0    0  0.00000000000E+00  0.00000000000E+00  0.45593999997E+02  0.45594000000E+02  0.51100000000E-03 0. -1.
         11   -1    0    0    0    0 -0.00000000000E+00 -0.00000000000E+00 -0.45593999997E+02  0.45594000000E+02  0.51100000000E-03 0.  1.
    9900012    2    1    2    0    0  0.13813221706E+02 -0.38240814429E+02  0.28278071007E-01  0.50528858571E+02  0.29999996114E+02 0.  0.
        -12    1    1    2    0    0 -0.13813221706E+02  0.38240814429E+02 -0.28278071007E-01  0.40659141429E+02  0.00000000000E+00 0.  1.
         11    1    3    3    0    0  0.13353011089E+02 -0.23013834673E+02  0.11920981474E+01  0.26633824167E+02  0.51100000000E-03 0. -1.
        -11    1    3    3    0    0  0.26357785299E+01 -0.16141861421E+01  0.71549617443E+01  0.77939978948E+01  0.51100000000E-03 0.  1.
         12    1    3    3    0    0 -0.21755679129E+01 -0.13612793614E+02 -0.83187818207E+01  0.16101036510E+02  0.00000000000E+00 0. -1.
</event>
<event>
 7    1  0.5992960E-013  0.5052886E+02  0.7816164E-02  0.1300439E+00
        -11   -1    0    0    0    0  0.00000000000E+00  0.00000000000E+00  0.45593999997E+02  0.45594000000E+02  0.51100000000E-03 0. -1.
         11   -1    0    0    0    0 -0.00000000000E+00 -0.00000000000E+00 -0.45593999997E+02  0.45594000000E+02  0.51100000000E-03 0.  1.
    9900012    2    1    2    0    0  0.40613011278E+02  0.51567627643E+00  0.18662311655E+01  0.50528862947E+02  0.30000009415E+02 0.  0.
        -12    1    1    2    0    0 -0.40613011278E+02 -0.51567627643E+00 -0.18662311655E+01  0.40659137053E+02  0.00000000000E+00 0.  1.
         11    1    3    3    0    0  0.11399911424E+02  0.21721501809E+01 -0.57135743290E+01  0.12935267634E+02  0.51100000000E-03 0. -1.
        -11    1    3    3    0    0  0.18119454282E+01  0.59269687671E+01 -0.34554265195E+01  0.70959197919E+01  0.51100000000E-03 0.  1.
         12    1    3    3    0    0  0.27401154426E+02 -0.75834426716E+01  0.11035232014E+02  0.30497675521E+02  0.00000000000E+00 0. -1.
</event>
<event>
 7    1  0.5992960E-013  0.5052885E+02  0.7816164E-02  0.1300439E+00
        -11   -1    0    0    0    0  0.00000000000E+00  0.00000000000E+00  0.45593999997E+02  0.45594000000E+02  0.51100000000E-03 0. -1.
         11   -1    0    0    0    0 -0.00000000000E+00 -0.00000000000E+00 -0.45593999997E+02  0.45594000000E+02  0.51100000000E-03 0.  1.
    9900012    2    1    2    0    0 -0.33885167681E+02 -0.19501108635E+02  0.11165512585E+02  0.50528849762E+02  0.29999969336E+02 0.  0.
        -12    1    1    2    0    0  0.33885167681E+02  0.19501108635E+02 -0.11165512585E+02  0.40659150238E+02  0.00000000000E+00 0.  1.
         11    1    3    3    0    0 -0.35299126493E+01  0.45803330206E+01  0.97925471023E+00  0.58650382727E+01  0.51100000000E-03 0.  1.
        -11    1    3    3    0    0 -0.31236048978E+02 -0.26196622329E+02  0.11012252008E+02  0.42228230744E+02  0.51100000000E-03 0. -1.
         12    1    3    3    0    0  0.88079394613E+00  0.21151806734E+01 -0.82599413367E+00  0.24355807451E+01  0.00000000000E+00 0. -1.
</event>
<event>
 7    1  0.5992960E-013  0.5052884E+02  0.7816164E-02  0.1300439E+00
        -11   -1    0    0    0    0  0.00000000000E+00  0.00000000000E+00  0.45593999997E+02  0.45594000000E+02  0.51100000000E-03 0.  1.
         11   -1    0    0    0    0 -0.00000000000E+00 -0.00000000000E+00 -0.45593999997E+02  0.45594000000E+02  0.51100000000E-03 0. -1.
    9900012    2    1    2    0    0  0.21806970977E+02  0.25857681312E+01 -0.34218957264E+02  0.50528840930E+02  0.29999942492E+02 0.  0.
        -12    1    1    2    0    0 -0.21806970977E+02 -0.25857681312E+01  0.34218957264E+02  0.40659159070E+02  0.00000000000E+00 0.  1.
         11    1    3    3    0    0  0.50297865598E+01  0.82423618823E+01 -0.45507011618E+00  0.96665594349E+01  0.51100000000E-03 0. -1.
        -11    1    3    3    0    0  0.39812157191E+01  0.45801882557E+01 -0.54925987276E+01  0.81851599925E+01  0.51100000000E-03 0.  1.
         12    1    3    3    0    0  0.12795968698E+02 -0.10236782007E+02 -0.28271288420E+02  0.32677121503E+02  0.00000000000E+00 0. -1.
</event>
<event>
 7    1  0.5992960E-013  0.5052885E+02  0.7816164E-02  0.1300439E+00
        -11   -1    0    0    0    0  0.00000000000E+00  0.00000000000E+00  0.45593999997E+02  0.45594000000E+02  0.51100000000E-03 0.  1.
         11   -1    0    0    0    0 -0.00000000000E+00 -0.00000000000E+00 -0.45593999997E+02  0.45594000000E+02  0.51100000000E-03 0. -1.
    9900012    2    1    2    0    0 -0.33088529711E+02 -0.17543162481E+02 -0.15828869303E+02  0.50528850333E+02  0.29999971071E+02 0.  0.
        -12    1    1    2    0    0  0.33088529711E+02  0.17543162481E+02  0.15828869303E+02  0.40659149667E+02  0.00000000000E+00 0.  1.
         11    1    3    3    0    0 -0.12876323608E+02 -0.91414789661E+01 -0.16954746768E+02  0.23169587514E+02  0.51100000000E-03 0. -1.
        -11    1    3    3    0    0 -0.14292760833E+02 -0.46793007682E+01 -0.70426438060E+01  0.16606555933E+02  0.51100000000E-03 0.  1.
        -12    1    3    3    0    0 -0.59194452703E+01 -0.37223827467E+01  0.81685212709E+01  0.10752706886E+02  0.00000000000E+00 0.  1.
</event>
<event>
 7    1  0.5992960E-013  0.5052886E+02  0.7816164E-02  0.1300439E+00
        -11   -1    0    0    0    0  0.00000000000E+00  0.00000000000E+00  0.45593999997E+02  0.45594000000E+02  0.51100000000E-03 0.  1.
         11   -1    0    0    0    0 -0.00000000000E+00 -0.00000000000E+00 -0.45593999997E+02  0.45594000000E+02  0.51100000000E-03 0. -1.
    9900012    2    1    2    0    0 -0.37362078805E+01 -0.34530985565E+02 -0.21138050882E+02  0.50528863161E+02  0.30000010064E+02 0.  0.
        -12    1    1    2    0    0  0.37362078805E+01  0.34530985565E+02  0.21138050882E+02  0.40659136839E+02  0.00000000000E+00 0.  1.
         11    1    3    3    0    0 -0.42788230233E+01 -0.28793100787E+02 -0.12405659561E+02  0.31642556294E+02  0.51100000000E-03 0. -1.
        -11    1    3    3    0    0  0.28753241091E+01 -0.10785418085E+02 -0.62976380404E+01  0.12816121767E+02  0.51100000000E-03 0.  1.
         12    1    3    3    0    0 -0.23327089663E+01  0.50475333074E+01 -0.24347532802E+01  0.60701850998E+01  0.00000000000E+00 0. -1.
</event>
<event>
 7    1  0.5992960E-013  0.5052885E+02  0.7816164E-02  0.1300439E+00
        -11   -1    0    0    0    0  0.00000000000E+00  0.00000000000E+00  0.45593999997E+02  0.45594000000E+02  0.51100000000E-03 0. -1.
         11   -1    0    0    0    0 -0.00000000000E+00 -0.00000000000E+00 -0.45593999997E+02  0.45594000000E+02  0.51100000000E-03 0.  1.
    9900012    2    1    2    0    0  0.33390693928E+02  0.18058754887E+02  0.14563982844E+02  0.50528847705E+02  0.29999963084E+02 0.  0.
        -12    1    1    2    0    0 -0.33390693928E+02 -0.18058754887E+02 -0.14563982844E+02  0.40659152295E+02  0.00000000000E+00 0.  1.
         11    1    3    3    0    0  0.12164274298E+02  0.23348113705E+01  0.10318353341E+02  0.16121083377E+02  0.51100000000E-03 0. -1.
        -11    1    3    3    0    0  0.20898983337E+02  0.10327807998E+02  0.10983250215E+02  0.25769418079E+02  0.51100000000E-03 0.  1.
        -12    1    3    3    0    0  0.32743629325E+00  0.53961355182E+01 -0.67376207120E+01  0.86383462489E+01  0.00000000000E+00 0.  1.
</event>
<event>
 7    1  0.5992960E-013  0.5052886E+02  0.7816164E-02  0.1300439E+00
        -11   -1    0    0    0    0  0.00000000000E+00  0.00000000000E+00  0.45593999997E+02  0.45594000000E+02  0.51100000000E-03 0.  1.
         11   -1    0    0    0    0 -0.00000000000E+00 -0.00000000000E+00 -0.45593999997E+02  0.45594000000E+02  0.51100000000E-03 0. -1.
    9900012    2    1    2    0    0  0.23371762441E+02 -0.26308824885E+02 -0.20365962895E+02  0.50528855997E+02  0.29999988289E+02 0.  0.
        -12    1    1    2    0    0 -0.23371762441E+02  0.26308824885E+02  0.20365962895E+02  0.40659144003E+02  0.00000000000E+00 0.  1.
         11    1    3    3    0    0 -0.36964191412E+01 -0.66676453244E+01 -0.82373491399E-01  0.76241585957E+01  0.51100000000E-03 0. -1.
        -11    1    3    3    0    0 -0.17921430083E+01  0.49828717696E+00 -0.33913663801E+01  0.38680011450E+01  0.51100000000E-03 0.  1.
         12    1    3    3    0    0  0.28860324590E+02 -0.20139466738E+02 -0.16892223023E+02  0.39036696256E+02  0.00000000000E+00 0. -1.
</event>
<event>
 7    1  0.5992960E-013  0.5052884E+02  0.7816164E-02  0.1300439E+00
        -11   -1    0    0    0    0  0.00000000000E+00  0.00000000000E+00  0.45593999997E+02  0.45594000000E+02  0.51100000000E-03 0.  1.
         11   -1    0    0    0    0 -0.00000000000E+00 -0.00000000000E+00 -0.45593999997E+02  0.45594000000E+02  0.51100000000E-03 0. -1.
    9900012    2    1    2    0    0  0.20104440299E+02  0.29415173095E+02 -0.19588932602E+02  0.50528841026E+02  0.29999942783E+02 0.  0.
        -12    1    1    2    0    0 -0.20104440299E+02 -0.29415173095E+02  0.19588932602E+02  0.40659158974E+02  0.00000000000E+00 0.  1.
         11    1    3    3    0    0  0.70954352843E+01 -0.77423654643E+00  0.65571368177E+00  0.71676080248E+01  0.51100000000E-03 0.  1.
        -11    1    3    3    0    0  0.99020310323E+01  0.29120471141E+01 -0.89990839906E+01  0.13693566003E+02  0.51100000000E-03 0. -1.
         12    1    3    3    0    0  0.31069739828E+01  0.27277362528E+02 -0.11245562293E+02  0.29667666998E+02  0.00000000000E+00 0. -1.
</event>
<event>
 7    1  0.5992960E-013  0.5052886E+02  0.7816164E-02  0.1300439E+00
        -11   -1    0    0    0    0  0.00000000000E+00  0.00000000000E+00  0.45593999997E+02  0.45594000000E+02  0.51100000000E-03 0.  1.
         11   -1    0    0    0    0 -0.00000000000E+00 -0.00000000000E+00 -0.45593999997E+02  0.45594000000E+02  0.51100000000E-03 0. -1.
    9900012    2    1    2    0    0  0.12971757007E+02  0.17145196219E+02 -0.34510019696E+02  0.50528859666E+02  0.29999999441E+02 0.  0.
        -12    1    1    2    0    0 -0.12971757007E+02 -0.17145196219E+02  0.34510019696E+02  0.40659140334E+02  0.00000000000E+00 0.  1.
         11    1    3    3    0    0  0.22565353219E+01  0.16522529770E+02 -0.38738438199E+01  0.17119947660E+02  0.51100000000E-03 0. -1.
        -11    1    3    3    0    0  0.29851602282E+01  0.25580933645E+01 -0.40089359831E+01  0.56148545152E+01  0.51100000000E-03 0.  1.
        -12    1    3    3    0    0  0.77300614573E+01 -0.19354269158E+01 -0.26627239893E+02  0.27794057491E+02  0.00000000000E+00 0.  1.
</event>
<event>
 7    1  0.5992960E-013  0.5052886E+02  0.7816164E-02  0.1300439E+00
        -11   -1    0    0    0    0  0.00000000000E+00  0.00000000000E+00  0.45593999997E+02  0.45594000000E+02  0.51100000000E-03 0. -1.
         11   -1    0    0    0    0 -0.00000000000E+00 -0.00000000000E+00 -0.45593999997E+02  0.45594000000E+02  0.51100000000E-03 0.  1.
    9900012    2    1    2    0    0 -0.43270974603E+01 -0.36339561910E+02  0.17716601890E+02  0.50528861854E+02  0.30000006091E+02 0.  0.
        -12    1    1    2    0    0  0.43270974603E+01  0.36339561910E+02 -0.17716601890E+02  0.40659138146E+02  0.00000000000E+00 0.  1.
         11    1    3    3    0    0  0.11188066186E+01 -0.17450145068E+01 -0.47098475684E+01  0.51458204649E+01  0.51100000000E-03 0. -1.
        -11    1    3    3    0    0  0.61306451589E+01 -0.58827758695E+01  0.47469220362E+01  0.97326836522E+01  0.51100000000E-03 0.  1.
         12    1    3    3    0    0 -0.11576549238E+02 -0.28711771534E+02  0.17679527422E+02  0.35650357737E+02  0.00000000000E+00 0. -1.
</event>
<event>
 7    1  0.6052278E-013  0.5052886E+02  0.7816164E-02  0.1300439E+00
        -11   -1    0    0    0    0  0.00000000000E+00  0.00000000000E+00  0.45593999997E+02  0.45594000000E+02  0.51100000000E-03 0. -1.
         11   -1    0    0    0    0 -0.00000000000E+00 -0.00000000000E+00 -0.45593999997E+02  0.45594000000E+02  0.51100000000E-03 0.  1.
    9900012    2    1    2    0    0  0.32776105949E+01 -0.32629872186E+02  0.24035697327E+02  0.50528855444E+02  0.29999986607E+02 0.  0.
        -12    1    1    2    0    0 -0.32776105949E+01  0.32629872186E+02 -0.24035697327E+02  0.40659144556E+02  0.00000000000E+00 0.  1.
         11    1    3    3    0    0 -0.22329691812E+00 -0.22278015913E+02  0.80929165235E+01  0.23703483977E+02  0.51100000000E-03 0. -1.
        -11    1    3    3    0    0  0.52050375554E+01 -0.25418515079E+00 -0.24619541225E+01  0.57635270804E+01  0.51100000000E-03 0.  1.
         12    1    3    3    0    0 -0.17041300423E+01 -0.10097671122E+02  0.18404734926E+02  0.21061844387E+02  0.00000000000E+00 0. -1.
</event>
<event>
 7    1  0.5992960E-013  0.5052886E+02  0.7816164E-02  0.1300439E+00
        -11   -1    0    0    0    0  0.00000000000E+00  0.00000000000E+00  0.45593999997E+02  0.45594000000E+02  0.51100000000E-03 0.  1.
         11   -1    0    0    0    0 -0.00000000000E+00 -0.00000000000E+00 -0.45593999997E+02  0.45594000000E+02  0.51100000000E-03 0. -1.
    9900012    2    1    2    0    0  0.34349581892E+02 -0.83898678861E+01 -0.20071925419E+02  0.50528857740E+02  0.29999993586E+02 0.  0.
        -12    1    1    2    0    0 -0.34349581892E+02  0.83898678861E+01  0.20071925419E+02  0.40659142260E+02  0.00000000000E+00 0.  1.
         11    1    3    3    0    0  0.66054145380E+01 -0.44132258480E+01 -0.76636435944E+01  0.11038092997E+02  0.51100000000E-03 0. -1.
        -11    1    3    3    0    0  0.42083832473E+01  0.17695370338E+01 -0.14472909172E+02  0.15175864095E+02  0.51100000000E-03 0.  1.
        -12    1    3    3    0    0  0.23535784107E+02 -0.57461790719E+01  0.20646273470E+01  0.24314900648E+02  0.00000000000E+00 0.  1.
</event>
<event>
 7    1  0.5992960E-013  0.5052887E+02  0.7816164E-02  0.1300439E+00
        -11   -1    0    0    0    0  0.00000000000E+00  0.00000000000E+00  0.45593999997E+02  0.45594000000E+02  0.51100000000E-03 0.  1.
         11   -1    0    0    0    0 -0.00000000000E+00 -0.00000000000E+00 -0.45593999997E+02  0.45594000000E+02  0.51100000000E-03 0. -1.
    9900012    2    1    2    0    0  0.37195584161E+02  0.11936799208E+02 -0.11276801728E+02  0.50528869247E+02  0.30000028563E+02 0.  0.
        -12    1    1    2    0    0 -0.37195584161E+02 -0.11936799208E+02  0.11276801728E+02  0.40659130753E+02  0.00000000000E+00 0.  1.
         11    1    3    3    0    0  0.11095290637E+02  0.66281477281E+01 -0.31558511928E+01  0.13304029978E+02  0.51100000000E-03 0. -1.
        -11    1    3    3    0    0  0.57502665756E+01  0.12076462943E+02 -0.83679939838E+01  0.15777510782E+02  0.51100000000E-03 0.  1.
        -12    1    3    3    0    0  0.20350026948E+02 -0.67678114636E+01  0.24704344829E+00  0.21447328487E+02  0.00000000000E+00 0.  1.
</event>
<event>
 7    1  0.5992960E-013  0.5052886E+02  0.7816164E-02  0.1300439E+00
        -11   -1    0    0    0    0  0.00000000000E+00  0.00000000000E+00  0.45593999997E+02  0.45594000000E+02  0.51100000000E-03 0.  1.
         11   -1    0    0    0    0 -0.00000000000E+00 -0.00000000000E+00 -0.45593999997E+02  0.45594000000E+02  0.51100000000E-03 0. -1.
    9900012    2    1    2    0    0  0.13532735968E+02  0.77291860485E+01 -0.37553837132E+02  0.50528856586E+02  0.29999990080E+02 0.  0.
        -12    1    1    2    0    0 -0.13532735968E+02 -0.77291860485E+01  0.37553837132E+02  0.40659143414E+02  0.00000000000E+00 0.  1.
         11    1    3    3    0    0 -0.91160137148E+00  0.71654405817E+01 -0.14235456524E+02  0.15963169438E+02  0.51100000000E-03 0. -1.
        -11    1    3    3    0    0 -0.23766492459E+01  0.69423194510E+01 -0.49255187879E+01  0.88377031285E+01  0.51100000000E-03 0.  1.
         12    1    3    3    0    0  0.16820986586E+02 -0.63785739842E+01 -0.18392861821E+02  0.25727984020E+02  0.00000000000E+00 0. -1.
</event>
<event>
 7    1  0.5992960E-013  0.5052886E+02  0.7816164E-02  0.1300439E+00
        -11   -1    0    0    0    0  0.00000000000E+00  0.00000000000E+00  0.45593999997E+02  0.45594000000E+02  0.51100000000E-03 0.  1.
         11   -1    0    0    0    0 -0.00000000000E+00 -0.00000000000E+00 -0.45593999997E+02  0.45594000000E+02  0.51100000000E-03 0. -1.
    9900012    2    1    2    0    0  0.12969449499E+02  0.11917492713E+02 -0.36646044294E+02  0.50528858158E+02  0.29999994858E+02 0.  0.
        -12    1    1    2    0    0 -0.12969449499E+02 -0.11917492713E+02  0.36646044294E+02  0.40659141842E+02  0.00000000000E+00 0.  1.
         11    1    3    3    0    0  0.70870951619E+01  0.57429150517E+01 -0.21537535212E+02  0.23389600561E+02  0.51100000000E-03 0. -1.
        -11    1    3    3    0    0  0.19338643339E+01  0.13002835263E+02 -0.44480452496E+01  0.13877992035E+02  0.51100000000E-03 0.  1.
         12    1    3    3    0    0  0.39484900036E+01 -0.68282576012E+01 -0.10660463833E+02  0.13261265562E+02  0.00000000000E+00 0. -1.
</event>
<event>
 7    1  0.5992960E-013  0.5052885E+02  0.7816164E-02  0.1300439E+00
        -11   -1    0    0    0    0  0.00000000000E+00  0.00000000000E+00  0.45593999997E+02  0.45594000000E+02  0.51100000000E-03 0.  1.
         11   -1    0    0    0    0 -0.00000000000E+00 -0.00000000000E+00 -0.45593999997E+02  0.45594000000E+02  0.51100000000E-03 0. -1.
    9900012    2    1    2    0    0 -0.23048457375E+02 -0.27942427457E+02 -0.18470415206E+02  0.50528845097E+02  0.29999955156E+02 0.  0.
        -12    1    1    2    0    0  0.23048457375E+02  0.27942427457E+02  0.18470415206E+02  0.40659154903E+02  0.00000000000E+00 0.  1.
         11    1    3    3    0    0 -0.17668357705E+02 -0.18243109178E+02 -0.47521706076E+01  0.25837279699E+02  0.51100000000E-03 0. -1.
        -11    1    3    3    0    0 -0.10749763961E+02 -0.87470101639E+01 -0.56792442505E+01  0.14977363838E+02  0.51100000000E-03 0.  1.
        -12    1    3    3    0    0  0.53696642913E+01 -0.95230811462E+00 -0.80390003476E+01  0.97142015594E+01  0.00000000000E+00 0.  1.
</event>
<event>
 7    1  0.5992960E-013  0.5052886E+02  0.7816164E-02  0.1300439E+00
        -11   -1    0    0    0    0  0.00000000000E+00  0.00000000000E+00  0.45593999997E+02  0.45594000000E+02  0.51100000000E-03 0.  1.
         11   -1    0    0    0    0 -0.00000000000E+00 -0.00000000000E+00 -0.45593999997E+02  0.45594000000E+02  0.51100000000E-03 0. -1.
    9900012    2    1    2    0    0  0.38355389773E+02  0.33359858310E+01  0.13072917845E+02  0.50528857029E+02  0.29999991426E+02 0.  0.
        -12    1    1    2    0    0 -0.38355389773E+02 -0.33359858310E+01 -0.13072917845E+02  0.40659142971E+02  0.00000000000E+00 0.  1.
         11    1    3    3    0    0  0.24428293849E+02  0.12591604243E+02  0.68857875662E+01  0.28332033257E+02  0.51100000000E-03 0. -1.
        -11    1    3    3    0    0  0.28765481670E+01  0.34405892224E+01  0.12302532439E+01  0.46503448109E+01  0.51100000000E-03 0.  1.
        -12    1    3    3    0    0  0.11050547757E+02 -0.12696207634E+02  0.49568770348E+01  0.17546478962E+02  0.00000000000E+00 0.  1.
</event>
<event>
 7    1  0.5992960E-013  0.5052884E+02  0.7816164E-02  0.1300439E+00
        -11   -1    0    0    0    0  0.00000000000E+00  0.00000000000E+00  0.45593999997E+02  0.45594000000E+02  0.51100000000E-03 0.  1.
         11   -1    0    0    0    0 -0.00000000000E+00 -0.00000000000E+00 -0.45593999997E+02  0.45594000000E+02  0.51100000000E-03 0. -1.
    9900012    2    1    2    0    0  0.97762279846E+01  0.38740172326E+02 -0.75360084379E+01  0.50528843484E+02  0.29999950254E+02 0.  0.
        -12    1    1    2    0    0 -0.97762279846E+01 -0.38740172326E+02  0.75360084379E+01  0.40659156516E+02  0.00000000000E+00 0.  1.
         11    1    3    3    0    0 -0.38524228270E-02  0.25509360193E+02 -0.74635874513E+01  0.26578800015E+02  0.51100000000E-03 0. -1.
        -11    1    3    3    0    0  0.43666094315E+01  0.16824842667E+02 -0.86631067762E+00  0.17403824383E+02  0.51100000000E-03 0.  1.
        -12    1    3    3    0    0  0.54134709759E+01 -0.35940305345E+01  0.79388969094E+00  0.65462190867E+01  0.00000000000E+00 0.  1.
</event>
<event>
 7    1  0.5992960E-013  0.5052887E+02  0.7816164E-02  0.1300439E+00
        -11   -1    0    0    0    0  0.00000000000E+00  0.00000000000E+00  0.45593999997E+02  0.45594000000E+02  0.51100000000E-03 0. -1.
         11   -1    0    0    0    0 -0.00000000000E+00 -0.00000000000E+00 -0.45593999997E+02  0.45594000000E+02  0.51100000000E-03 0.  1.
    9900012    2    1    2    0    0  0.18416683977E+02  0.32550147419E+02  0.15952394399E+02  0.50528865322E+02  0.30000016633E+02 0.  0.
        -12    1    1    2    0    0 -0.18416683977E+02 -0.32550147419E+02 -0.15952394399E+02  0.40659134678E+02  0.00000000000E+00 0.  1.
         11    1    3    3    0    0  0.13193716551E+02  0.22379898059E+02  0.16641464260E+02  0.30852428212E+02  0.51100000000E-03 0. -1.
        -11    1    3    3    0    0  0.27839745455E+01  0.13694510620E+02  0.26745047317E+01  0.14228250462E+02  0.51100000000E-03 0.  1.
        -12    1    3    3    0    0  0.24389928805E+01 -0.35242612612E+01 -0.33635745930E+01  0.54481866480E+01  0.00000000000E+00 0.  1.
</event>
<event>
 7    1  0.5992960E-013  0.5052888E+02  0.7816164E-02  0.1300439E+00
        -11   -1    0    0    0    0  0.00000000000E+00  0.00000000000E+00  0.45593999997E+02  0.45594000000E+02  0.51100000000E-03 0.  1.
         11   -1    0    0    0    0 -0.00000000000E+00 -0.00000000000E+00 -0.45593999997E+02  0.45594000000E+02  0.51100000000E-03 0. -1.
    9900012    2    1    2    0    0 -0.17251684019E+02 -0.31207830886E+02  0.19534969645E+02  0.50528876189E+02  0.30000049663E+02 0.  0.
        -12    1    1    2    0    0  0.17251684019E+02  0.31207830886E+02 -0.19534969645E+02  0.40659123811E+02  0.00000000000E+00 0.  1.
         11    1    3    3    0    0 -0.54116728169E+01 -0.18109407337E+02  0.19573012813E+02  0.27209183517E+02  0.51100000000E-03 0. -1.
        -11    1    3    3    0    0 -0.11955364524E+02 -0.31262206757E+01  0.33218672564E+01  0.12796046223E+02  0.51100000000E-03 0.  1.
        -12    1    3    3    0    0  0.11535332213E+00 -0.99722028727E+01 -0.33599104243E+01  0.10523646449E+02  0.00000000000E+00 0.  1.
</event>
<event>
 7    1  0.5992960E-013  0.5052886E+02  0.7816164E-02  0.1300439E+00
        -11   -1    0    0    0    0  0.00000000000E+00  0.00000000000E+00  0.45593999997E+02  0.45594000000E+02  0.51100000000E-03 0. -1.
         11   -1    0    0    0    0 -0.00000000000E+00 -0.00000000000E+00 -0.45593999997E+02  0.45594000000E+02  0.51100000000E-03 0.  1.
    9900012    2    1    2    0    0 -0.14753034358E+02  0.33875875167E+02 -0.16968757814E+02  0.50528859787E+02  0.29999999808E+02 0.  0.
        -12    1    1    2    0    0  0.14753034358E+02 -0.33875875167E+02  0.16968757814E+02  0.40659140213E+02  0.00000000000E+00 0.  1.
         11    1    3    3    0    0 -0.77592061935E+01  0.11295180770E+02 -0.17909433417E+02  0.22550702759E+02  0.51100000000E-03 0. -1.
        -11    1    3    3    0    0  0.12607724229E+01  0.24064883348E+01 -0.47302583807E+01  0.54549131814E+01  0.51100000000E-03 0.  1.
         12    1    3    3    0    0 -0.82546005877E+01  0.20174206062E+02  0.56709339831E+01  0.22523243846E+02  0.00000000000E+00 0. -1.
</event>
<event>
 7    1  0.5992960E-013  0.5052886E+02  0.7816164E-02  0.1300439E+00
        -11   -1    0    0    0    0  0.00000000000E+00  0.00000000000E+00  0.45593999997E+02  0.45594000000E+02  0.51100000000E-03 0. -1.
         11   -1    0    0    0    0 -0.00000000000E+00 -0.00000000000E+00 -0.45593999997E+02  0.45594000000E+02  0.51100000000E-03 0.  1.
    9900012    2    1    2    0    0  0.15530971600E+02  0.37214648710E+02  0.51985302407E+01  0.50528857435E+02  0.29999992659E+02 0.  0.
        -12    1    1    2    0    0 -0.15530971600E+02 -0.37214648710E+02 -0.51985302407E+01  0.40659142565E+02  0.00000000000E+00 0.  1.
         11    1    3    3    0    0  0.19965333294E+01  0.22066281424E-01  0.79104305037E+00  0.21476456004E+01  0.51100000000E-03 0.  1.
        -11    1    3    3    0    0  0.92763489692E+01  0.29083286747E+02  0.15302616078E+02  0.34147595483E+02  0.51100000000E-03 0. -1.
         12    1    3    3    0    0  0.42580893015E+01  0.81092956820E+01 -0.10895128888E+02  0.14233616351E+02  0.00000000000E+00 0. -1.
</event>
<event>
 7    1  0.5992960E-013  0.5052885E+02  0.7816164E-02  0.1300439E+00
        -11   -1    0    0    0    0  0.00000000000E+00  0.00000000000E+00  0.45593999997E+02  0.45594000000E+02  0.51100000000E-03 0.  1.
         11   -1    0    0    0    0 -0.00000000000E+00 -0.00000000000E+00 -0.45593999997E+02  0.45594000000E+02  0.51100000000E-03 0. -1.
    9900012    2    1    2    0    0  0.30273102925E+01  0.22367799227E+02 -0.33818387461E+02  0.50528851210E+02  0.29999973738E+02 0.  0.
        -12    1    1    2    0    0 -0.30273102925E+01 -0.22367799227E+02  0.33818387461E+02  0.40659148790E+02  0.00000000000E+00 0.  1.
         11    1    3    3    0    0  0.41848345662E+01  0.84251966425E+01 -0.34728522906E+01  0.10027835365E+02  0.51100000000E-03 0. -1.
        -11    1    3    3    0    0  0.10295813663E+02  0.78788776224E+01 -0.99764788384E+01  0.16358808693E+02  0.51100000000E-03 0.  1.
         12    1    3    3    0    0 -0.11453337937E+02  0.60637249622E+01 -0.20369056332E+02  0.24142207152E+02  0.00000000000E+00 0. -1.
</event>
<event>
 7    1  0.5992960E-013  0.5052886E+02  0.7816164E-02  0.1300439E+00
        -11   -1    0    0    0    0  0.00000000000E+00  0.00000000000E+00  0.45593999997E+02  0.45594000000E+02  0.51100000000E-03 0.  1.
         11   -1    0    0    0    0 -0.00000000000E+00 -0.00000000000E+00 -0.45593999997E+02  0.45594000000E+02  0.51100000000E-03 0. -1.
    9900012    2    1    2    0    0 -0.15162899555E+02 -0.15562420504E+01 -0.37693903054E+02  0.50528859088E+02  0.29999997685E+02 0.  0.
        -12    1    1    2    0    0  0.15162899555E+02  0.15562420504E+01  0.37693903054E+02  0.40659140912E+02  0.00000000000E+00 0.  1.
         11    1    3    3    0    0 -0.93207558161E+01  0.23745346195E+01 -0.88944388533E+01  0.13100608628E+02  0.51100000000E-03 0. -1.
        -11    1    3    3    0    0 -0.11750021269E+02  0.11319733938E+01 -0.58077557987E+01  0.13155774065E+02  0.51100000000E-03 0.  1.
         12    1    3    3    0    0  0.59078775297E+01 -0.50627500637E+01 -0.22991708402E+02  0.24272476395E+02  0.00000000000E+00 0. -1.
</event>
<event>
 7    1  0.5992960E-013  0.5052887E+02  0.7816164E-02  0.1300439E+00
        -11   -1    0    0    0    0  0.00000000000E+00  0.00000000000E+00  0.45593999997E+02  0.45594000000E+02  0.51100000000E-03 0. -1.
         11   -1    0    0    0    0 -0.00000000000E+00 -0.00000000000E+00 -0.45593999997E+02  0.45594000000E+02  0.51100000000E-03 0.  1.
    9900012    2    1    2    0    0  0.25774509352E+02 -0.30481717696E+02  0.77268584839E+01  0.50528870790E+02  0.30000033254E+02 0.  0.
        -12    1    1    2    0    0 -0.25774509352E+02  0.30481717696E+02 -0.77268584839E+01  0.40659129210E+02  0.00000000000E+00 0.  1.
         11    1    3    3    0    0  0.13434811087E+02 -0.13889452861E+02  0.80391739706E+01  0.20929390056E+02  0.51100000000E-03 0. -1.
        -11    1    3    3    0    0  0.63258190707E+01 -0.65356923846E+01  0.10334679321E+02  0.13767238605E+02  0.51100000000E-03 0.  1.
         12    1    3    3    0    0  0.60138791944E+01 -0.10056572451E+02 -0.10646994808E+02  0.15832242130E+02  0.00000000000E+00 0. -1.
</event>
<event>
 7    1  0.5992960E-013  0.5052886E+02  0.7816164E-02  0.1300439E+00
        -11   -1    0    0    0    0  0.00000000000E+00  0.00000000000E+00  0.45593999997E+02  0.45594000000E+02  0.51100000000E-03 0. -1.
         11   -1    0    0    0    0 -0.00000000000E+00 -0.00000000000E+00 -0.45593999997E+02  0.45594000000E+02  0.51100000000E-03 0.  1.
    9900012    2    1    2    0    0 -0.34405053278E+02  0.18600637141E+02 -0.11111910509E+02  0.50528856523E+02  0.29999989888E+02 0.  0.
        -12    1    1    2    0    0  0.34405053278E+02 -0.18600637141E+02  0.11111910509E+02  0.40659143477E+02  0.00000000000E+00 0.  1.
         11    1    3    3    0    0 -0.28913276524E+02  0.61870367599E+01  0.97465934261E+00  0.29583896706E+02  0.51100000000E-03 0. -1.
        -11    1    3    3    0    0 -0.81694597241E+01  0.61708073909E+01 -0.82133911268E+01  0.13125499232E+02  0.51100000000E-03 0.  1.
        -12    1    3    3    0    0  0.26776829702E+01  0.62427929901E+01 -0.38731787244E+01  0.78194605848E+01  0.00000000000E+00 0.  1.
</event>
<event>
 7    1  0.5992960E-013  0.5052886E+02  0.7816164E-02  0.1300439E+00
        -11   -1    0    0    0    0  0.00000000000E+00  0.00000000000E+00  0.45593999997E+02  0.45594000000E+02  0.51100000000E-03 0.  1.
         11   -1    0    0    0    0 -0.00000000000E+00 -0.00000000000E+00 -0.45593999997E+02  0.45594000000E+02  0.51100000000E-03 0. -1.
    9900012    2    1    2    0    0  0.20977694751E+02  0.34171062655E+02  0.67409684262E+01  0.50528857666E+02  0.29999993362E+02 0.  0.
        -12    1    1    2    0    0 -0.20977694751E+02 -0.34171062655E+02 -0.67409684262E+01  0.40659142334E+02  0.00000000000E+00 0.  1.
         11    1    3    3    0    0  0.98642808236E+01  0.91161813488E+01 -0.88993914515E+01  0.16112354484E+02  0.51100000000E-03 0. -1.
        -11    1    3    3    0    0 -0.97566788123E+00 -0.89847181797E+00  0.26772433329E+01  0.29877770243E+01  0.51100000000E-03 0.  1.
        -12    1    3    3    0    0  0.12089081808E+02  0.25953353124E+02  0.12963116545E+02  0.31428726158E+02  0.00000000000E+00 0.  1.
</event>
<event>
 7    1  0.5992960E-013  0.5052886E+02  0.7816164E-02  0.1300439E+00
        -11   -1    0    0    0    0  0.00000000000E+00  0.00000000000E+00  0.45593999997E+02  0.45594000000E+02  0.51100000000E-03 0. -1.
         11   -1    0    0    0    0 -0.00000000000E+00 -0.00000000000E+00 -0.45593999997E+02  0.45594000000E+02  0.51100000000E-03 0.  1.
    9900012    2    1    2    0    0 -0.17941734255E+02  0.31380211181E+02 -0.18615638009E+02  0.50528862524E+02  0.30000008128E+02 0.  0.
        -12    1    1    2    0    0  0.17941734255E+02 -0.31380211181E+02  0.18615638009E+02  0.40659137476E+02  0.00000000000E+00 0.  1.
         11    1    3    3    0    0 -0.89327446231E+00  0.42866106920E+01 -0.23917690361E+01  0.49893416272E+01  0.51100000000E-03 0. -1.
        -11    1    3    3    0    0 -0.66093549405E+01  0.15498079291E+02 -0.23015240521E+02  0.28523241943E+02  0.51100000000E-03 0.  1.
         12    1    3    3    0    0 -0.10439104852E+02  0.11595521197E+02  0.67913715478E+01  0.17016278954E+02  0.00000000000E+00 0. -1.
</event>
<event>
 7    1  0.5992960E-013  0.5052886E+02  0.7816164E-02  0.1300439E+00
        -11   -1    0    0    0    0  0.00000000000E+00  0.00000000000E+00  0.45593999997E+02  0.45594000000E+02  0.51100000000E-03 0.  1.
         11   -1    0    0    0    0 -0.00000000000E+00 -0.00000000000E+00 -0.45593999997E+02  0.45594000000E+02  0.51100000000E-03 0. -1.
    9900012    2    1    2    0    0 -0.39950569597E+02  0.73433574070E+01 -0.17868828092E+01  0.50528857617E+02  0.29999993212E+02 0.  0.
        -12    1    1    2    0    0  0.39950569597E+02 -0.73433574070E+01  0.17868828092E+01  0.40659142383E+02  0.00000000000E+00 0.  1.
         11    1    3    3    0    0 -0.93280417698E+01  0.37672452935E+01 -0.15660196743E+01  0.10181204165E+02  0.51100000000E-03 0. -1.
        -11    1    3    3    0    0 -0.34585926405E+02  0.57140810727E+01  0.24007200440E+01  0.35136882116E+02  0.51100000000E-03 0.  1.
        -12    1    3    3    0    0  0.39633985780E+01 -0.21379689592E+01 -0.26215831789E+01  0.52107713366E+01  0.00000000000E+00 0.  1.
</event>
<event>
 7    1  0.5992960E-013  0.5052886E+02  0.7816164E-02  0.1300439E+00
        -11   -1    0    0    0    0  0.00000000000E+00  0.00000000000E+00  0.45593999997E+02  0.45594000000E+02  0.51100000000E-03 0.  1.
         11   -1    0    0    0    0 -0.00000000000E+00 -0.00000000000E+00 -0.45593999997E+02  0.45594000000E+02  0.51100000000E-03 0. -1.
    9900012    2    1    2    0    0  0.35858564765E+02 -0.12000373475E+02 -0.14943888672E+02  0.50528862784E+02  0.30000008918E+02 0.  0.
        -12    1    1    2    0    0 -0.35858564765E+02  0.12000373475E+02  0.14943888672E+02  0.40659137216E+02  0.00000000000E+00 0.  1.
         11    1    3    3    0    0  0.27443158456E+02  0.30503838885E+01 -0.20376125456E+01  0.27687247119E+02  0.51100000000E-03 0. -1.
        -11    1    3    3    0    0  0.91954851809E+00  0.82232233364E+00 -0.43322040715E+00  0.13074645998E+01  0.51100000000E-03 0.  1.
        -12    1    3    3    0    0  0.74958577907E+01 -0.15873079698E+02 -0.12473055719E+02  0.21534151064E+02  0.00000000000E+00 0.  1.
</event>
<event>
 7    1  0.5992960E-013  0.5052886E+02  0.7816164E-02  0.1300439E+00
        -11   -1    0    0    0    0  0.00000000000E+00  0.00000000000E+00  0.45593999997E+02  0.45594000000E+02  0.51100000000E-03 0. -1.
         11   -1    0    0    0    0 -0.00000000000E+00 -0.00000000000E+00 -0.45593999997E+02  0.45594000000E+02  0.51100000000E-03 0.  1.
    9900012    2    1    2    0    0 -0.40200350077E+02  0.37724774453E+01  0.47818174966E+01  0.50528861901E+02  0.30000006234E+02 0.  0.
        -12    1    1    2    0    0  0.40200350077E+02 -0.37724774453E+01 -0.47818174966E+01  0.40659138099E+02  0.00000000000E+00 0.  1.
         11    1    3    3    0    0 -0.28665388366E+02  0.49559140615E+01  0.74784084730E+01  0.30036513911E+02  0.51100000000E-03 0. -1.
        -11    1    3    3    0    0 -0.89621718467E+01 -0.85206762894E+01 -0.29492475030E+01  0.12713005535E+02  0.51100000000E-03 0.  1.
         12    1    3    3    0    0 -0.25727898641E+01  0.73372396732E+01  0.25265652666E+00  0.77793424547E+01  0.00000000000E+00 0. -1.
</event>
<event>
 7    1  0.5992960E-013  0.5052885E+02  0.7816164E-02  0.1300439E+00
        -11   -1    0    0    0    0  0.00000000000E+00  0.00000000000E+00  0.45593999997E+02  0.45594000000E+02  0.51100000000E-03 0.  1.
         11   -1    0    0    0    0 -0.00000000000E+00 -0.00000000000E+00 -0.45593999997E+02  0.45594000000E+02  0.51100000000E-03 0. -1.
    9900012    2    1    2    0    0  0.35368904276E+02  0.24208363173E+01 -0.19908450147E+02  0.50528853115E+02  0.29999979530E+02 0.  0.
        -12    1    1    2    0    0 -0.35368904276E+02 -0.24208363173E+01  0.19908450147E+02  0.40659146885E+02  0.00000000000E+00 0.  1.
         11    1    3    3    0    0  0.12375443762E+02  0.12088205717E+02 -0.14859020195E+02  0.22804973299E+02  0.51100000000E-03 0. -1.
        -11    1    3    3    0    0  0.85396365513E+00 -0.33513752629E+00 -0.35329220483E+01  0.36500834985E+01  0.51100000000E-03 0.  1.
        -12    1    3    3    0    0  0.22139496859E+02 -0.93322318738E+01 -0.15165079033E+01  0.24073796317E+02  0.00000000000E+00 0.  1.
</event>
<event>
 7    1  0.7607643E-013  0.5052887E+02  0.7816164E-02  0.1300439E+00
        -11   -1    0    0    0    0  0.00000000000E+00  0.00000000000E+00  0.45593999997E+02  0.45594000000E+02  0.51100000000E-03 0. -1.
         11   -1    0    0    0    0 -0.00000000000E+00 -0.00000000000E+00 -0.45593999997E+02  0.45594000000E+02  0.51100000000E-03 0.  1.
    9900012    2    1    2    0    0  0.23372421153E+02 -0.32889870695E+02 -0.50151167344E+01  0.50528867437E+02  0.30000023062E+02 0.  0.
        -12    1    1    2    0    0 -0.23372421153E+02  0.32889870695E+02  0.50151167344E+01  0.40659132563E+02  0.00000000000E+00 0.  1.
         11    1    3    3    0    0  0.84275275095E+01 -0.18374222230E+02  0.24012626757E+01  0.20356849588E+02  0.51100000000E-03 0. -1.
        -11    1    3    3    0    0 -0.27050449210E+01 -0.23655520658E+01  0.44168942025E+01  0.56940371669E+01  0.51100000000E-03 0.  1.
         12    1    3    3    0    0  0.17649938565E+02 -0.12150096400E+02 -0.11833273613E+02  0.24477980682E+02  0.00000000000E+00 0. -1.
</event>
<event>
 7    1  0.5992960E-013  0.5052886E+02  0.7816164E-02  0.1300439E+00
        -11   -1    0    0    0    0  0.00000000000E+00  0.00000000000E+00  0.45593999997E+02  0.45594000000E+02  0.51100000000E-03 0.  1.
         11   -1    0    0    0    0 -0.00000000000E+00 -0.00000000000E+00 -0.45593999997E+02  0.45594000000E+02  0.51100000000E-03 0. -1.
    9900012    2    1    2    0    0  0.89119269531E+01 -0.14984623434E+02 -0.36731516937E+02  0.50528859355E+02  0.29999998497E+02 0.  0.
        -12    1    1    2    0    0 -0.89119269531E+01  0.14984623434E+02  0.36731516937E+02  0.40659140645E+02  0.00000000000E+00 0.  1.
         11    1    3    3    0    0  0.37105180479E+01 -0.26794650097E+01 -0.18175023384E+02  0.18742437200E+02  0.51100000000E-03 0. -1.
        -11    1    3    3    0    0  0.51321178383E+01  0.51192272395E+01 -0.10063219447E+02  0.12402157350E+02  0.51100000000E-03 0.  1.
         12    1    3    3    0    0  0.69291066882E-01 -0.17424385664E+02 -0.84932741059E+01  0.19384264806E+02  0.00000000000E+00 0. -1.
</event>
<event>
 7    1  0.5992960E-013  0.5052886E+02  0.7816164E-02  0.1300439E+00
        -11   -1    0    0    0    0  0.00000000000E+00  0.00000000000E+00  0.45593999997E+02  0.45594000000E+02  0.51100000000E-03 0.  1.
         11   -1    0    0    0    0 -0.00000000000E+00 -0.00000000000E+00 -0.45593999997E+02  0.45594000000E+02  0.51100000000E-03 0. -1.
    9900012    2    1    2    0    0  0.38165824501E+02 -0.10397052362E+02  0.94040726652E+01  0.50528862770E+02  0.30000008875E+02 0.  0.
        -12    1    1    2    0    0 -0.38165824501E+02  0.10397052362E+02 -0.94040726652E+01  0.40659137230E+02  0.00000000000E+00 0.  1.
         11    1    3    3    0    0  0.14483776670E+02  0.74770344973E+01  0.14601785809E+01  0.16365144462E+02  0.51100000000E-03 0. -1.
        -11    1    3    3    0    0  0.48856468199E+01 -0.23028718027E+01  0.81229112712E+01  0.97547143049E+01  0.51100000000E-03 0.  1.
        -12    1    3    3    0    0  0.18796401010E+02 -0.15571215056E+02 -0.17901718696E+00  0.24409004003E+02  0.00000000000E+00 0.  1.
</event>
<event>
 7    1  0.5992960E-013  0.5052885E+02  0.7816164E-02  0.1300439E+00
        -11   -1    0    0    0    0  0.00000000000E+00  0.00000000000E+00  0.45593999997E+02  0.45594000000E+02  0.51100000000E-03 0. -1.
         11   -1    0    0    0    0 -0.00000000000E+00 -0.00000000000E+00 -0.45593999997E+02  0.45594000000E+02  0.51100000000E-03 0.  1.
    9900012    2    1    2    0    0  0.33626505222E+02  0.22655460298E+02  0.30256439135E+01  0.50528852741E+02  0.29999978391E+02 0.  0.
        -12    1    1    2    0    0 -0.33626505222E+02 -0.22655460298E+02 -0.30256439135E+01  0.40659147259E+02  0.00000000000E+00 0.  1.
         11    1    3    3    0    0  0.66211961392E+01  0.94261373292E+01  0.64473732402E+00  0.11537243594E+02  0.51100000000E-03 0. -1.
        -11    1    3    3    0    0  0.20898943789E+01  0.11819448311E+02 -0.49476057579E+01  0.12982519782E+02  0.51100000000E-03 0.  1.
         12    1    3    3    0    0  0.24915414704E+02  0.14098746584E+01  0.73285123473E+01  0.26009089366E+02  0.00000000000E+00 0. -1.
</event>
<event>
 7    1  0.5992960E-013  0.5052887E+02  0.7816164E-02  0.1300439E+00
        -11   -1    0    0    0    0  0.00000000000E+00  0.00000000000E+00  0.45593999997E+02  0.45594000000E+02  0.51100000000E-03 0.  1.
         11   -1    0    0    0    0 -0.00000000000E+00 -0.00000000000E+00 -0.45593999997E+02  0.45594000000E+02  0.51100000000E-03 0. -1.
    9900012    2    1    2    0    0  0.14264462852E+02  0.36318737919E+02  0.11429739266E+02  0.50528873544E+02  0.30000041625E+02 0.  0.
        -12    1    1    2    0    0 -0.14264462852E+02 -0.36318737919E+02 -0.11429739266E+02  0.40659126456E+02  0.00000000000E+00 0.  1.
         11    1    3    3    0    0  0.94768130083E+01  0.21768326398E+02  0.34410384640E+01  0.23989805438E+02  0.51100000000E-03 0. -1.
        -11    1    3    3    0    0  0.12394165692E+02  0.12072412575E+02  0.51888630159E+01  0.18063299484E+02  0.51100000000E-03 0.  1.
        -12    1    3    3    0    0 -0.76065158480E+01  0.24779989459E+01  0.27998377859E+01  0.84757686229E+01  0.00000000000E+00 0.  1.
</event>
<event>
 7    1  0.5992960E-013  0.5052887E+02  0.7816164E-02  0.1300439E+00
        -11   -1    0    0    0    0  0.00000000000E+00  0.00000000000E+00  0.45593999997E+02  0.45594000000E+02  0.51100000000E-03 0.  1.
         11   -1    0    0    0    0 -0.00000000000E+00 -0.00000000000E+00 -0.45593999997E+02  0.45594000000E+02  0.51100000000E-03 0. -1.
    9900012    2    1    2    0    0  0.41424505899E+01  0.11320317523E+02 -0.38831111135E+02  0.50528872148E+02  0.30000037382E+02 0.  0.
        -12    1    1    2    0    0 -0.41424505899E+01 -0.11320317523E+02  0.38831111135E+02  0.40659127852E+02  0.00000000000E+00 0.  1.
         11    1    3    3    0    0  0.58918767298E+01  0.27097861826E+01 -0.26809782950E+02  0.27582995026E+02  0.51100000000E-03 0. -1.
        -11    1    3    3    0    0  0.69419774899E+01  0.27481466333E+01 -0.67334299709E+00  0.74964493223E+01  0.51100000000E-03 0.  1.
         12    1    3    3    0    0 -0.86914036299E+01  0.58623847068E+01 -0.11347985188E+02  0.15449427800E+02  0.00000000000E+00 0. -1.
</event>
<event>
 7    1  0.5992960E-013  0.5052885E+02  0.7816164E-02  0.1300439E+00
        -11   -1    0    0    0    0  0.00000000000E+00  0.00000000000E+00  0.45593999997E+02  0.45594000000E+02  0.51100000000E-03 0.  1.
         11   -1    0    0    0    0 -0.00000000000E+00 -0.00000000000E+00 -0.45593999997E+02  0.45594000000E+02  0.51100000000E-03 0. -1.
    9900012    2    1    2    0    0 -0.12393840277E+02  0.18231808651E+02 -0.34163734551E+02  0.50528845041E+02  0.29999954986E+02 0.  0.
        -12    1    1    2    0    0  0.12393840277E+02 -0.18231808651E+02  0.34163734551E+02  0.40659154959E+02  0.00000000000E+00 0.  1.
         11    1    3    3    0    0 -0.33369751853E+01  0.96299212556E+01 -0.20928319953E+02  0.23278001699E+02  0.51100000000E-03 0. -1.
        -11    1    3    3    0    0  0.27306341443E+01  0.10941452658E+02 -0.92636774323E+01  0.14594090205E+02  0.51100000000E-03 0.  1.
        -12    1    3    3    0    0 -0.11787499236E+02 -0.23395652620E+01 -0.39717371661E+01  0.12656753137E+02  0.00000000000E+00 0.  1.
</event>
<event>
 7    1  0.5992960E-013  0.5052887E+02  0.7816164E-02  0.1300439E+00
        -11   -1    0    0    0    0  0.00000000000E+00  0.00000000000E+00  0.45593999997E+02  0.45594000000E+02  0.51100000000E-03 0.  1.
         11   -1    0    0    0    0 -0.00000000000E+00 -0.00000000000E+00 -0.45593999997E+02  0.45594000000E+02  0.51100000000E-03 0. -1.
    9900012    2    1    2    0    0  0.60568871566E+01 -0.20283827069E+02 -0.34713760987E+02  0.50528871572E+02  0.30000035631E+02 0.  0.
        -12    1    1    2    0    0 -0.60568871566E+01  0.20283827069E+02  0.34713760987E+02  0.40659128428E+02  0.00000000000E+00 0.  1.
         11    1    3    3    0    0  0.29377586914E+01 -0.40632934233E+01 -0.17680198979E+02  0.18377437683E+02  0.51100000000E-03 0. -1.
        -11    1    3    3    0    0 -0.35280456766E+01 -0.52130471453E+01 -0.18182601986E+02  0.19241361233E+02  0.51100000000E-03 0.  1.
         12    1    3    3    0    0  0.66471741418E+01 -0.11007486501E+02  0.11490399782E+01  0.12910072657E+02  0.00000000000E+00 0. -1.
</event>
<event>
 7    1  0.5992960E-013  0.5052886E+02  0.7816164E-02  0.1300439E+00
        -11   -1    0    0    0    0  0.00000000000E+00  0.00000000000E+00  0.45593999997E+02  0.45594000000E+02  0.51100000000E-03 0.  1.
         11   -1    0    0    0    0 -0.00000000000E+00 -0.00000000000E+00 -0.45593999997E+02  0.45594000000E+02  0.51100000000E-03 0. -1.
    9900012    2    1    2    0    0  0.69475470224E+01  0.39656215423E+02  0.56816996771E+01  0.50528861513E+02  0.30000005053E+02 0.  0.
        -12    1    1    2    0    0 -0.69475470224E+01 -0.39656215423E+02 -0.56816996771E+01  0.40659138487E+02  0.00000000000E+00 0.  1.
         11    1    3    3    0    0 -0.26842344215E+00 -0.12171683946E+01  0.29863384731E+01  0.32360110911E+01  0.51100000000E-03 0. -1.
        -11    1    3    3    0    0 -0.34700664878E+01 -0.12952316101E+01  0.48070455602E+00  0.37349783781E+01  0.51100000000E-03 0.  1.
         12    1    3    3    0    0  0.10686036952E+02  0.42168615428E+02  0.22146566480E+01  0.43557872043E+02  0.00000000000E+00 0. -1.
</event>
<event>
 7    1  0.5992960E-013  0.5052885E+02  0.7816164E-02  0.1300439E+00
        -11   -1    0    0    0    0  0.00000000000E+00  0.00000000000E+00  0.45593999997E+02  0.45594000000E+02  0.51100000000E-03 0.  1.
         11   -1    0    0    0    0 -0.00000000000E+00 -0.00000000000E+00 -0.45593999997E+02  0.45594000000E+02  0.51100000000E-03 0. -1.
    9900012    2    1    2    0    0  0.52271511176E+01 -0.40253321165E+02  0.23480135786E+01  0.50528854148E+02  0.29999982668E+02 0.  0.
        -12    1    1    2    0    0 -0.52271511176E+01  0.40253321165E+02 -0.23480135786E+01  0.40659145852E+02  0.00000000000E+00 0.  1.
         11    1    3    3    0    0  0.91262534129E+01 -0.13827359470E+02 -0.90782721180E+01  0.18891781180E+02  0.51100000000E-03 0. -1.
        -11    1    3    3    0    0  0.92439015518E-01 -0.24001406095E+02  0.65373189216E+01  0.24875943770E+02  0.51100000000E-03 0.  1.
        -12    1    3    3    0    0 -0.39915413108E+01 -0.24245556009E+01  0.48889667750E+01  0.67611291975E+01  0.00000000000E+00 0.  1.
</event>
<event>
 7    1  0.5992960E-013  0.5052885E+02  0.7816164E-02  0.1300439E+00
        -11   -1    0    0    0    0  0.00000000000E+00  0.00000000000E+00  0.45593999997E+02  0.45594000000E+02  0.51100000000E-03 0.  1.
         11   -1    0    0    0    0 -0.00000000000E+00 -0.00000000000E+00 -0.45593999997E+02  0.45594000000E+02  0.51100000000E-03 0. -1.
    9900012    2    1    2    0    0  0.40863001641E+01  0.23828311040E+02 -0.32690669201E+02  0.50528854548E+02  0.29999983885E+02 0.  0.
        -12    1    1    2    0    0 -0.40863001641E+01 -0.23828311040E+02  0.32690669201E+02  0.40659145452E+02  0.00000000000E+00 0.  1.
         11    1    3    3    0    0 -0.18376866921E+01  0.44034446509E+00 -0.15002209117E+02  0.15120756406E+02  0.51100000000E-03 0. -1.
        -11    1    3    3    0    0 -0.51809731604E+01  0.97701598324E+01 -0.88353454378E+00  0.11094103821E+02  0.51100000000E-03 0.  1.
         12    1    3    3    0    0  0.11104960017E+02  0.13617806743E+02 -0.16804925540E+02  0.24313994321E+02  0.00000000000E+00 0. -1.
</event>
<event>
 7    1  0.5992960E-013  0.5052886E+02  0.7816164E-02  0.1300439E+00
        -11   -1    0    0    0    0  0.00000000000E+00  0.00000000000E+00  0.45593999997E+02  0.45594000000E+02  0.51100000000E-03 0.  1.
         11   -1    0    0    0    0 -0.00000000000E+00 -0.00000000000E+00 -0.45593999997E+02  0.45594000000E+02  0.51100000000E-03 0. -1.
    9900012    2    1    2    0    0  0.20430196694E+02 -0.48336233623E+01 -0.34819659272E+02  0.50528861746E+02  0.30000005762E+02 0.  0.
        -12    1    1    2    0    0 -0.20430196694E+02  0.48336233623E+01  0.34819659272E+02  0.40659138254E+02  0.00000000000E+00 0.  1.
         11    1    3    3    0    0  0.11243499211E+02  0.83193637112E+01 -0.27878360492E+02  0.31190239997E+02  0.51100000000E-03 0. -1.
        -11    1    3    3    0    0 -0.34199424581E+00 -0.31012774015E+01 -0.41793656988E+01  0.52155516957E+01  0.51100000000E-03 0.  1.
        -12    1    3    3    0    0  0.95286917285E+01 -0.10051709672E+02 -0.27619330813E+01  0.14123070053E+02  0.00000000000E+00 0.  1.
</event>
<event>
 7    1  0.5992960E-013  0.5052886E+02  0.7816164E-02  0.1300439E+00
        -11   -1    0    0    0    0  0.00000000000E+00  0.00000000000E+00  0.45593999997E+02  0.45594000000E+02  0.51100000000E-03 0. -1.
         11   -1    0    0    0    0 -0.00000000000E+00 -0.00000000000E+00 -0.45593999997E+02  0.45594000000E+02  0.51100000000E-03 0.  1.
    9900012    2    1    2    0    0  0.10230521145E+02 -0.28678540361E+02  0.26945192165E+02  0.50528860548E+02  0.30000002122E+02 0.  0.
        -12    1    1    2    0    0 -0.10230521145E+02  0.28678540361E+02 -0.26945192165E+02  0.40659139452E+02  0.00000000000E+00 0.  1.
         11    1    3    3    0    0 -0.11533229741E+01 -0.13431355958E+02  0.52688637511E+01  0.14473852364E+02  0.51100000000E-03 0. -1.
        -11    1    3    3    0    0 -0.51051141828E+01 -0.82182276233E+01  0.12822544444E+02  0.16062973024E+02  0.51100000000E-03 0.  1.
        -12    1    3    3    0    0  0.16488958302E+02 -0.70289567801E+01  0.88537839699E+01  0.19992035161E+02  0.00000000000E+00 0.  1.
</event>
<event>
 7    1  0.5992960E-013  0.5052885E+02  0.7816164E-02  0.1300439E+00
        -11   -1    0    0    0    0  0.00000000000E+00  0.00000000000E+00  0.45593999997E+02  0.45594000000E+02  0.51100000000E-03 0. -1.
         11   -1    0    0    0    0 -0.00000000000E+00 -0.00000000000E+00 -0.45593999997E+02  0.45594000000E+02  0.51100000000E-03 0.  1.
    9900012    2    1    2    0    0  0.21117866029E+02  0.25328575174E+02  0.23783719977E+02  0.50528851928E+02  0.29999975920E+02 0.  0.
        -12    1    1    2    0    0 -0.21117866029E+02 -0.25328575174E+02 -0.23783719977E+02  0.40659148072E+02  0.00000000000E+00 0.  1.
         11    1    3    3    0    0  0.20130804965E+02  0.47915219715E+01  0.15823275841E+02  0.26049645870E+02  0.51100000000E-03 0. -1.
        -11    1    3    3    0    0 -0.19368328451E+01  0.39583073118E+01  0.61240045206E+01  0.75447299404E+01  0.51100000000E-03 0.  1.
         12    1    3    3    0    0  0.29238939090E+01  0.16578745891E+02  0.18364396154E+01  0.16934476118E+02  0.00000000000E+00 0. -1.
</event>
<event>
 7    1  0.5992960E-013  0.5052886E+02  0.7816164E-02  0.1300439E+00
        -11   -1    0    0    0    0  0.00000000000E+00  0.00000000000E+00  0.45593999997E+02  0.45594000000E+02  0.51100000000E-03 0.  1.
         11   -1    0    0    0    0 -0.00000000000E+00 -0.00000000000E+00 -0.45593999997E+02  0.45594000000E+02  0.51100000000E-03 0. -1.
    9900012    2    1    2    0    0  0.29214962538E+01 -0.25743202652E+02 -0.31335570906E+02  0.50528860472E+02  0.30000001892E+02 0.  0.
        -12    1    1    2    0    0 -0.29214962538E+01  0.25743202652E+02  0.31335570906E+02  0.40659139528E+02  0.00000000000E+00 0.  1.
         11    1    3    3    0    0  0.90179822141E+01 -0.76006085837E+00 -0.17284228792E+01  0.92135303567E+01  0.51100000000E-03 0. -1.
        -11    1    3    3    0    0  0.14537855312E+01  0.38860453227E+00 -0.48240439985E+01  0.50533065030E+01  0.51100000000E-03 0.  1.
        -12    1    3    3    0    0 -0.75502714915E+01 -0.25371746326E+02 -0.24783104028E+02  0.36262023613E+02  0.00000000000E+00 0.  1.
</event>
<event>
 7    1  0.5992960E-013  0.5052885E+02  0.7816164E-02  0.1300439E+00
        -11   -1    0    0    0    0  0.00000000000E+00  0.00000000000E+00  0.45593999997E+02  0.45594000000E+02  0.51100000000E-03 0.  1.
         11   -1    0    0    0    0 -0.00000000000E+00 -0.00000000000E+00 -0.45593999997E+02  0.45594000000E+02  0.51100000000E-03 0. -1.
    9900012    2    1    2    0    0 -0.24012847321E+02 -0.32305837958E+02  0.57343229059E+01  0.50528850208E+02  0.29999970693E+02 0.  0.
        -12    1    1    2    0    0  0.24012847321E+02  0.32305837958E+02 -0.57343229059E+01  0.40659149792E+02  0.00000000000E+00 0.  1.
         11    1    3    3    0    0 -0.12098427520E+02 -0.11719607635E+02 -0.22969198285E+01  0.16999911545E+02  0.51100000000E-03 0. -1.
        -11    1    3    3    0    0 -0.18216959871E+02 -0.16252181993E+02  0.85389360161E+01  0.25863187642E+02  0.51100000000E-03 0.  1.
        -12    1    3    3    0    0  0.63025400695E+01 -0.43340483295E+01 -0.50769328170E+00  0.76657510212E+01  0.00000000000E+00 0.  1.
</event>
<event>
 7    1  0.5992960E-013  0.5052886E+02  0.7816164E-02  0.1300439E+00
        -11   -1    0    0    0    0  0.00000000000E+00  0.00000000000E+00  0.45593999997E+02  0.45594000000E+02  0.51100000000E-03 0. -1.
         11   -1    0    0    0    0 -0.00000000000E+00 -0.00000000000E+00 -0.45593999997E+02  0.45594000000E+02  0.51100000000E-03 0.  1.
    9900012    2    1    2    0    0 -0.40631449661E+02  0.22066336106E+00  0.14839480501E+01  0.50528862089E+02  0.30000006806E+02 0.  0.
        -12    1    1    2    0    0  0.40631449661E+02 -0.22066336106E+00 -0.14839480501E+01  0.40659137911E+02  0.00000000000E+00 0.  1.
         11    1    3    3    0    0 -0.28769162373E+02  0.19967616801E+01 -0.55555822088E+01  0.29368627050E+02  0.51100000000E-03 0. -1.
        -11    1    3    3    0    0  0.10009900246E+00 -0.38276007060E+01 -0.34231750737E+01  0.51360174086E+01  0.51100000000E-03 0.  1.
        -12    1    3    3    0    0 -0.11962386290E+02  0.20515023870E+01  0.10462705333E+02  0.16024217630E+02  0.00000000000E+00 0.  1.
</event>
<event>
 7    1  0.5992960E-013  0.5052887E+02  0.7816164E-02  0.1300439E+00
        -11   -1    0    0    0    0  0.00000000000E+00  0.00000000000E+00  0.45593999997E+02  0.45594000000E+02  0.51100000000E-03 0.  1.
         11   -1    0    0    0    0 -0.00000000000E+00 -0.00000000000E+00 -0.45593999997E+02  0.45594000000E+02  0.51100000000E-03 0. -1.
    9900012    2    1    2    0    0  0.19394464970E+02  0.31369618793E+02 -0.17116267178E+02  0.50528869945E+02  0.30000030685E+02 0.  0.
        -12    1    1    2    0    0 -0.19394464970E+02 -0.31369618793E+02  0.17116267178E+02  0.40659130055E+02  0.00000000000E+00 0.  1.
         11    1    3    3    0    0  0.12441870034E+02 -0.66863167155E+00 -0.29008859643E+01  0.12793058192E+02  0.51100000000E-03 0. -1.
        -11    1    3    3    0    0 -0.98343162561E+00 -0.70064275332E+00 -0.92827795325E+00  0.15230686950E+01  0.51100000000E-03 0.  1.
         12    1    3    3    0    0  0.79360265619E+01  0.32738893218E+02 -0.13287103260E+02  0.36212743058E+02  0.00000000000E+00 0. -1.
</event>
<event>
 7    1  0.5992960E-013  0.5052886E+02  0.7816164E-02  0.1300439E+00
        -11   -1    0    0    0    0  0.00000000000E+00  0.00000000000E+00  0.45593999997E+02  0.45594000000E+02  0.51100000000E-03 0.  1.
         11   -1    0    0    0    0 -0.00000000000E+00 -0.00000000000E+00 -0.45593999997E+02  0.45594000000E+02  0.51100000000E-03 0. -1.
    9900012    2    1    2    0    0 -0.34258067915E+01 -0.12340780093E+02 -0.38589306773E+02  0.50528860773E+02  0.30000002806E+02 0.  0.
        -12    1    1    2    0    0  0.34258067915E+01  0.12340780093E+02  0.38589306773E+02  0.40659139227E+02  0.00000000000E+00 0.  1.
         11    1    3    3    0    0 -0.19132740493E+01 -0.11097402129E+01 -0.17540754611E+00  0.22187629428E+01  0.51100000000E-03 0. -1.
        -11    1    3    3    0    0 -0.83272544920E+01 -0.14044220362E+02 -0.10437243596E+02  0.19378321576E+02  0.51100000000E-03 0.  1.
         12    1    3    3    0    0  0.68147217498E+01  0.28131804821E+01 -0.27976655631E+02  0.28931776255E+02  0.00000000000E+00 0. -1.
</event>
<event>
 7    1  0.5992960E-013  0.5052891E+02  0.7816164E-02  0.1300439E+00
        -11   -1    0    0    0    0  0.00000000000E+00  0.00000000000E+00  0.45593999997E+02  0.45594000000E+02  0.51100000000E-03 0.  1.
         11   -1    0    0    0    0 -0.00000000000E+00 -0.00000000000E+00 -0.45593999997E+02  0.45594000000E+02  0.51100000000E-03 0. -1.
    9900012    2    1    2    0    0 -0.11398567820E+02 -0.95425853380E+01 -0.37844062880E+02  0.50528912719E+02  0.30000160701E+02 0.  0.
        -12    1    1    2    0    0  0.11398567820E+02  0.95425853380E+01  0.37844062880E+02  0.40659087281E+02  0.00000000000E+00 0.  1.
         11    1    3    3    0    0 -0.59730502627E+01 -0.74239753203E+01 -0.13596660799E+02  0.16603069721E+02  0.51100000000E-03 0. -1.
        -11    1    3    3    0    0 -0.17349839063E+01 -0.80856397064E+01  0.41971659162E+00  0.82803321730E+01  0.51100000000E-03 0.  1.
        -12    1    3    3    0    0 -0.36905336506E+01  0.59670296886E+01 -0.24667118672E+02  0.25645510825E+02  0.00000000000E+00 0.  1.
</event>
<event>
 7    1  0.5992960E-013  0.5052886E+02  0.7816164E-02  0.1300439E+00
        -11   -1    0    0    0    0  0.00000000000E+00  0.00000000000E+00  0.45593999997E+02  0.45594000000E+02  0.51100000000E-03 0. -1.
         11   -1    0    0    0    0 -0.00000000000E+00 -0.00000000000E+00 -0.45593999997E+02  0.45594000000E+02  0.51100000000E-03 0.  1.
    9900012    2    1    2    0    0  0.40567188844E+02  0.16286657639E+00 -0.27280676927E+01  0.50528859705E+02  0.29999999558E+02 0.  0.
        -12    1    1    2    0    0 -0.40567188844E+02 -0.16286657639E+00  0.27280676927E+01  0.40659140295E+02  0.00000000000E+00 0.  1.
         11    1    3    3    0    0  0.84114379865E+01  0.25147670955E+01  0.45490741074E+01  0.98878924975E+01  0.51100000000E-03 0. -1.
        -11    1    3    3    0    0  0.20952394932E+02 -0.35878315065E+01  0.70642293722E+01  0.22400417969E+02  0.51100000000E-03 0.  1.
        -12    1    3    3    0    0  0.11203355926E+02  0.12359309874E+01 -0.14341371172E+02  0.18240549238E+02  0.00000000000E+00 0.  1.
</event>
<event>
 7    1  0.5992960E-013  0.5052886E+02  0.7816164E-02  0.1300439E+00
        -11   -1    0    0    0    0  0.00000000000E+00  0.00000000000E+00  0.45593999997E+02  0.45594000000E+02  0.51100000000E-03 0.  1.
         11   -1    0    0    0    0 -0.00000000000E+00 -0.00000000000E+00 -0.45593999997E+02  0.45594000000E+02  0.51100000000E-03 0. -1.
    9900012    2    1    2    0    0  0.13876092746E+02 -0.38015290074E+02 -0.39316009063E+01  0.50528859392E+02  0.29999998608E+02 0.  0.
        -12    1    1    2    0    0 -0.13876092746E+02  0.38015290074E+02  0.39316009063E+01  0.40659140608E+02  0.00000000000E+00 0.  1.
         11    1    3    3    0    0 -0.32294671561E+00 -0.57097950060E-01  0.22065718134E+00  0.39527788937E+00  0.51100000000E-03 0. -1.
        -11    1    3    3    0    0 -0.58594898840E+01 -0.65847394067E+01  0.70066927136E+01  0.11259935959E+02  0.51100000000E-03 0.  1.
         12    1    3    3    0    0  0.20058529346E+02 -0.31373452717E+02 -0.11158950801E+02  0.38873645544E+02  0.00000000000E+00 0. -1.
</event>
<event>
 7    1  0.5992960E-013  0.5052887E+02  0.7816164E-02  0.1300439E+00
        -11   -1    0    0    0    0  0.00000000000E+00  0.00000000000E+00  0.45593999997E+02  0.45594000000E+02  0.51100000000E-03 0.  1.
         11   -1    0    0    0    0 -0.00000000000E+00 -0.00000000000E+00 -0.45593999997E+02  0.45594000000E+02  0.51100000000E-03 0. -1.
    9900012    2    1    2    0    0  0.18789202857E+02 -0.47505485322E+01 -0.35743016017E+02  0.50528867577E+02  0.30000023487E+02 0.  0.
        -12    1    1    2    0    0 -0.18789202857E+02  0.47505485322E+01  0.35743016017E+02  0.40659132423E+02  0.00000000000E+00 0.  1.
         11    1    3    3    0    0 -0.15933667589E+01  0.81307268765E+01 -0.84478469660E+01  0.11832736615E+02  0.51100000000E-03 0. -1.
        -11    1    3    3    0    0  0.45680195852E+01 -0.84255830603E+01 -0.16356509635E+02  0.18957654405E+02  0.51100000000E-03 0.  1.
        -12    1    3    3    0    0  0.15814550031E+02 -0.44556923484E+01 -0.10938659416E+02  0.19738476557E+02  0.00000000000E+00 0.  1.
</event>
<event>
 7    1  0.5992960E-013  0.5052886E+02  0.7816164E-02  0.1300439E+00
        -11   -1    0    0    0    0  0.00000000000E+00  0.00000000000E+00  0.45593999997E+02  0.45594000000E+02  0.51100000000E-03 0.  1.
         11   -1    0    0    0    0 -0.00000000000E+00 -0.00000000000E+00 -0.45593999997E+02  0.45594000000E+02  0.51100000000E-03 0. -1.
    9900012    2    1    2    0    0 -0.19860773796E+01 -0.33161082298E+02 -0.23442774639E+02  0.50528861233E+02  0.30000004203E+02 0.  0.
        -12    1    1    2    0    0  0.19860773796E+01  0.33161082298E+02  0.23442774639E+02  0.40659138767E+02  0.00000000000E+00 0.  1.
         11    1    3    3    0    0 -0.81158361292E+00 -0.12513991715E+02 -0.22242788559E+02  0.25534296539E+02  0.51100000000E-03 0. -1.
        -11    1    3    3    0    0  0.47201414953E+01 -0.20278642009E+01  0.13158467728E+01  0.53031520763E+01  0.51100000000E-03 0.  1.
        -12    1    3    3    0    0 -0.58946352621E+01 -0.18619226382E+02 -0.25158328535E+01  0.19691412618E+02  0.00000000000E+00 0.  1.
</event>
<event>
 7    1  0.5992960E-013  0.5052887E+02  0.7816164E-02  0.1300439E+00
        -11   -1    0    0    0    0  0.00000000000E+00  0.00000000000E+00  0.45593999997E+02  0.45594000000E+02  0.51100000000E-03 0.  1.
         11   -1    0    0    0    0 -0.00000000000E+00 -0.00000000000E+00 -0.45593999997E+02  0.45594000000E+02  0.51100000000E-03 0. -1.
    9900012    2    1    2    0    0  0.13911033362E+02  0.26478439698E+01 -0.38113477876E+02  0.50528866676E+02  0.30000020747E+02 0.  0.
        -12    1    1    2    0    0 -0.13911033362E+02 -0.26478439698E+01  0.38113477876E+02  0.40659133324E+02  0.00000000000E+00 0.  1.
         11    1    3    3    0    0  0.64395622676E+01 -0.41299171670E+01 -0.70542050992E+01  0.10406055345E+02  0.51100000000E-03 0. -1.
        -11    1    3    3    0    0  0.42587298949E+01 -0.12528511479E+01  0.27518174724E+01  0.52229221686E+01  0.51100000000E-03 0.  1.
         12    1    3    3    0    0  0.32127411994E+01  0.80306122847E+01 -0.33811090249E+02  0.34899889162E+02  0.00000000000E+00 0. -1.
</event>
<event>
 7    1  0.5992960E-013  0.5052886E+02  0.7816164E-02  0.1300439E+00
        -11   -1    0    0    0    0  0.00000000000E+00  0.00000000000E+00  0.45593999997E+02  0.45594000000E+02  0.51100000000E-03 0.  1.
         11   -1    0    0    0    0 -0.00000000000E+00 -0.00000000000E+00 -0.45593999997E+02  0.45594000000E+02  0.51100000000E-03 0. -1.
    9900012    2    1    2    0    0 -0.24510083780E+02 -0.21863911743E+02 -0.23966449395E+02  0.50528861541E+02  0.30000005141E+02 0.  0.
        -12    1    1    2    0    0  0.24510083780E+02  0.21863911743E+02  0.23966449395E+02  0.40659138459E+02  0.00000000000E+00 0.  1.
         11    1    3    3    0    0 -0.10890549153E+02 -0.44450443398E+01 -0.73717735844E+01  0.13881841595E+02  0.51100000000E-03 0. -1.
        -11    1    3    3    0    0 -0.11490310450E+02 -0.14857097699E+02 -0.22838889772E+02  0.29569840591E+02  0.51100000000E-03 0.  1.
        -12    1    3    3    0    0 -0.21292241771E+01 -0.25617697050E+01  0.62442139622E+01  0.70771793550E+01  0.00000000000E+00 0.  1.
</event>
<event>
 7    1  0.5992960E-013  0.5052885E+02  0.7816164E-02  0.1300439E+00
        -11   -1    0    0    0    0  0.00000000000E+00  0.00000000000E+00  0.45593999997E+02  0.45594000000E+02  0.51100000000E-03 0.  1.
         11   -1    0    0    0    0 -0.00000000000E+00 -0.00000000000E+00 -0.45593999997E+02  0.45594000000E+02  0.51100000000E-03 0. -1.
    9900012    2    1    2    0    0  0.75585968982E+01 -0.39933948046E+02  0.11461404365E+01  0.50528853040E+02  0.29999979301E+02 0.  0.
        -12    1    1    2    0    0 -0.75585968982E+01  0.39933948046E+02 -0.11461404365E+01  0.40659146960E+02  0.00000000000E+00 0.  1.
         11    1    3    3    0    0 -0.12436915795E+01 -0.35503488305E+01 -0.21753742542E+01  0.43455723409E+01  0.51100000000E-03 0. -1.
        -11    1    3    3    0    0 -0.77005252942E+01 -0.94986385535E+01  0.75260724243E+01  0.14358411840E+02  0.51100000000E-03 0.  1.
         12    1    3    3    0    0  0.16502813772E+02 -0.26884960662E+02 -0.42045577335E+01  0.31824868859E+02  0.00000000000E+00 0. -1.
</event>
<event>
 7    1  0.5992960E-013  0.5052886E+02  0.7816164E-02  0.1300439E+00
        -11   -1    0    0    0    0  0.00000000000E+00  0.00000000000E+00  0.45593999997E+02  0.45594000000E+02  0.51100000000E-03 0.  1.
         11   -1    0    0    0    0 -0.00000000000E+00 -0.00000000000E+00 -0.45593999997E+02  0.45594000000E+02  0.51100000000E-03 0. -1.
    9900012    2    1    2    0    0  0.30560087650E+02 -0.19201365256E+02 -0.18723086904E+02  0.50528863658E+02  0.30000011574E+02 0.  0.
        -12    1    1    2    0    0 -0.30560087650E+02  0.19201365256E+02  0.18723086904E+02  0.40659136342E+02  0.00000000000E+00 0.  1.
         11    1    3    3    0    0  0.42706586791E+01 -0.58099883276E+01 -0.29022514136E+01  0.77728729212E+01  0.51100000000E-03 0. -1.
        -11    1    3    3    0    0  0.24453662086E+01 -0.15532636903E+02 -0.73992274283E+01  0.17377893769E+02  0.51100000000E-03 0.  1.
         12    1    3    3    0    0  0.23844062763E+02  0.21412599750E+01 -0.84216080623E+01  0.25378096967E+02  0.00000000000E+00 0. -1.
</event>
<event>
 7    1  0.5992960E-013  0.5052887E+02  0.7816164E-02  0.1300439E+00
        -11   -1    0    0    0    0  0.00000000000E+00  0.00000000000E+00  0.45593999997E+02  0.45594000000E+02  0.51100000000E-03 0. -1.
         11   -1    0    0    0    0 -0.00000000000E+00 -0.00000000000E+00 -0.45593999997E+02  0.45594000000E+02  0.51100000000E-03 0.  1.
    9900012    2    1    2    0    0  0.19530712720E+02 -0.17341026581E+02  0.31160957456E+02  0.50528865580E+02  0.30000017417E+02 0.  0.
        -12    1    1    2    0    0 -0.19530712720E+02  0.17341026581E+02 -0.31160957456E+02  0.40659134420E+02  0.00000000000E+00 0.  1.
         11    1    3    3    0    0 -0.78226909825E+00 -0.12836785780E+02  0.25329254597E+01  0.13107659049E+02  0.51100000000E-03 0.  1.
        -11    1    3    3    0    0  0.24270815972E+01 -0.14906689638E+01  0.13515594283E+02  0.13812462059E+02  0.51100000000E-03 0. -1.
        -12    1    3    3    0    0  0.17885900221E+02 -0.30135718379E+01  0.15112437713E+02  0.23608744472E+02  0.00000000000E+00 0.  1.
</event>
<event>
 7    1  0.5992960E-013  0.5052899E+02  0.7816164E-02  0.1300438E+00
        -11   -1    0    0    0    0  0.00000000000E+00  0.00000000000E+00  0.45593999997E+02  0.45594000000E+02  0.51100000000E-03 0.  1.
         11   -1    0    0    0    0 -0.00000000000E+00 -0.00000000000E+00 -0.45593999997E+02  0.45594000000E+02  0.51100000000E-03 0. -1.
    9900012    2    1    2    0    0 -0.15285621869E+02  0.36376781623E+02 -0.98099330599E+01  0.50528987914E+02  0.30000389261E+02 0.  0.
        -12    1    1    2    0    0  0.15285621869E+02 -0.36376781623E+02  0.98099330599E+01  0.40659012086E+02  0.00000000000E+00 0.  1.
         11    1    3    3    0    0  0.11288066658E+01  0.14839431804E+02 -0.11812270801E+02  0.19000333747E+02  0.51100000000E-03 0.  1.
        -11    1    3    3    0    0  0.91844251322E+00  0.96711516384E+01 -0.25320461701E+01  0.10039221520E+02  0.51100000000E-03 0. -1.
        -12    1    3    3    0    0 -0.17332871048E+02  0.11866198181E+02  0.45343839117E+01  0.21489432647E+02  0.00000000000E+00 0.  1.
</event>
<event>
 7    1  0.5992960E-013  0.5052887E+02  0.7816164E-02  0.1300439E+00
        -11   -1    0    0    0    0  0.00000000000E+00  0.00000000000E+00  0.45593999997E+02  0.45594000000E+02  0.51100000000E-03 0.  1.
         11   -1    0    0    0    0 -0.00000000000E+00 -0.00000000000E+00 -0.45593999997E+02  0.45594000000E+02  0.51100000000E-03 0. -1.
    9900012    2    1    2    0    0  0.12613051640E+02  0.12438273230E+01 -0.38633253488E+02  0.50528874910E+02  0.30000045775E+02 0.  0.
        -12    1    1    2    0    0 -0.12613051640E+02 -0.12438273230E+01  0.38633253488E+02  0.40659125090E+02  0.00000000000E+00 0.  1.
         11    1    3    3    0    0  0.10680609584E+02 -0.12511385238E+02 -0.16343313467E+02  0.23188662683E+02  0.51100000000E-03 0.  1.
        -11    1    3    3    0    0  0.73798547835E-01 -0.77946434920E+00 -0.16049583746E+00  0.79923092552E+00  0.51100000000E-03 0. -1.
        -12    1    3    3    0    0  0.18586435082E+01  0.14534676911E+02 -0.22129444183E+02  0.26540981301E+02  0.00000000000E+00 0.  1.
</event>
<event>
 7    1  0.5992960E-013  0.5052886E+02  0.7816164E-02  0.1300439E+00
        -11   -1    0    0    0    0  0.00000000000E+00  0.00000000000E+00  0.45593999997E+02  0.45594000000E+02  0.51100000000E-03 0.  1.
         11   -1    0    0    0    0 -0.00000000000E+00 -0.00000000000E+00 -0.45593999997E+02  0.45594000000E+02  0.51100000000E-03 0. -1.
    9900012    2    1    2    0    0 -0.25782957562E+02 -0.13099114920E+02 -0.28580032012E+02  0.50528856599E+02  0.29999990118E+02 0.  0.
        -12    1    1    2    0    0  0.25782957562E+02  0.13099114920E+02  0.28580032012E+02  0.40659143401E+02  0.00000000000E+00 0.  1.
         11    1    3    3    0    0 -0.84015657609E+00 -0.57446056464E+01 -0.19659515964E+02  0.20498851805E+02  0.51100000000E-03 0. -1.
        -11    1    3    3    0    0 -0.65235058610E+01  0.23201163118E+01 -0.57175781413E+01  0.89794080251E+01  0.51100000000E-03 0.  1.
        -12    1    3    3    0    0 -0.18419295124E+02 -0.96746255859E+01 -0.32029379064E+01  0.21050596769E+02  0.00000000000E+00 0.  1.
</event>
<event>
 7    1  0.5992960E-013  0.5052886E+02  0.7816164E-02  0.1300439E+00
        -11   -1    0    0    0    0  0.00000000000E+00  0.00000000000E+00  0.45593999997E+02  0.45594000000E+02  0.51100000000E-03 0.  1.
         11   -1    0    0    0    0 -0.00000000000E+00 -0.00000000000E+00 -0.45593999997E+02  0.45594000000E+02  0.51100000000E-03 0. -1.
    9900012    2    1    2    0    0 -0.33609872595E+02  0.18031843469E+02 -0.14085266326E+02  0.50528860287E+02  0.30000001327E+02 0.  0.
        -12    1    1    2    0    0  0.33609872595E+02 -0.18031843469E+02  0.14085266326E+02  0.40659139713E+02  0.00000000000E+00 0.  1.
         11    1    3    3    0    0 -0.48938980040E+01 -0.44419155916E+01 -0.64223467389E+01  0.92156057692E+01  0.51100000000E-03 0. -1.
        -11    1    3    3    0    0 -0.22152287998E+02  0.79317081679E+01 -0.92444369205E+01  0.25280337661E+02  0.51100000000E-03 0.  1.
        -12    1    3    3    0    0 -0.65636865932E+01  0.14542050892E+02  0.15815173333E+01  0.16032916857E+02  0.00000000000E+00 0.  1.
</event>
<event>
 7    1  0.5992960E-013  0.5052884E+02  0.7816164E-02  0.1300439E+00
        -11   -1    0    0    0    0  0.00000000000E+00  0.00000000000E+00  0.45593999997E+02  0.45594000000E+02  0.51100000000E-03 0.  1.
         11   -1    0    0    0    0 -0.00000000000E+00 -0.00000000000E+00 -0.45593999997E+02  0.45594000000E+02  0.51100000000E-03 0. -1.
    9900012    2    1    2    0    0 -0.11284728961E+02 -0.36824844499E+02 -0.13028923207E+02  0.50528842114E+02  0.29999946089E+02 0.  0.
        -12    1    1    2    0    0  0.11284728961E+02  0.36824844499E+02  0.13028923207E+02  0.40659157886E+02  0.00000000000E+00 0.  1.
         11    1    3    3    0    0 -0.99850622289E+01 -0.12703144113E+02  0.17263225603E+01  0.16249662394E+02  0.51100000000E-03 0. -1.
        -11    1    3    3    0    0 -0.56969807453E+01 -0.19935884117E+01  0.17970977241E+01  0.62975824615E+01  0.51100000000E-03 0.  1.
         12    1    3    3    0    0  0.43973140130E+01 -0.22128111974E+02 -0.16552343492E+02  0.27981597258E+02  0.00000000000E+00 0. -1.
</event>
<event>
 7    1  0.5992960E-013  0.5052886E+02  0.7816164E-02  0.1300439E+00
        -11   -1    0    0    0    0  0.00000000000E+00  0.00000000000E+00  0.45593999997E+02  0.45594000000E+02  0.51100000000E-03 0.  1.
         11   -1    0    0    0    0 -0.00000000000E+00 -0.00000000000E+00 -0.45593999997E+02  0.45594000000E+02  0.51100000000E-03 0. -1.
    9900012    2    1    2    0    0 -0.31927492853E+02 -0.16016921368E+02  0.19423153082E+02  0.50528862704E+02  0.30000008676E+02 0.  0.
        -12    1    1    2    0    0  0.31927492853E+02  0.16016921368E+02 -0.19423153082E+02  0.40659137296E+02  0.00000000000E+00 0.  1.
         11    1    3    3    0    0 -0.12173188516E+02 -0.10923754989E+02  0.18204013969E+02  0.24472455263E+02  0.51100000000E-03 0. -1.
        -11    1    3    3    0    0  0.83594371820E-01 -0.12137279905E+01  0.52975090327E+01  0.54354140474E+01  0.51100000000E-03 0.  1.
         12    1    3    3    0    0 -0.19837898708E+02 -0.38794383881E+01 -0.40783699201E+01  0.20620993395E+02  0.00000000000E+00 0. -1.
</event>
<event>
 7    1  0.5992960E-013  0.5052887E+02  0.7816164E-02  0.1300439E+00
        -11   -1    0    0    0    0  0.00000000000E+00  0.00000000000E+00  0.45593999997E+02  0.45594000000E+02  0.51100000000E-03 0. -1.
         11   -1    0    0    0    0 -0.00000000000E+00 -0.00000000000E+00 -0.45593999997E+02  0.45594000000E+02  0.51100000000E-03 0.  1.
    9900012    2    1    2    0    0 -0.31682301614E+02 -0.19669931421E+01  0.25407235980E+02  0.50528868951E+02  0.30000027662E+02 0.  0.
        -12    1    1    2    0    0  0.31682301614E+02  0.19669931421E+01 -0.25407235980E+02  0.40659131049E+02  0.00000000000E+00 0.  1.
         11    1    3    3    0    0 -0.83143400161E+01  0.53856523678E+01  0.14138176946E+02  0.17263300638E+02  0.51100000000E-03 0. -1.
        -11    1    3    3    0    0 -0.16934263059E+02  0.17887141533E+01  0.13664743655E+02  0.21833322768E+02  0.51100000000E-03 0.  1.
        -12    1    3    3    0    0 -0.64336985386E+01 -0.91413596631E+01 -0.23956846209E+01  0.11432245544E+02  0.00000000000E+00 0.  1.
</event>
<event>
 7    1  0.5992960E-013  0.5052887E+02  0.7816164E-02  0.1300439E+00
        -11   -1    0    0    0    0  0.00000000000E+00  0.00000000000E+00  0.45593999997E+02  0.45594000000E+02  0.51100000000E-03 0. -1.
         11   -1    0    0    0    0 -0.00000000000E+00 -0.00000000000E+00 -0.45593999997E+02  0.45594000000E+02  0.51100000000E-03 0.  1.
    9900012    2    1    2    0    0  0.20923747889E+02 -0.49294167129E+01  0.34511773506E+02  0.50528869594E+02  0.30000029619E+02 0.  0.
        -12    1    1    2    0    0 -0.20923747889E+02  0.49294167129E+01 -0.34511773506E+02  0.40659130406E+02  0.00000000000E+00 0.  1.
         11    1    3    3    0    0  0.54198068738E+01 -0.74192076456E+01  0.52468126139E+01  0.10580547788E+02  0.51100000000E-03 0. -1.
        -11    1    3    3    0    0  0.39785007194E+01 -0.94344280955E+01  0.80729406138E+01  0.13038760366E+02  0.51100000000E-03 0.  1.
        -12    1    3    3    0    0  0.11525440296E+02  0.11924219028E+02  0.21192020278E+02  0.26909561440E+02  0.00000000000E+00 0.  1.
</event>
<event>
 7    1  0.5992960E-013  0.5052886E+02  0.7816164E-02  0.1300439E+00
        -11   -1    0    0    0    0  0.00000000000E+00  0.00000000000E+00  0.45593999997E+02  0.45594000000E+02  0.51100000000E-03 0.  1.
         11   -1    0    0    0    0 -0.00000000000E+00 -0.00000000000E+00 -0.45593999997E+02  0.45594000000E+02  0.51100000000E-03 0. -1.
    9900012    2    1    2    0    0 -0.30219200069E+00  0.24464419316E+02 -0.32474096064E+02  0.50528855301E+02  0.29999986172E+02 0.  0.
        -12    1    1    2    0    0  0.30219200069E+00 -0.24464419316E+02  0.32474096064E+02  0.40659144699E+02  0.00000000000E+00 0.  1.
         11    1    3    3    0    0 -0.13027752653E+00  0.98524959975E+01  0.30745986736E+01  0.10321909071E+02  0.51100000000E-03 0.  1.
        -11    1    3    3    0    0 -0.55227177989E+01  0.65175250695E+01 -0.11933859123E+02  0.14676359860E+02  0.51100000000E-03 0. -1.
         12    1    3    3    0    0  0.53508033247E+01  0.80943982493E+01 -0.23614835615E+02  0.25530586369E+02  0.00000000000E+00 0. -1.
</event>
<event>
 7    1  0.5992960E-013  0.5052886E+02  0.7816164E-02  0.1300439E+00
        -11   -1    0    0    0    0  0.00000000000E+00  0.00000000000E+00  0.45593999997E+02  0.45594000000E+02  0.51100000000E-03 0.  1.
         11   -1    0    0    0    0 -0.00000000000E+00 -0.00000000000E+00 -0.45593999997E+02  0.45594000000E+02  0.51100000000E-03 0. -1.
    9900012    2    1    2    0    0  0.38323684364E+02  0.12781133517E+02 -0.45938446947E+01  0.50528861220E+02  0.30000004165E+02 0.  0.
        -12    1    1    2    0    0 -0.38323684364E+02 -0.12781133517E+02  0.45938446947E+01  0.40659138780E+02  0.00000000000E+00 0.  1.
         11    1    3    3    0    0  0.15990908453E+02  0.47196287039E+00  0.76449590500E+01  0.17730688121E+02  0.51100000000E-03 0. -1.
        -11    1    3    3    0    0  0.10188210297E+02  0.16089776167E+01  0.28172535763E+01  0.10692303587E+02  0.51100000000E-03 0.  1.
         12    1    3    3    0    0  0.12144565615E+02  0.10700193030E+02 -0.15056057321E+02  0.22105869513E+02  0.00000000000E+00 0. -1.
</event>
<event>
 7    1  0.5992960E-013  0.5052886E+02  0.7816164E-02  0.1300439E+00
        -11   -1    0    0    0    0  0.00000000000E+00  0.00000000000E+00  0.45593999997E+02  0.45594000000E+02  0.51100000000E-03 0. -1.
         11   -1    0    0    0    0 -0.00000000000E+00 -0.00000000000E+00 -0.45593999997E+02  0.45594000000E+02  0.51100000000E-03 0.  1.
    9900012    2    1    2    0    0 -0.26872113012E+02  0.29546273787E+02  0.76205386408E+01  0.50528863738E+02  0.30000011818E+02 0.  0.
        -12    1    1    2    0    0  0.26872113012E+02 -0.29546273787E+02 -0.76205386408E+01  0.40659136262E+02  0.00000000000E+00 0.  1.
         11    1    3    3    0    0 -0.80906319987E+01  0.19235683831E+02  0.28019819506E+01  0.21055188475E+02  0.51100000000E-03 0. -1.
        -11    1    3    3    0    0 -0.12680851593E+02  0.15509939703E+02  0.69055517350E+01  0.21190773269E+02  0.51100000000E-03 0.  1.
        -12    1    3    3    0    0 -0.61006294200E+01 -0.51993497481E+01 -0.20869950448E+01  0.82829019939E+01  0.00000000000E+00 0.  1.
</event>
<event>
 7    1  0.5992960E-013  0.5052887E+02  0.7816164E-02  0.1300439E+00
        -11   -1    0    0    0    0  0.00000000000E+00  0.00000000000E+00  0.45593999997E+02  0.45594000000E+02  0.51100000000E-03 0. -1.
         11   -1    0    0    0    0 -0.00000000000E+00 -0.00000000000E+00 -0.45593999997E+02  0.45594000000E+02  0.51100000000E-03 0.  1.
    9900012    2    1    2    0    0  0.21675301280E+02  0.33580236832E+02 -0.74641527320E+01  0.50528873506E+02  0.30000041509E+02 0.  0.
        -12    1    1    2    0    0 -0.21675301280E+02 -0.33580236832E+02  0.74641527320E+01  0.40659126494E+02  0.00000000000E+00 0.  1.
         11    1    3    3    0    0  0.13326894755E+02  0.45999579753E+01 -0.33902279794E+01  0.14500323555E+02  0.51100000000E-03 0. -1.
        -11    1    3    3    0    0  0.12652996211E+02  0.98112661532E+01 -0.34135944919E+01  0.16371068513E+02  0.51100000000E-03 0.  1.
        -12    1    3    3    0    0 -0.43045896872E+01  0.19169012703E+02 -0.66033026070E+00  0.19657481437E+02  0.00000000000E+00 0.  1.
</event>
<event>
 7    1  0.5992960E-013  0.5052886E+02  0.7816164E-02  0.1300439E+00
        -11   -1    0    0    0    0  0.00000000000E+00  0.00000000000E+00  0.45593999997E+02  0.45594000000E+02  0.51100000000E-03 0.  1.
         11   -1    0    0    0    0 -0.00000000000E+00 -0.00000000000E+00 -0.45593999997E+02  0.45594000000E+02  0.51100000000E-03 0. -1.
    9900012    2    1    2    0    0  0.13579727818E+02  0.33979322961E+02 -0.17724619150E+02  0.50528861784E+02  0.30000005878E+02 0.  0.
        -12    1    1    2    0    0 -0.13579727818E+02 -0.33979322961E+02  0.17724619150E+02  0.40659138216E+02  0.00000000000E+00 0.  1.
         11    1    3    3    0    0  0.14577519464E+02  0.22667160792E+02 -0.75765626643E+01  0.27994795127E+02  0.51100000000E-03 0. -1.
        -11    1    3    3    0    0  0.34756812909E+01  0.13384949742E+02 -0.10819180823E+02  0.17558243477E+02  0.51100000000E-03 0.  1.
        -12    1    3    3    0    0 -0.44734729371E+01 -0.20727875741E+01  0.67112433753E+00  0.49758231804E+01  0.00000000000E+00 0.  1.
</event>
<event>
 7    1  0.5992960E-013  0.5052885E+02  0.7816164E-02  0.1300439E+00
        -11   -1    0    0    0    0  0.00000000000E+00  0.00000000000E+00  0.45593999997E+02  0.45594000000E+02  0.51100000000E-03 0.  1.
         11   -1    0    0    0    0 -0.00000000000E+00 -0.00000000000E+00 -0.45593999997E+02  0.45594000000E+02  0.51100000000E-03 0. -1.
    9900012    2    1    2    0    0  0.27044815539E+02  0.26118832377E+02 -0.15477428808E+02  0.50528852754E+02  0.29999978431E+02 0.  0.
        -12    1    1    2    0    0 -0.27044815539E+02 -0.26118832377E+02  0.15477428808E+02  0.40659147246E+02  0.00000000000E+00 0.  1.
         11    1    3    3    0    0  0.79628995067E+01  0.27654295593E+01 -0.83329620791E+01  0.11853000737E+02  0.51100000000E-03 0.  1.
        -11    1    3    3    0    0  0.13829246801E+02  0.63606426993E+01 -0.12930221526E+02  0.19972392736E+02  0.51100000000E-03 0. -1.
         12    1    3    3    0    0  0.52526692316E+01  0.16992760118E+02  0.57857547972E+01  0.18703459281E+02  0.00000000000E+00 0. -1.
</event>
<event>
 7    1  0.5992960E-013  0.5052885E+02  0.7816164E-02  0.1300439E+00
        -11   -1    0    0    0    0  0.00000000000E+00  0.00000000000E+00  0.45593999997E+02  0.45594000000E+02  0.51100000000E-03 0.  1.
         11   -1    0    0    0    0 -0.00000000000E+00 -0.00000000000E+00 -0.45593999997E+02  0.45594000000E+02  0.51100000000E-03 0. -1.
    9900012    2    1    2    0    0  0.31732386473E+02  0.12620184879E+02 -0.22067005459E+02  0.50528854072E+02  0.29999982437E+02 0.  0.
        -12    1    1    2    0    0 -0.31732386473E+02 -0.12620184879E+02  0.22067005459E+02  0.40659145928E+02  0.00000000000E+00 0.  1.
         11    1    3    3    0    0  0.76582007582E+01 -0.69294027728E+01  0.46774228774E+00  0.10338444987E+02  0.51100000000E-03 0.  1.
        -11    1    3    3    0    0  0.91378712337E+01  0.54121801607E+01 -0.14803795275E+02  0.18219350690E+02  0.51100000000E-03 0. -1.
        -12    1    3    3    0    0  0.14936314481E+02  0.14137407491E+02 -0.77309524721E+01  0.21971058394E+02  0.00000000000E+00 0.  1.
</event>
<event>
 7    1  0.5992960E-013  0.5052886E+02  0.7816164E-02  0.1300439E+00
        -11   -1    0    0    0    0  0.00000000000E+00  0.00000000000E+00  0.45593999997E+02  0.45594000000E+02  0.51100000000E-03 0. -1.
         11   -1    0    0    0    0 -0.00000000000E+00 -0.00000000000E+00 -0.45593999997E+02  0.45594000000E+02  0.51100000000E-03 0.  1.
    9900012    2    1    2    0    0  0.22420696730E+01  0.34669428155E+02  0.21122726867E+02  0.50528859388E+02  0.29999998596E+02 0.  0.
        -12    1    1    2    0    0 -0.22420696730E+01 -0.34669428155E+02 -0.21122726867E+02  0.40659140612E+02  0.00000000000E+00 0.  1.
         11    1    3    3    0    0  0.17330701725E+01  0.68252594803E+01  0.15894391232E+01  0.72190038221E+01  0.51100000000E-03 0. -1.
        -11    1    3    3    0    0 -0.70822608954E+01  0.20937917283E+02  0.10013001888E+01  0.22125944090E+02  0.51100000000E-03 0.  1.
         12    1    3    3    0    0  0.75912603958E+01  0.69062513916E+01  0.18531987555E+02  0.21183911476E+02  0.00000000000E+00 0. -1.
</event>
<event>
 7    1  0.5992960E-013  0.5052886E+02  0.7816164E-02  0.1300439E+00
        -11   -1    0    0    0    0  0.00000000000E+00  0.00000000000E+00  0.45593999997E+02  0.45594000000E+02  0.51100000000E-03 0. -1.
         11   -1    0    0    0    0 -0.00000000000E+00 -0.00000000000E+00 -0.45593999997E+02  0.45594000000E+02  0.51100000000E-03 0.  1.
    9900012    2    1    2    0    0 -0.29283349624E+02  0.27704773201E+02  0.53006156842E+01  0.50528861422E+02  0.30000004777E+02 0.  0.
        -12    1    1    2    0    0  0.29283349624E+02 -0.27704773201E+02 -0.53006156842E+01  0.40659138578E+02  0.00000000000E+00 0.  1.
         11    1    3    3    0    0 -0.13061866336E+02  0.19777702096E+02  0.65267972368E+01  0.24583916181E+02  0.51100000000E-03 0. -1.
        -11    1    3    3    0    0 -0.19636574901E+02  0.78850496781E+01 -0.40119864735E+01  0.21537528131E+02  0.51100000000E-03 0.  1.
         12    1    3    3    0    0  0.34150916125E+01  0.42021426775E-01  0.27858049209E+01  0.44074171097E+01  0.00000000000E+00 0. -1.
</event>
<event>
 7    1  0.5992960E-013  0.5052886E+02  0.7816164E-02  0.1300439E+00
        -11   -1    0    0    0    0  0.00000000000E+00  0.00000000000E+00  0.45593999997E+02  0.45594000000E+02  0.51100000000E-03 0.  1.
         11   -1    0    0    0    0 -0.00000000000E+00 -0.00000000000E+00 -0.45593999997E+02  0.45594000000E+02  0.51100000000E-03 0. -1.
    9900012    2    1    2    0    0  0.84699752723E+01 -0.11172953865E+02 -0.38165306748E+02  0.50528855661E+02  0.29999987266E+02 0.  0.
        -12    1    1    2    0    0 -0.84699752723E+01  0.11172953865E+02  0.38165306748E+02  0.40659144339E+02  0.00000000000E+00 0.  1.
         11    1    3    3    0    0  0.16112670923E+01 -0.91326752653E+01 -0.45817731530E+01  0.10343818668E+02  0.51100000000E-03 0. -1.
        -11    1    3    3    0    0 -0.70133559411E+00 -0.10574417615E+02 -0.17767985373E+02  0.20688438414E+02  0.51100000000E-03 0.  1.
         12    1    3    3    0    0  0.75600437742E+01  0.85341390149E+01 -0.15815548222E+02  0.19496598579E+02  0.00000000000E+00 0. -1.
</event>
<event>
 7    1  0.5992960E-013  0.5052886E+02  0.7816164E-02  0.1300439E+00
        -11   -1    0    0    0    0  0.00000000000E+00  0.00000000000E+00  0.45593999997E+02  0.45594000000E+02  0.51100000000E-03 0. -1.
         11   -1    0    0    0    0 -0.00000000000E+00 -0.00000000000E+00 -0.45593999997E+02  0.45594000000E+02  0.51100000000E-03 0.  1.
    9900012    2    1    2    0    0 -0.56837333816E+01 -0.17866774385E+02  0.36078237805E+02  0.50528859635E+02  0.29999999347E+02 0.  0.
        -12    1    1    2    0    0  0.56837333816E+01  0.17866774385E+02 -0.36078237805E+02  0.40659140365E+02  0.00000000000E+00 0.  1.
         11    1    3    3    0    0  0.37202307584E+01  0.97095829033E-01  0.10757482245E+02  0.11383012299E+02  0.51100000000E-03 0. -1.
        -11    1    3    3    0    0  0.32296041872E+01  0.35798509251E+01  0.50282816192E+01  0.69662968753E+01  0.51100000000E-03 0.  1.
        -12    1    3    3    0    0 -0.12633568327E+02 -0.21543721140E+02  0.20292473941E+02  0.32179550461E+02  0.00000000000E+00 0.  1.
</event>
<event>
 7    1  0.5992960E-013  0.5052887E+02  0.7816164E-02  0.1300439E+00
        -11   -1    0    0    0    0  0.00000000000E+00  0.00000000000E+00  0.45593999997E+02  0.45594000000E+02  0.51100000000E-03 0. -1.
         11   -1    0    0    0    0 -0.00000000000E+00 -0.00000000000E+00 -0.45593999997E+02  0.45594000000E+02  0.51100000000E-03 0.  1.
    9900012    2    1    2    0    0  0.14224216304E+02  0.17265353781E+01  0.38050702482E+02  0.50528865562E+02  0.30000017364E+02 0.  0.
        -12    1    1    2    0    0 -0.14224216304E+02 -0.17265353781E+01 -0.38050702482E+02  0.40659134438E+02  0.00000000000E+00 0.  1.
         11    1    3    3    0    0  0.16131243227E+02  0.29128335974E+01  0.19467038605E+02  0.25449306472E+02  0.51100000000E-03 0.  1.
        -11    1    3    3    0    0 -0.20620600949E+01  0.20658266267E+01  0.20887893403E+02  0.21090846891E+02  0.51100000000E-03 0. -1.
        -12    1    3    3    0    0  0.15503317145E+00 -0.32521248460E+01 -0.23042295265E+01  0.39887121993E+01  0.00000000000E+00 0.  1.
</event>
<event>
 7    1  0.5992960E-013  0.5052886E+02  0.7816164E-02  0.1300439E+00
        -11   -1    0    0    0    0  0.00000000000E+00  0.00000000000E+00  0.45593999997E+02  0.45594000000E+02  0.51100000000E-03 0.  1.
         11   -1    0    0    0    0 -0.00000000000E+00 -0.00000000000E+00 -0.45593999997E+02  0.45594000000E+02  0.51100000000E-03 0. -1.
    9900012    2    1    2    0    0  0.27624537284E+01 -0.26997243452E+02 -0.30276784903E+02  0.50528855780E+02  0.29999987630E+02 0.  0.
        -12    1    1    2    0    0 -0.27624537284E+01  0.26997243452E+02  0.30276784903E+02  0.40659144220E+02  0.00000000000E+00 0.  1.
         11    1    3    3    0    0  0.27994614792E+01  0.20688264448E+01 -0.44859391352E+01  0.56780874965E+01  0.51100000000E-03 0. -1.
        -11    1    3    3    0    0  0.10271396536E+02 -0.82398862397E+01 -0.12080149321E+02  0.17869731949E+02  0.51100000000E-03 0.  1.
         12    1    3    3    0    0 -0.10308404287E+02 -0.20826183658E+02 -0.13710696447E+02  0.26981036335E+02  0.00000000000E+00 0. -1.
</event>
<event>
 7    1  0.5992960E-013  0.5052886E+02  0.7816164E-02  0.1300439E+00
        -11   -1    0    0    0    0  0.00000000000E+00  0.00000000000E+00  0.45593999997E+02  0.45594000000E+02  0.51100000000E-03 0. -1.
         11   -1    0    0    0    0 -0.00000000000E+00 -0.00000000000E+00 -0.45593999997E+02  0.45594000000E+02  0.51100000000E-03 0.  1.
    9900012    2    1    2    0    0  0.26238695997E+02 -0.29433189506E+02  0.99188449099E+01  0.50528864539E+02  0.30000014253E+02 0.  0.
        -12    1    1    2    0    0 -0.26238695997E+02  0.29433189506E+02 -0.99188449099E+01  0.40659135461E+02  0.00000000000E+00 0.  1.
         11    1    3    3    0    0 -0.23635847116E+01 -0.20164084560E+01 -0.27562174134E+01  0.41532120631E+01  0.51100000000E-03 0. -1.
        -11    1    3    3    0    0 -0.30354899462E+01 -0.56332034230E+00  0.48970181750E+00  0.31259138108E+01  0.51100000000E-03 0.  1.
         12    1    3    3    0    0  0.31637770654E+02 -0.26853460707E+02  0.12185360506E+02  0.43249738665E+02  0.00000000000E+00 0. -1.
</event>
<event>
 7    1  0.5992960E-013  0.5052886E+02  0.7816164E-02  0.1300439E+00
        -11   -1    0    0    0    0  0.00000000000E+00  0.00000000000E+00  0.45593999997E+02  0.45594000000E+02  0.51100000000E-03 0. -1.
         11   -1    0    0    0    0 -0.00000000000E+00 -0.00000000000E+00 -0.45593999997E+02  0.45594000000E+02  0.51100000000E-03 0.  1.
    9900012    2    1    2    0    0  0.10433350581E+02 -0.35919927347E+02  0.15939562737E+02  0.50528860250E+02  0.30000001216E+02 0.  0.
        -12    1    1    2    0    0 -0.10433350581E+02  0.35919927347E+02 -0.15939562737E+02  0.40659139750E+02  0.00000000000E+00 0.  1.
         11    1    3    3    0    0  0.14496551621E+01 -0.14027159713E+02  0.14553923977E+01  0.14176772447E+02  0.51100000000E-03 0. -1.
        -11    1    3    3    0    0  0.86162384987E+01  0.24798981020E+01  0.38104856318E+01  0.97421384446E+01  0.51100000000E-03 0.  1.
         12    1    3    3    0    0  0.36745692060E+00 -0.24372665736E+02  0.10673684707E+02  0.26609949359E+02  0.00000000000E+00 0. -1.
</event>
<event>
 7    1  0.5992960E-013  0.5052886E+02  0.7816164E-02  0.1300439E+00
        -11   -1    0    0    0    0  0.00000000000E+00  0.00000000000E+00  0.45593999997E+02  0.45594000000E+02  0.51100000000E-03 0.  1.
         11   -1    0    0    0    0 -0.00000000000E+00 -0.00000000000E+00 -0.45593999997E+02  0.45594000000E+02  0.51100000000E-03 0. -1.
    9900012    2    1    2    0    0  0.39156613762E+02 -0.10731243503E+02  0.21829705832E+01  0.50528863893E+02  0.30000012289E+02 0.  0.
        -12    1    1    2    0    0 -0.39156613762E+02  0.10731243503E+02 -0.21829705832E+01  0.40659136107E+02  0.00000000000E+00 0.  1.
         11    1    3    3    0    0 -0.24753953699E+01 -0.20920003911E+01 -0.31729530025E+01  0.45356012712E+01  0.51100000000E-03 0. -1.
        -11    1    3    3    0    0  0.10624564231E+01 -0.11949259035E+01 -0.34628237289E+01  0.38141591478E+01  0.51100000000E-03 0.  1.
         12    1    3    3    0    0  0.40569552708E+02 -0.74443172088E+01  0.88187473145E+01  0.42179103474E+02  0.00000000000E+00 0. -1.
</event>
<event>
 7    1  0.5992960E-013  0.5052885E+02  0.7816164E-02  0.1300439E+00
        -11   -1    0    0    0    0  0.00000000000E+00  0.00000000000E+00  0.45593999997E+02  0.45594000000E+02  0.51100000000E-03 0. -1.
         11   -1    0    0    0    0 -0.00000000000E+00 -0.00000000000E+00 -0.45593999997E+02  0.45594000000E+02  0.51100000000E-03 0.  1.
    9900012    2    1    2    0    0  0.30655867049E+02 -0.70730191428E+01  0.25755716130E+02  0.50528847308E+02  0.29999961876E+02 0.  0.
        -12    1    1    2    0    0 -0.30655867049E+02  0.70730191428E+01 -0.25755716130E+02  0.40659152692E+02  0.00000000000E+00 0.  1.
         11    1    3    3    0    0  0.13369544981E+01 -0.75173383256E+00 -0.23542182591E+00  0.15517650538E+01  0.51100000000E-03 0. -1.
        -11    1    3    3    0    0  0.10940538596E+02  0.11070203629E+02  0.14173250529E+02  0.21050554006E+02  0.51100000000E-03 0.  1.
         12    1    3    3    0    0  0.18378373955E+02 -0.17391488939E+02  0.11817887427E+02  0.27926528248E+02  0.00000000000E+00 0. -1.
</event>
<event>
 7    1  0.5992960E-013  0.5052886E+02  0.7816164E-02  0.1300439E+00
        -11   -1    0    0    0    0  0.00000000000E+00  0.00000000000E+00  0.45593999997E+02  0.45594000000E+02  0.51100000000E-03 0.  1.
         11   -1    0    0    0    0 -0.00000000000E+00 -0.00000000000E+00 -0.45593999997E+02  0.45594000000E+02  0.51100000000E-03 0. -1.
    9900012    2    1    2    0    0 -0.38083877894E+01  0.32318043284E+02 -0.24376335182E+02  0.50528862575E+02  0.30000008282E+02 0.  0.
        -12    1    1    2    0    0  0.38083877894E+01 -0.32318043284E+02  0.24376335182E+02  0.40659137425E+02  0.00000000000E+00 0.  1.
         11    1    3    3    0    0  0.19377607561E+01  0.32445944088E+02 -0.93056634476E+01  0.33809607761E+02  0.51100000000E-03 0. -1.
        -11    1    3    3    0    0  0.72814635636E+00  0.10389585544E+00 -0.20045359128E+01  0.21352180104E+01  0.51100000000E-03 0.  1.
         12    1    3    3    0    0 -0.64742949019E+01 -0.23179665919E+00 -0.13066135821E+02  0.14584036803E+02  0.00000000000E+00 0. -1.
</event>
<event>
 7    1  0.5992960E-013  0.5052886E+02  0.7816164E-02  0.1300439E+00
        -11   -1    0    0    0    0  0.00000000000E+00  0.00000000000E+00  0.45593999997E+02  0.45594000000E+02  0.51100000000E-03 0.  1.
         11   -1    0    0    0    0 -0.00000000000E+00 -0.00000000000E+00 -0.45593999997E+02  0.45594000000E+02  0.51100000000E-03 0. -1.
    9900012    2    1    2    0    0 -0.39875014172E+02 -0.56830645162E+01 -0.55544292435E+01  0.50528860047E+02  0.30000000598E+02 0.  0.
        -12    1    1    2    0    0  0.39875014172E+02  0.56830645162E+01  0.55544292435E+01  0.40659139953E+02  0.00000000000E+00 0.  1.
         11    1    3    3    0    0 -0.48363017332E+01 -0.30337826871E+01 -0.27466359715E+01  0.63354290517E+01  0.51100000000E-03 0. -1.
        -11    1    3    3    0    0 -0.26087251963E+02 -0.11436366815E+02 -0.94361035444E+01  0.30006253536E+02  0.51100000000E-03 0.  1.
        -12    1    3    3    0    0 -0.89514604759E+01  0.87870849855E+01  0.66283102725E+01  0.14187177459E+02  0.00000000000E+00 0.  1.
</event>
<event>
 7    1  0.5992960E-013  0.5052886E+02  0.7816164E-02  0.1300439E+00
        -11   -1    0    0    0    0  0.00000000000E+00  0.00000000000E+00  0.45593999997E+02  0.45594000000E+02  0.51100000000E-03 0.  1.
         11   -1    0    0    0    0 -0.00000000000E+00 -0.00000000000E+00 -0.45593999997E+02  0.45594000000E+02  0.51100000000E-03 0. -1.
    9900012    2    1    2    0    0 -0.32175942069E+02 -0.14708681465E+02 -0.20038195359E+02  0.50528857956E+02  0.29999994244E+02 0.  0.
        -12    1    1    2    0    0  0.32175942069E+02  0.14708681465E+02  0.20038195359E+02  0.40659142044E+02  0.00000000000E+00 0.  1.
         11    1    3    3    0    0 -0.11050728041E+02 -0.70216092988E+01 -0.91655826683E+01  0.15982161722E+02  0.51100000000E-03 0. -1.
        -11    1    3    3    0    0 -0.19813851722E+02 -0.89180718075E+01 -0.17361825155E+02  0.27812833329E+02  0.51100000000E-03 0.  1.
        -12    1    3    3    0    0 -0.13113623065E+01  0.12309996409E+01  0.64892124649E+01  0.67338629055E+01  0.00000000000E+00 0.  1.
</event>
<event>
 7    1  0.5992960E-013  0.5052886E+02  0.7816164E-02  0.1300439E+00
        -11   -1    0    0    0    0  0.00000000000E+00  0.00000000000E+00  0.45593999997E+02  0.45594000000E+02  0.51100000000E-03 0.  1.
         11   -1    0    0    0    0 -0.00000000000E+00 -0.00000000000E+00 -0.45593999997E+02  0.45594000000E+02  0.51100000000E-03 0. -1.
    9900012    2    1    2    0    0 -0.80517035736E+01  0.39764133245E+02 -0.26738617521E+01  0.50528858840E+02  0.29999996930E+02 0.  0.
        -12    1    1    2    0    0  0.80517035736E+01 -0.39764133245E+02  0.26738617521E+01  0.40659141160E+02  0.00000000000E+00 0.  1.
         11    1    3    3    0    0 -0.26107196683E+01  0.15984935878E+02 -0.55526524106E+01  0.17122090447E+02  0.51100000000E-03 0. -1.
        -11    1    3    3    0    0  0.46828764326E+01  0.22392393277E+02  0.34725429391E+00  0.22879449167E+02  0.51100000000E-03 0.  1.
        -12    1    3    3    0    0 -0.10123860338E+02  0.13868040896E+01  0.25315363645E+01  0.10527319226E+02  0.00000000000E+00 0.  1.
</event>
<event>
 7    1  0.5992960E-013  0.5052886E+02  0.7816164E-02  0.1300439E+00
        -11   -1    0    0    0    0  0.00000000000E+00  0.00000000000E+00  0.45593999997E+02  0.45594000000E+02  0.51100000000E-03 0.  1.
         11   -1    0    0    0    0 -0.00000000000E+00 -0.00000000000E+00 -0.45593999997E+02  0.45594000000E+02  0.51100000000E-03 0. -1.
    9900012    2    1    2    0    0 -0.20745494772E+02  0.49504397338E+01 -0.34616224190E+02  0.50528863461E+02  0.30000010977E+02 0.  0.
        -12    1    1    2    0    0  0.20745494772E+02 -0.49504397338E+01  0.34616224190E+02  0.40659136539E+02  0.00000000000E+00 0.  1.
         11    1    3    3    0    0 -0.15628819379E+01  0.15211547867E+01  0.23177616997E+01  0.31825353721E+01  0.51100000000E-03 0. -1.
        -11    1    3    3    0    0 -0.61086612253E+01  0.10189586401E+02 -0.65050655027E+01  0.13544714483E+02  0.51100000000E-03 0.  1.
         12    1    3    3    0    0 -0.13073951609E+02 -0.67603014535E+01 -0.30428920387E+02  0.33801613606E+02  0.00000000000E+00 0. -1.
</event>
<event>
 7    1  0.5992960E-013  0.5052886E+02  0.7816164E-02  0.1300439E+00
        -11   -1    0    0    0    0  0.00000000000E+00  0.00000000000E+00  0.45593999997E+02  0.45594000000E+02  0.51100000000E-03 0. -1.
         11   -1    0    0    0    0 -0.00000000000E+00 -0.00000000000E+00 -0.45593999997E+02  0.45594000000E+02  0.51100000000E-03 0.  1.
    9900012    2    1    2    0    0 -0.19706809179E+02  0.69132394242E+01  0.34885734532E+02  0.50528859808E+02  0.29999999871E+02 0.  0.
        -12    1    1    2    0    0  0.19706809179E+02 -0.69132394242E+01 -0.34885734532E+02  0.40659140192E+02  0.00000000000E+00 0.  1.
         11    1    3    3    0    0 -0.43857836909E+00  0.80258039909E+01  0.19521710872E+02  0.21111681040E+02  0.51100000000E-03 0. -1.
        -11    1    3    3    0    0 -0.17929891901E+02  0.13406128031E+01  0.18095606292E+02  0.25509395007E+02  0.51100000000E-03 0.  1.
         12    1    3    3    0    0 -0.13383389091E+01 -0.24531773698E+01 -0.27315826327E+01  0.39077837610E+01  0.00000000000E+00 0. -1.
</event>
<event>
 7    1  0.5992960E-013  0.5052886E+02  0.7816164E-02  0.1300439E+00
        -11   -1    0    0    0    0  0.00000000000E+00  0.00000000000E+00  0.45593999997E+02  0.45594000000E+02  0.51100000000E-03 0.  1.
         11   -1    0    0    0    0 -0.00000000000E+00 -0.00000000000E+00 -0.45593999997E+02  0.45594000000E+02  0.51100000000E-03 0. -1.
    9900012    2    1    2    0    0 -0.13177251208E+02  0.16030303706E+02 -0.34965051947E+02  0.50528862725E+02  0.30000008738E+02 0.  0.
        -12    1    1    2    0    0  0.13177251208E+02 -0.16030303706E+02  0.34965051947E+02  0.40659137275E+02  0.00000000000E+00 0.  1.
         11    1    3    3    0    0 -0.13428003985E+02  0.14056328456E+02 -0.12319215869E+02  0.23014229089E+02  0.51100000000E-03 0. -1.
        -11    1    3    3    0    0 -0.60288325637E+01 -0.37179311430E+01 -0.11606662651E+02  0.13597222224E+02  0.51100000000E-03 0.  1.
        -12    1    3    3    0    0  0.62795853406E+01  0.56919063933E+01 -0.11039173427E+02  0.13917411411E+02  0.00000000000E+00 0.  1.
</event>
<event>
 7    1  0.5992960E-013  0.5052886E+02  0.7816164E-02  0.1300439E+00
        -11   -1    0    0    0    0  0.00000000000E+00  0.00000000000E+00  0.45593999997E+02  0.45594000000E+02  0.51100000000E-03 0.  1.
         11   -1    0    0    0    0 -0.00000000000E+00 -0.00000000000E+00 -0.45593999997E+02  0.45594000000E+02  0.51100000000E-03 0. -1.
    9900012    2    1    2    0    0 -0.41366150042E+01  0.67324328832E+00 -0.40442558860E+02  0.50528863175E+02  0.30000010108E+02 0.  0.
        -12    1    1    2    0    0  0.41366150042E+01 -0.67324328832E+00  0.40442558860E+02  0.40659136825E+02  0.00000000000E+00 0.  1.
         11    1    3    3    0    0  0.17217347792E+01 -0.37205465636E+01 -0.16596062214E+01  0.44227966778E+01  0.51100000000E-03 0. -1.
        -11    1    3    3    0    0  0.15935169347E+01  0.10401019719E+02 -0.63494715159E+01  0.12289682510E+02  0.51100000000E-03 0.  1.
         12    1    3    3    0    0 -0.74518667181E+01 -0.60072298669E+01 -0.32433481122E+02  0.33816383987E+02  0.00000000000E+00 0. -1.
</event>
<event>
 7    1  0.5992960E-013  0.5052885E+02  0.7816164E-02  0.1300439E+00
        -11   -1    0    0    0    0  0.00000000000E+00  0.00000000000E+00  0.45593999997E+02  0.45594000000E+02  0.51100000000E-03 0. -1.
         11   -1    0    0    0    0 -0.00000000000E+00 -0.00000000000E+00 -0.45593999997E+02  0.45594000000E+02  0.51100000000E-03 0.  1.
    9900012    2    1    2    0    0  0.52497276949E+01  0.40242389279E+02  0.24812647856E+01  0.50528853296E+02  0.29999980079E+02 0.  0.
        -12    1    1    2    0    0 -0.52497276949E+01 -0.40242389279E+02 -0.24812647856E+01  0.40659146704E+02  0.00000000000E+00 0.  1.
         11    1    3    3    0    0 -0.81753612272E+01  0.18867407033E+02  0.40658763256E+01  0.20960604235E+02  0.51100000000E-03 0. -1.
        -11    1    3    3    0    0  0.32601761645E+01  0.18718147980E+02 -0.50654047196E+00  0.19006693451E+02  0.51100000000E-03 0.  1.
        -12    1    3    3    0    0  0.10164912758E+02  0.26568342666E+01 -0.10780710680E+01  0.10561555611E+02  0.00000000000E+00 0.  1.
</event>
<event>
 7    1  0.5992960E-013  0.5052886E+02  0.7816164E-02  0.1300439E+00
        -11   -1    0    0    0    0  0.00000000000E+00  0.00000000000E+00  0.45593999997E+02  0.45594000000E+02  0.51100000000E-03 0.  1.
         11   -1    0    0    0    0 -0.00000000000E+00 -0.00000000000E+00 -0.45593999997E+02  0.45594000000E+02  0.51100000000E-03 0. -1.
    9900012    2    1    2    0    0  0.22077364346E+02  0.97214412943E+01 -0.32729944790E+02  0.50528859291E+02  0.29999998299E+02 0.  0.
        -12    1    1    2    0    0 -0.22077364346E+02 -0.97214412943E+01  0.32729944790E+02  0.40659140709E+02  0.00000000000E+00 0.  1.
         11    1    3    3    0    0  0.89075032306E+01  0.78907913027E+01 -0.61263943617E+01  0.13384353153E+02  0.51100000000E-03 0. -1.
        -11    1    3    3    0    0  0.18424525052E+02 -0.27475807637E+01 -0.21826700886E+02  0.28695246911E+02  0.51100000000E-03 0.  1.
        -12    1    3    3    0    0 -0.52546639367E+01  0.45782307553E+01 -0.47768495423E+01  0.84492592270E+01  0.00000000000E+00 0.  1.
</event>
<event>
 7    1  0.5992960E-013  0.5052886E+02  0.7816164E-02  0.1300439E+00
        -11   -1    0    0    0    0  0.00000000000E+00  0.00000000000E+00  0.45593999997E+02  0.45594000000E+02  0.51100000000E-03 0.  1.
         11   -1    0    0    0    0 -0.00000000000E+00 -0.00000000000E+00 -0.45593999997E+02  0.45594000000E+02  0.51100000000E-03 0. -1.
    9900012    2    1    2    0    0 -0.40182633721E+02  0.71407247584E+00 -0.61653624466E+01  0.50528860236E+02  0.30000001172E+02 0.  0.
        -12    1    1    2    0    0  0.40182633721E+02 -0.71407247584E+00  0.61653624466E+01  0.40659139764E+02  0.00000000000E+00 0.  1.
         11    1    3    3    0    0 -0.10765286654E+02 -0.26269449285E+01 -0.68260073871E+01  0.13014861256E+02  0.51100000000E-03 0. -1.
        -11    1    3    3    0    0 -0.50484936048E+01 -0.67847308424E+01  0.62797479359E+01  0.10533522425E+02  0.51100000000E-03 0.  1.
        -12    1    3    3    0    0 -0.24368853462E+02  0.10125748247E+02 -0.56191029954E+01  0.26980476554E+02  0.00000000000E+00 0.  1.
</event>
<event>
 7    1  0.5992960E-013  0.5052884E+02  0.7816164E-02  0.1300439E+00
        -11   -1    0    0    0    0  0.00000000000E+00  0.00000000000E+00  0.45593999997E+02  0.45594000000E+02  0.51100000000E-03 0. -1.
         11   -1    0    0    0    0 -0.00000000000E+00 -0.00000000000E+00 -0.45593999997E+02  0.45594000000E+02  0.51100000000E-03 0.  1.
    9900012    2    1    2    0    0  0.31505906601E+02 -0.22089426209E+02  0.13137816551E+02  0.50528842056E+02  0.29999945913E+02 0.  0.
        -12    1    1    2    0    0 -0.31505906601E+02  0.22089426209E+02 -0.13137816551E+02  0.40659157944E+02  0.00000000000E+00 0.  1.
         11    1    3    3    0    0  0.40648196861E+01 -0.61916331236E+01  0.92537159932E+01  0.11852862092E+02  0.51100000000E-03 0. -1.
        -11    1    3    3    0    0  0.62769421393E+01 -0.15248317143E+02 -0.22226401734E+01  0.16638849356E+02  0.51100000000E-03 0.  1.
        -12    1    3    3    0    0  0.21164144776E+02 -0.64947594301E+00  0.61067407312E+01  0.22037130608E+02  0.00000000000E+00 0.  1.
</event>
<event>
 7    1  0.5992960E-013  0.5052887E+02  0.7816164E-02  0.1300439E+00
        -11   -1    0    0    0    0  0.00000000000E+00  0.00000000000E+00  0.45593999997E+02  0.45594000000E+02  0.51100000000E-03 0. -1.
         11   -1    0    0    0    0 -0.00000000000E+00 -0.00000000000E+00 -0.45593999997E+02  0.45594000000E+02  0.51100000000E-03 0.  1.
    9900012    2    1    2    0    0 -0.89826967741E+01  0.39331009136E+02  0.50545154935E+01  0.50528865137E+02  0.30000016069E+02 0.  0.
        -12    1    1    2    0    0  0.89826967741E+01 -0.39331009136E+02 -0.50545154935E+01  0.40659134863E+02  0.00000000000E+00 0.  1.
         11    1    3    3    0    0  0.16871167986E+01  0.26534983367E+02  0.13487089151E+02  0.29813642505E+02  0.51100000000E-03 0. -1.
        -11    1    3    3    0    0 -0.14002132376E+01  0.32415308525E+00 -0.44460860155E+01  0.46726174091E+01  0.51100000000E-03 0.  1.
        -12    1    3    3    0    0 -0.92696003351E+01  0.12471872683E+02 -0.39864876423E+01  0.16042605222E+02  0.00000000000E+00 0.  1.
</event>
<event>
 7    1  0.5992960E-013  0.5052887E+02  0.7816164E-02  0.1300439E+00
        -11   -1    0    0    0    0  0.00000000000E+00  0.00000000000E+00  0.45593999997E+02  0.45594000000E+02  0.51100000000E-03 0.  1.
         11   -1    0    0    0    0 -0.00000000000E+00 -0.00000000000E+00 -0.45593999997E+02  0.45594000000E+02  0.51100000000E-03 0. -1.
    9900012    2    1    2    0    0 -0.69743118107E+01 -0.49214410575E+01 -0.39753032700E+02  0.50528865526E+02  0.30000017252E+02 0.  0.
        -12    1    1    2    0    0  0.69743118107E+01  0.49214410575E+01  0.39753032700E+02  0.40659134474E+02  0.00000000000E+00 0.  1.
         11    1    3    3    0    0 -0.87715885535E+01  0.51537959085E+01 -0.43708283526E+01  0.11072782792E+02  0.51100000000E-03 0. -1.
        -11    1    3    3    0    0  0.22817606081E+01 -0.75315650867E+01 -0.58380208283E+01  0.97986423335E+01  0.51100000000E-03 0.  1.
         12    1    3    3    0    0 -0.48448386531E+00 -0.25436718793E+01 -0.29544183519E+02  0.29657440400E+02  0.00000000000E+00 0. -1.
</event>
<event>
 7    1  0.5992960E-013  0.5052886E+02  0.7816164E-02  0.1300439E+00
        -11   -1    0    0    0    0  0.00000000000E+00  0.00000000000E+00  0.45593999997E+02  0.45594000000E+02  0.51100000000E-03 0.  1.
         11   -1    0    0    0    0 -0.00000000000E+00 -0.00000000000E+00 -0.45593999997E+02  0.45594000000E+02  0.51100000000E-03 0. -1.
    9900012    2    1    2    0    0  0.34371796328E+02 -0.10153005955E+02 -0.19200572071E+02  0.50528857356E+02  0.29999992418E+02 0.  0.
        -12    1    1    2    0    0 -0.34371796328E+02  0.10153005955E+02  0.19200572071E+02  0.40659142644E+02  0.00000000000E+00 0.  1.
         11    1    3    3    0    0  0.63591280085E+01 -0.58353479344E+01 -0.16800977405E+02  0.18888161281E+02  0.51100000000E-03 0. -1.
        -11    1    3    3    0    0  0.21918443604E+01  0.30833015721E+01 -0.29140676176E+01  0.47752194322E+01  0.51100000000E-03 0.  1.
        -12    1    3    3    0    0  0.25820823959E+02 -0.74009595923E+01  0.51447295201E+00  0.26865476642E+02  0.00000000000E+00 0.  1.
</event>
<event>
 7    1  0.5992960E-013  0.5052886E+02  0.7816164E-02  0.1300439E+00
        -11   -1    0    0    0    0  0.00000000000E+00  0.00000000000E+00  0.45593999997E+02  0.45594000000E+02  0.51100000000E-03 0. -1.
         11   -1    0    0    0    0 -0.00000000000E+00 -0.00000000000E+00 -0.45593999997E+02  0.45594000000E+02  0.51100000000E-03 0.  1.
    9900012    2    1    2    0    0 -0.16886059957E+01  0.18651316934E+02  0.36089375566E+02  0.50528855367E+02  0.29999986373E+02 0.  0.
        -12    1    1    2    0    0  0.16886059957E+01 -0.18651316934E+02 -0.36089375566E+02  0.40659144633E+02  0.00000000000E+00 0.  1.
         11    1    3    3    0    0 -0.90320273153E+00 -0.16130960640E+01  0.37308481102E+01  0.41637821711E+01  0.51100000000E-03 0. -1.
        -11    1    3    3    0    0 -0.88476290146E+01  0.47016383914E+01  0.53427919195E+00  0.10033513705E+02  0.51100000000E-03 0.  1.
         12    1    3    3    0    0  0.80622257504E+01  0.15562774607E+02  0.31824248264E+02  0.36331559491E+02  0.00000000000E+00 0. -1.
</event>
<event>
 7    1  0.5992960E-013  0.5052886E+02  0.7816164E-02  0.1300439E+00
        -11   -1    0    0    0    0  0.00000000000E+00  0.00000000000E+00  0.45593999997E+02  0.45594000000E+02  0.51100000000E-03 0. -1.
         11   -1    0    0    0    0 -0.00000000000E+00 -0.00000000000E+00 -0.45593999997E+02  0.45594000000E+02  0.51100000000E-03 0.  1.
    9900012    2    1    2    0    0  0.11432629739E+02 -0.33193469633E+02  0.20509851916E+02  0.50528862348E+02  0.30000007592E+02 0.  0.
        -12    1    1    2    0    0 -0.11432629739E+02  0.33193469633E+02 -0.20509851916E+02  0.40659137652E+02  0.00000000000E+00 0.  1.
         11    1    3    3    0    0  0.65805833379E+00 -0.20539168739E+01  0.90832974332E+01  0.93358399631E+01  0.51100000000E-03 0. -1.
        -11    1    3    3    0    0 -0.25003013197E+01 -0.10271400049E+01  0.75954738353E+01  0.80621179800E+01  0.51100000000E-03 0.  1.
        -12    1    3    3    0    0  0.13274872725E+02 -0.30112412754E+02  0.38310806477E+01  0.33130904405E+02  0.00000000000E+00 0.  1.
</event>
<event>
 7    1  0.5992960E-013  0.5052886E+02  0.7816164E-02  0.1300439E+00
        -11   -1    0    0    0    0  0.00000000000E+00  0.00000000000E+00  0.45593999997E+02  0.45594000000E+02  0.51100000000E-03 0.  1.
         11   -1    0    0    0    0 -0.00000000000E+00 -0.00000000000E+00 -0.45593999997E+02  0.45594000000E+02  0.51100000000E-03 0. -1.
    9900012    2    1    2    0    0 -0.35380866120E+02 -0.18127298757E+02 -0.85300120174E+01  0.50528858929E+02  0.29999997201E+02 0.  0.
        -12    1    1    2    0    0  0.35380866120E+02  0.18127298757E+02  0.85300120174E+01  0.40659141071E+02  0.00000000000E+00 0.  1.
         11    1    3    3    0    0 -0.20094551019E+02 -0.20663780679E+02 -0.57614125275E+01  0.29393480352E+02  0.51100000000E-03 0. -1.
        -11    1    3    3    0    0  0.23319204475E+01  0.10640930875E+01  0.14698608004E+01  0.29547653216E+01  0.51100000000E-03 0.  1.
        -12    1    3    3    0    0 -0.17618235548E+02  0.14723888354E+01 -0.42384602903E+01  0.18180613256E+02  0.00000000000E+00 0.  1.
</event>
<event>
 7    1  0.5992960E-013  0.5052886E+02  0.7816164E-02  0.1300439E+00
        -11   -1    0    0    0    0  0.00000000000E+00  0.00000000000E+00  0.45593999997E+02  0.45594000000E+02  0.51100000000E-03 0.  1.
         11   -1    0    0    0    0 -0.00000000000E+00 -0.00000000000E+00 -0.45593999997E+02  0.45594000000E+02  0.51100000000E-03 0. -1.
    9900012    2    1    2    0    0 -0.28484025995E+02 -0.24410132882E+02 -0.15683468934E+02  0.50528861765E+02  0.30000005821E+02 0.  0.
        -12    1    1    2    0    0  0.28484025995E+02  0.24410132882E+02  0.15683468934E+02  0.40659138235E+02  0.00000000000E+00 0.  1.
         11    1    3    3    0    0 -0.10270675900E+02 -0.18306371263E+01  0.22432028448E+01  0.10670987536E+02  0.51100000000E-03 0. -1.
        -11    1    3    3    0    0 -0.19021084590E+02 -0.96948620610E+01 -0.57468567669E+01  0.22109237262E+02  0.51100000000E-03 0.  1.
        -12    1    3    3    0    0  0.80773449435E+00 -0.12884633695E+02 -0.12179815012E+02  0.17748636967E+02  0.00000000000E+00 0.  1.
</event>
<event>
 7    1  0.5992960E-013  0.5052888E+02  0.7816164E-02  0.1300439E+00
        -11   -1    0    0    0    0  0.00000000000E+00  0.00000000000E+00  0.45593999997E+02  0.45594000000E+02  0.51100000000E-03 0.  1.
         11   -1    0    0    0    0 -0.00000000000E+00 -0.00000000000E+00 -0.45593999997E+02  0.45594000000E+02  0.51100000000E-03 0. -1.
    9900012    2    1    2    0    0 -0.10349291573E+02 -0.35074659380E+02 -0.17771441420E+02  0.50528884210E+02  0.30000074044E+02 0.  0.
        -12    1    1    2    0    0  0.10349291573E+02  0.35074659380E+02  0.17771441420E+02  0.40659115790E+02  0.00000000000E+00 0.  1.
         11    1    3    3    0    0 -0.37406404071E+01 -0.20879643336E+01 -0.11713243512E+01  0.44411695206E+01  0.51100000000E-03 0. -1.
        -11    1    3    3    0    0 -0.14128161922E+02 -0.26497346415E+02 -0.43897692432E+01  0.30347724801E+02  0.51100000000E-03 0.  1.
         12    1    3    3    0    0  0.75195107558E+01 -0.64893486311E+01 -0.12210347825E+02  0.15739989888E+02  0.00000000000E+00 0. -1.
</event>
<event>
 7    1  0.5992960E-013  0.5052888E+02  0.7816164E-02  0.1300439E+00
        -11   -1    0    0    0    0  0.00000000000E+00  0.00000000000E+00  0.45593999997E+02  0.45594000000E+02  0.51100000000E-03 0. -1.
         11   -1    0    0    0    0 -0.00000000000E+00 -0.00000000000E+00 -0.45593999997E+02  0.45594000000E+02  0.51100000000E-03 0.  1.
    9900012    2    1    2    0    0  0.33036771582E+02  0.15734308987E+02  0.17724770114E+02  0.50528877635E+02  0.30000054060E+02 0.  0.
        -12    1    1    2    0    0 -0.33036771582E+02 -0.15734308987E+02 -0.17724770114E+02  0.40659122365E+02  0.00000000000E+00 0.  1.
         11    1    3    3    0    0  0.65605580726E+01  0.57153929346E+00 -0.13184133090E+01  0.67160846706E+01  0.51100000000E-03 0. -1.
        -11    1    3    3    0    0  0.27483470581E+00  0.26428971129E+01 -0.52944021537E+01  0.59237769786E+01  0.51100000000E-03 0.  1.
         12    1    3    3    0    0  0.26201378804E+02  0.12519872581E+02  0.24337585577E+02  0.37889015986E+02  0.00000000000E+00 0. -1.
</event>
<event>
 7    1  0.5992960E-013  0.5052887E+02  0.7816164E-02  0.1300439E+00
        -11   -1    0    0    0    0  0.00000000000E+00  0.00000000000E+00  0.45593999997E+02  0.45594000000E+02  0.51100000000E-03 0.  1.
         11   -1    0    0    0    0 -0.00000000000E+00 -0.00000000000E+00 -0.45593999997E+02  0.45594000000E+02  0.51100000000E-03 0. -1.
    9900012    2    1    2    0    0  0.14225718201E+02 -0.47602962596E+01 -0.37790650929E+02  0.50528870934E+02  0.30000033690E+02 0.  0.
        -12    1    1    2    0    0 -0.14225718201E+02  0.47602962596E+01  0.37790650929E+02  0.40659129066E+02  0.00000000000E+00 0.  1.
         11    1    3    3    0    0 -0.45250314236E+01  0.23489548804E+01 -0.23168327462E+02  0.23722666293E+02  0.51100000000E-03 0.  1.
        -11    1    3    3    0    0  0.12285108667E+02 -0.49510353550E+01 -0.14960707311E+02  0.19981476661E+02  0.51100000000E-03 0. -1.
        -12    1    3    3    0    0  0.64656409579E+01 -0.21582157849E+01  0.33838384419E+00  0.68247279797E+01  0.00000000000E+00 0.  1.
</event>
<event>
 7    1  0.5992960E-013  0.5052885E+02  0.7816164E-02  0.1300439E+00
        -11   -1    0    0    0    0  0.00000000000E+00  0.00000000000E+00  0.45593999997E+02  0.45594000000E+02  0.51100000000E-03 0.  1.
         11   -1    0    0    0    0 -0.00000000000E+00 -0.00000000000E+00 -0.45593999997E+02  0.45594000000E+02  0.51100000000E-03 0. -1.
    9900012    2    1    2    0    0  0.33738305908E+02  0.10272619809E+02 -0.20232798433E+02  0.50528854218E+02  0.29999982882E+02 0.  0.
        -12    1    1    2    0    0 -0.33738305908E+02 -0.10272619809E+02  0.20232798433E+02  0.40659145782E+02  0.00000000000E+00 0.  1.
         11    1    3    3    0    0  0.54911620078E+01  0.93754315880E+00 -0.12578951122E+02  0.13757247506E+02  0.51100000000E-03 0. -1.
        -11    1    3    3    0    0  0.31014132019E+01  0.69319201739E+01  0.44064603494E+01  0.87799301944E+01  0.51100000000E-03 0.  1.
         12    1    3    3    0    0  0.25145730698E+02  0.24031564759E+01 -0.12060307661E+02  0.27991676518E+02  0.00000000000E+00 0. -1.
</event>
<event>
 7    1  0.5992960E-013  0.5052886E+02  0.7816164E-02  0.1300439E+00
        -11   -1    0    0    0    0  0.00000000000E+00  0.00000000000E+00  0.45593999997E+02  0.45594000000E+02  0.51100000000E-03 0. -1.
         11   -1    0    0    0    0 -0.00000000000E+00 -0.00000000000E+00 -0.45593999997E+02  0.45594000000E+02  0.51100000000E-03 0.  1.
    9900012    2    1    2    0    0  0.33351704614E+02  0.70926461544E+01  0.22147770716E+02  0.50528861079E+02  0.30000003735E+02 0.  0.
        -12    1    1    2    0    0 -0.33351704614E+02 -0.70926461544E+01 -0.22147770716E+02  0.40659138921E+02  0.00000000000E+00 0.  1.
         11    1    3    3    0    0  0.19874679991E+02  0.63185513676E+01  0.15684774053E+02  0.26094810471E+02  0.51100000000E-03 0. -1.
        -11    1    3    3    0    0  0.14817155145E+02  0.28988568919E+01  0.11384020027E+02  0.18908923029E+02  0.51100000000E-03 0.  1.
        -12    1    3    3    0    0 -0.13401305228E+01 -0.21247621051E+01 -0.49210233635E+01  0.55251275791E+01  0.00000000000E+00 0.  1.
</event>
<event>
 7    1  0.5992960E-013  0.5052886E+02  0.7816164E-02  0.1300439E+00
        -11   -1    0    0    0    0  0.00000000000E+00  0.00000000000E+00  0.45593999997E+02  0.45594000000E+02  0.51100000000E-03 0.  1.
         11   -1    0    0    0    0 -0.00000000000E+00 -0.00000000000E+00 -0.45593999997E+02  0.45594000000E+02  0.51100000000E-03 0. -1.
    9900012    2    1    2    0    0  0.27990871938E+02 -0.27729919850E+02 -0.10036366345E+02  0.50528855688E+02  0.29999987350E+02 0.  0.
        -12    1    1    2    0    0 -0.27990871938E+02  0.27729919850E+02  0.10036366345E+02  0.40659144312E+02  0.00000000000E+00 0.  1.
         11    1    3    3    0    0  0.24468932465E+01 -0.55980358949E+01 -0.32626757799E+01  0.69260628027E+01  0.51100000000E-03 0. -1.
        -11    1    3    3    0    0  0.38269490577E+01  0.93638756084E+00 -0.10958492525E+02  0.11645210150E+02  0.51100000000E-03 0.  1.
        -12    1    3    3    0    0  0.21717029634E+02 -0.23068271516E+02  0.41848019600E+01  0.31957582736E+02  0.00000000000E+00 0.  1.
</event>
<event>
 7    1  0.5992960E-013  0.5052886E+02  0.7816164E-02  0.1300439E+00
        -11   -1    0    0    0    0  0.00000000000E+00  0.00000000000E+00  0.45593999997E+02  0.45594000000E+02  0.51100000000E-03 0. -1.
         11   -1    0    0    0    0 -0.00000000000E+00 -0.00000000000E+00 -0.45593999997E+02  0.45594000000E+02  0.51100000000E-03 0.  1.
    9900012    2    1    2    0    0 -0.42679649166E+01 -0.35583903782E+02  0.19202493292E+02  0.50528862263E+02  0.30000007335E+02 0.  0.
        -12    1    1    2    0    0  0.42679649166E+01  0.35583903782E+02 -0.19202493292E+02  0.40659137737E+02  0.00000000000E+00 0.  1.
         11    1    3    3    0    0  0.60180529724E+01 -0.40228204201E+01  0.14483739870E+02  0.16191935233E+02  0.51100000000E-03 0. -1.
        -11    1    3    3    0    0 -0.66308081288E+00 -0.14210482027E+00 -0.76565355206E+00  0.10227881341E+01  0.51100000000E-03 0.  1.
        -12    1    3    3    0    0 -0.96229370761E+01 -0.31418978541E+02  0.54844069744E+01  0.33314138896E+02  0.00000000000E+00 0.  1.
</event>
<event>
 7    1  0.5992960E-013  0.5052890E+02  0.7816164E-02  0.1300439E+00
        -11   -1    0    0    0    0  0.00000000000E+00  0.00000000000E+00  0.45593999997E+02  0.45594000000E+02  0.51100000000E-03 0. -1.
         11   -1    0    0    0    0 -0.00000000000E+00 -0.00000000000E+00 -0.45593999997E+02  0.45594000000E+02  0.51100000000E-03 0.  1.
    9900012    2    1    2    0    0  0.18134796752E+02  0.17210980436E+02  0.32063586404E+02  0.50528901708E+02  0.30000127232E+02 0.  0.
        -12    1    1    2    0    0 -0.18134796752E+02 -0.17210980436E+02 -0.32063586404E+02  0.40659098292E+02  0.00000000000E+00 0.  1.
         11    1    3    3    0    0  0.15111132199E+02  0.17909546103E+02  0.15944133035E+02  0.28342786322E+02  0.51100000000E-03 0. -1.
        -11    1    3    3    0    0  0.56596882316E+01  0.26648579287E+01  0.82975502121E+00  0.63104700550E+01  0.51100000000E-03 0.  1.
        -12    1    3    3    0    0 -0.26360236786E+01 -0.33634235963E+01  0.15289698348E+02  0.15875645331E+02  0.00000000000E+00 0.  1.
</event>
<event>
 7    1  0.5992960E-013  0.5052886E+02  0.7816164E-02  0.1300439E+00
        -11   -1    0    0    0    0  0.00000000000E+00  0.00000000000E+00  0.45593999997E+02  0.45594000000E+02  0.51100000000E-03 0. -1.
         11   -1    0    0    0    0 -0.00000000000E+00 -0.00000000000E+00 -0.45593999997E+02  0.45594000000E+02  0.51100000000E-03 0.  1.
    9900012    2    1    2    0    0 -0.40280155958E+02 -0.10786242500E+01  0.54324111213E+01  0.50528862222E+02  0.30000007210E+02 0.  0.
        -12    1    1    2    0    0  0.40280155958E+02  0.10786242500E+01 -0.54324111213E+01  0.40659137778E+02  0.00000000000E+00 0.  1.
         11    1    3    3    0    0 -0.27772814836E+02 -0.81890548524E+01  0.14482480288E+02  0.32374868321E+02  0.51100000000E-03 0. -1.
        -11    1    3    3    0    0 -0.89430385143E+01  0.19618647063E+01 -0.35509457276E+01  0.98201866996E+01  0.51100000000E-03 0.  1.
        -12    1    3    3    0    0 -0.35643026080E+01  0.51485658960E+01 -0.54991234390E+01  0.83338072010E+01  0.00000000000E+00 0.  1.
</event>
<event>
 7    1  0.5992960E-013  0.5052886E+02  0.7816164E-02  0.1300439E+00
        -11   -1    0    0    0    0  0.00000000000E+00  0.00000000000E+00  0.45593999997E+02  0.45594000000E+02  0.51100000000E-03 0.  1.
         11   -1    0    0    0    0 -0.00000000000E+00 -0.00000000000E+00 -0.45593999997E+02  0.45594000000E+02  0.51100000000E-03 0. -1.
    9900012    2    1    2    0    0  0.14773508116E+02  0.33093768264E+02 -0.18431258668E+02  0.50528864052E+02  0.30000012772E+02 0.  0.
        -12    1    1    2    0    0 -0.14773508116E+02 -0.33093768264E+02  0.18431258668E+02  0.40659135948E+02  0.00000000000E+00 0.  1.
         11    1    3    3    0    0 -0.23815065924E+01  0.35476647804E+01 -0.70324972593E+01  0.82288223341E+01  0.51100000000E-03 0. -1.
        -11    1    3    3    0    0  0.10832354865E+02  0.22851885622E+01  0.20380806583E+01  0.11256810015E+02  0.51100000000E-03 0.  1.
         12    1    3    3    0    0  0.63226598442E+01  0.27260914921E+02 -0.13436842067E+02  0.31043231703E+02  0.00000000000E+00 0. -1.
</event>
<event>
 7    1  0.5992960E-013  0.5052886E+02  0.7816164E-02  0.1300439E+00
        -11   -1    0    0    0    0  0.00000000000E+00  0.00000000000E+00  0.45593999997E+02  0.45594000000E+02  0.51100000000E-03 0. -1.
         11   -1    0    0    0    0 -0.00000000000E+00 -0.00000000000E+00 -0.45593999997E+02  0.45594000000E+02  0.51100000000E-03 0.  1.
    9900012    2    1    2    0    0  0.38922483533E+02  0.11711196941E+02 -0.10265915634E+01  0.50528858981E+02  0.29999997358E+02 0.  0.
        -12    1    1    2    0    0 -0.38922483533E+02 -0.11711196941E+02  0.10265915634E+01  0.40659141019E+02  0.00000000000E+00 0.  1.
         11    1    3    3    0    0  0.12281309090E+02  0.59142878343E+01  0.67974249932E+01  0.15232016950E+02  0.51100000000E-03 0. -1.
        -11    1    3    3    0    0  0.15977908503E+02  0.86371664985E+01  0.45427707150E+01  0.18722472361E+02  0.51100000000E-03 0.  1.
        -12    1    3    3    0    0  0.10663265939E+02 -0.28402573917E+01 -0.12366787272E+02  0.16574369670E+02  0.00000000000E+00 0.  1.
</event>
<event>
 7    1  0.5992960E-013  0.5052886E+02  0.7816164E-02  0.1300439E+00
        -11   -1    0    0    0    0  0.00000000000E+00  0.00000000000E+00  0.45593999997E+02  0.45594000000E+02  0.51100000000E-03 0. -1.
         11   -1    0    0    0    0 -0.00000000000E+00 -0.00000000000E+00 -0.45593999997E+02  0.45594000000E+02  0.51100000000E-03 0.  1.
    9900012    2    1    2    0    0 -0.20402552260E+02 -0.19034295165E+02  0.29573593263E+02  0.50528856506E+02  0.29999989837E+02 0.  0.
        -12    1    1    2    0    0  0.20402552260E+02  0.19034295165E+02 -0.29573593263E+02  0.40659143494E+02  0.00000000000E+00 0.  1.
         11    1    3    3    0    0 -0.77846489578E+01 -0.48258329243E+01  0.13156806140E+01  0.92531312834E+01  0.51100000000E-03 0. -1.
        -11    1    3    3    0    0 -0.15882459858E+02 -0.12347734903E+02  0.96868535982E+01  0.22328327776E+02  0.51100000000E-03 0.  1.
         12    1    3    3    0    0  0.32645565562E+01 -0.18607273374E+01  0.18571059051E+02  0.18947397447E+02  0.00000000000E+00 0. -1.
</event>
<event>
 7    1  0.5992960E-013  0.5052882E+02  0.7816164E-02  0.1300439E+00
        -11   -1    0    0    0    0  0.00000000000E+00  0.00000000000E+00  0.45593999997E+02  0.45594000000E+02  0.51100000000E-03 0.  1.
         11   -1    0    0    0    0 -0.00000000000E+00 -0.00000000000E+00 -0.45593999997E+02  0.45594000000E+02  0.51100000000E-03 0. -1.
    9900012    2    1    2    0    0 -0.14483369218E+02 -0.14263980776E+02 -0.35212781310E+02  0.50528817777E+02  0.29999872114E+02 0.  0.
        -12    1    1    2    0    0  0.14483369218E+02  0.14263980776E+02  0.35212781310E+02  0.40659182223E+02  0.00000000000E+00 0.  1.
         11    1    3    3    0    0 -0.38458668061E+00 -0.14572081698E+00 -0.21140513695E+01  0.21536840357E+01  0.51100000000E-03 0. -1.
        -11    1    3    3    0    0  0.90563530967E+01 -0.26281137575E+01 -0.88833228564E+01  0.12955228233E+02  0.51100000000E-03 0.  1.
         12    1    3    3    0    0 -0.23155135634E+02 -0.11490146202E+02 -0.24215407084E+02  0.35419905508E+02  0.00000000000E+00 0. -1.
</event>
<event>
 7    1  0.5992960E-013  0.5052886E+02  0.7816164E-02  0.1300439E+00
        -11   -1    0    0    0    0  0.00000000000E+00  0.00000000000E+00  0.45593999997E+02  0.45594000000E+02  0.51100000000E-03 0. -1.
         11   -1    0    0    0    0 -0.00000000000E+00 -0.00000000000E+00 -0.45593999997E+02  0.45594000000E+02  0.51100000000E-03 0.  1.
    9900012    2    1    2    0    0  0.16341360181E+02 -0.35685012314E+02  0.10616299484E+02  0.50528856242E+02  0.29999989034E+02 0.  0.
        -12    1    1    2    0    0 -0.16341360181E+02  0.35685012314E+02 -0.10616299484E+02  0.40659143758E+02  0.00000000000E+00 0.  1.
         11    1    3    3    0    0  0.16714119734E+02 -0.10021442180E+02  0.70476119094E+00  0.19500968962E+02  0.51100000000E-03 0. -1.
        -11    1    3    3    0    0  0.13438461936E+01 -0.38250447749E+01 -0.34885272275E+01  0.53485243385E+01  0.51100000000E-03 0.  1.
         12    1    3    3    0    0 -0.17166057468E+01 -0.21838525359E+02  0.13400065520E+02  0.25679362942E+02  0.00000000000E+00 0. -1.
</event>
<event>
 7    1  0.5992960E-013  0.5052885E+02  0.7816164E-02  0.1300439E+00
        -11   -1    0    0    0    0  0.00000000000E+00  0.00000000000E+00  0.45593999997E+02  0.45594000000E+02  0.51100000000E-03 0. -1.
         11   -1    0    0    0    0 -0.00000000000E+00 -0.00000000000E+00 -0.45593999997E+02  0.45594000000E+02  0.51100000000E-03 0.  1.
    9900012    2    1    2    0    0 -0.40040176417E+02  0.27508819726E+00 -0.70622275774E+01  0.50528850237E+02  0.29999970782E+02 0.  0.
        -12    1    1    2    0    0  0.40040176417E+02 -0.27508819726E+00  0.70622275774E+01  0.40659149763E+02  0.00000000000E+00 0.  1.
         11    1    3    3    0    0 -0.37902494064E+02  0.19763224443E+01 -0.37561064066E+01  0.38139392264E+02  0.51100000000E-03 0. -1.
        -11    1    3    3    0    0 -0.53506072930E+01 -0.49548376558E+01 -0.27029408382E+01  0.77772298432E+01  0.51100000000E-03 0.  1.
        -12    1    3    3    0    0  0.32129249397E+01  0.32536034088E+01 -0.60318033264E+00  0.46122281300E+01  0.00000000000E+00 0.  1.
</event>
<event>
 7    1  0.5992960E-013  0.5052886E+02  0.7816164E-02  0.1300439E+00
        -11   -1    0    0    0    0  0.00000000000E+00  0.00000000000E+00  0.45593999997E+02  0.45594000000E+02  0.51100000000E-03 0.  1.
         11   -1    0    0    0    0 -0.00000000000E+00 -0.00000000000E+00 -0.45593999997E+02  0.45594000000E+02  0.51100000000E-03 0. -1.
    9900012    2    1    2    0    0 -0.62361669462E+01 -0.24456979689E+02 -0.31876827660E+02  0.50528858650E+02  0.29999996352E+02 0.  0.
        -12    1    1    2    0    0  0.62361669462E+01  0.24456979689E+02  0.31876827660E+02  0.40659141350E+02  0.00000000000E+00 0.  1.
         11    1    3    3    0    0  0.11182003256E+01  0.75228686062E+00  0.12813099570E+01  0.18595867702E+01  0.51100000000E-03 0.  1.
        -11    1    3    3    0    0  0.17048307762E+01 -0.26217161143E+00 -0.18044396091E+02  0.18126649234E+02  0.51100000000E-03 0. -1.
         12    1    3    3    0    0 -0.90591980481E+01 -0.24947094938E+02 -0.15113741526E+02  0.30542622645E+02  0.00000000000E+00 0. -1.
</event>
<event>
 7    1  0.5992960E-013  0.5052885E+02  0.7816164E-02  0.1300439E+00
        -11   -1    0    0    0    0  0.00000000000E+00  0.00000000000E+00  0.45593999997E+02  0.45594000000E+02  0.51100000000E-03 0.  1.
         11   -1    0    0    0    0 -0.00000000000E+00 -0.00000000000E+00 -0.45593999997E+02  0.45594000000E+02  0.51100000000E-03 0. -1.
    9900012    2    1    2    0    0 -0.31640148632E+02 -0.11051461771E+02 -0.23020265099E+02  0.50528850747E+02  0.29999972332E+02 0.  0.
        -12    1    1    2    0    0  0.31640148632E+02  0.11051461771E+02  0.23020265099E+02  0.40659149253E+02  0.00000000000E+00 0.  1.
         11    1    3    3    0    0 -0.11292594442E+02 -0.13515190186E+02 -0.14260687545E+02  0.22661647436E+02  0.51100000000E-03 0. -1.
        -11    1    3    3    0    0 -0.17503567046E+01 -0.56956737494E+01 -0.62890216367E+00  0.59916580548E+01  0.51100000000E-03 0.  1.
         12    1    3    3    0    0 -0.18597197486E+02  0.81594021641E+01 -0.81306753900E+01  0.21875545257E+02  0.00000000000E+00 0. -1.
</event>
<event>
 7    1  0.5992960E-013  0.5052888E+02  0.7816164E-02  0.1300439E+00
        -11   -1    0    0    0    0  0.00000000000E+00  0.00000000000E+00  0.45593999997E+02  0.45594000000E+02  0.51100000000E-03 0.  1.
         11   -1    0    0    0    0 -0.00000000000E+00 -0.00000000000E+00 -0.45593999997E+02  0.45594000000E+02  0.51100000000E-03 0. -1.
    9900012    2    1    2    0    0  0.34997718031E+02 -0.16875822250E+02  0.11980432334E+02  0.50528875527E+02  0.30000047651E+02 0.  0.
        -12    1    1    2    0    0 -0.34997718031E+02  0.16875822250E+02 -0.11980432334E+02  0.40659124473E+02  0.00000000000E+00 0.  1.
         11    1    3    3    0    0  0.11802681320E+02 -0.11705834917E+02 -0.12549441276E+01  0.16670475173E+02  0.51100000000E-03 0. -1.
        -11    1    3    3    0    0  0.33172976931E+01  0.47443880010E+01 -0.28307924318E+01  0.64441498696E+01  0.51100000000E-03 0.  1.
        -12    1    3    3    0    0  0.19877739018E+02 -0.99143753340E+01  0.16066168893E+02  0.27414250485E+02  0.00000000000E+00 0.  1.
</event>
<event>
 7    1  0.5992960E-013  0.5052883E+02  0.7816164E-02  0.1300439E+00
        -11   -1    0    0    0    0  0.00000000000E+00  0.00000000000E+00  0.45593999997E+02  0.45594000000E+02  0.51100000000E-03 0.  1.
         11   -1    0    0    0    0 -0.00000000000E+00 -0.00000000000E+00 -0.45593999997E+02  0.45594000000E+02  0.51100000000E-03 0. -1.
    9900012    2    1    2    0    0  0.35874129000E+02  0.12911265438E+02  0.14124947299E+02  0.50528830764E+02  0.29999911591E+02 0.  0.
        -12    1    1    2    0    0 -0.35874129000E+02 -0.12911265438E+02 -0.14124947299E+02  0.40659169236E+02  0.00000000000E+00 0.  1.
         11    1    3    3    0    0 -0.14786711774E+01  0.48456154176E+01  0.47015292574E+01  0.69116448727E+01  0.51100000000E-03 0. -1.
        -11    1    3    3    0    0  0.88563885227E+00 -0.33023569951E+00  0.59617734367E+01  0.60362367884E+01  0.51100000000E-03 0.  1.
         12    1    3    3    0    0  0.36467161325E+02  0.83958857200E+01  0.34616446050E+01  0.37580949103E+02  0.00000000000E+00 0. -1.
</event>
<event>
 7    1  0.5992960E-013  0.5052887E+02  0.7816164E-02  0.1300439E+00
        -11   -1    0    0    0    0  0.00000000000E+00  0.00000000000E+00  0.45593999997E+02  0.45594000000E+02  0.51100000000E-03 0. -1.
         11   -1    0    0    0    0 -0.00000000000E+00 -0.00000000000E+00 -0.45593999997E+02  0.45594000000E+02  0.51100000000E-03 0.  1.
    9900012    2    1    2    0    0  0.15271150875E+02  0.15628936174E+00  0.37681994400E+02  0.50528866003E+02  0.30000018704E+02 0.  0.
        -12    1    1    2    0    0 -0.15271150875E+02 -0.15628936174E+00 -0.37681994400E+02  0.40659133997E+02  0.00000000000E+00 0.  1.
         11    1    3    3    0    0 -0.42098951828E+01  0.24347750043E+01  0.10018823695E+02  0.11136793760E+02  0.51100000000E-03 0. -1.
        -11    1    3    3    0    0  0.51567147987E+01 -0.10087289183E+02  0.81424667422E+01  0.13951518752E+02  0.51100000000E-03 0.  1.
        -12    1    3    3    0    0  0.14324331259E+02  0.78088035403E+01  0.19520703963E+02  0.25440553491E+02  0.00000000000E+00 0.  1.
</event>
<event>
 7    1  0.5992960E-013  0.5052886E+02  0.7816164E-02  0.1300439E+00
        -11   -1    0    0    0    0  0.00000000000E+00  0.00000000000E+00  0.45593999997E+02  0.45594000000E+02  0.51100000000E-03 0. -1.
         11   -1    0    0    0    0 -0.00000000000E+00 -0.00000000000E+00 -0.45593999997E+02  0.45594000000E+02  0.51100000000E-03 0.  1.
    9900012    2    1    2    0    0 -0.36699305064E+02  0.13436387896E+02 -0.11215627949E+02  0.50528858074E+02  0.29999994602E+02 0.  0.
        -12    1    1    2    0    0  0.36699305064E+02 -0.13436387896E+02  0.11215627949E+02  0.40659141926E+02  0.00000000000E+00 0.  1.
         11    1    3    3    0    0 -0.43549575553E+01  0.26224262665E+01 -0.56016033325E+01  0.75644388416E+01  0.51100000000E-03 0. -1.
        -11    1    3    3    0    0 -0.75238343498E+01  0.35803510570E+01 -0.13562046189E+02  0.15917163507E+02  0.51100000000E-03 0.  1.
         12    1    3    3    0    0 -0.24820513159E+02  0.72336105722E+01  0.79480215723E+01  0.27047255726E+02  0.00000000000E+00 0. -1.
</event>
<event>
 7    1  0.5992960E-013  0.5052886E+02  0.7816164E-02  0.1300439E+00
        -11   -1    0    0    0    0  0.00000000000E+00  0.00000000000E+00  0.45593999997E+02  0.45594000000E+02  0.51100000000E-03 0. -1.
         11   -1    0    0    0    0 -0.00000000000E+00 -0.00000000000E+00 -0.45593999997E+02  0.45594000000E+02  0.51100000000E-03 0.  1.
    9900012    2    1    2    0    0 -0.24592939618E+02 -0.30655189067E+02  0.10421722815E+02  0.50528860778E+02  0.30000002822E+02 0.  0.
        -12    1    1    2    0    0  0.24592939618E+02  0.30655189067E+02 -0.10421722815E+02  0.40659139222E+02  0.00000000000E+00 0.  1.
         11    1    3    3    0    0  0.11679830674E-01 -0.68824663909E+01  0.12035413274E+01  0.69869157737E+01  0.51100000000E-03 0. -1.
        -11    1    3    3    0    0 -0.15053189089E+02 -0.28144310262E+02  0.54315073201E+01  0.32375947460E+02  0.51100000000E-03 0.  1.
        -12    1    3    3    0    0 -0.95514303595E+01  0.43715875856E+01  0.37866741675E+01  0.11165997545E+02  0.00000000000E+00 0.  1.
</event>
<event>
 7    1  0.5992960E-013  0.5052885E+02  0.7816164E-02  0.1300439E+00
        -11   -1    0    0    0    0  0.00000000000E+00  0.00000000000E+00  0.45593999997E+02  0.45594000000E+02  0.51100000000E-03 0.  1.
         11   -1    0    0    0    0 -0.00000000000E+00 -0.00000000000E+00 -0.45593999997E+02  0.45594000000E+02  0.51100000000E-03 0. -1.
    9900012    2    1    2    0    0  0.14444839162E+02 -0.18842705904E+02 -0.33007052334E+02  0.50528850378E+02  0.29999971208E+02 0.  0.
        -12    1    1    2    0    0 -0.14444839162E+02  0.18842705904E+02  0.33007052334E+02  0.40659149622E+02  0.00000000000E+00 0.  1.
         11    1    3    3    0    0 -0.91676324525E+00 -0.34670186010E+01 -0.95075519903E+01  0.10161408265E+02  0.51100000000E-03 0. -1.
        -11    1    3    3    0    0  0.93759202230E+00 -0.35580250994E+01 -0.21272028954E+02  0.21587909521E+02  0.51100000000E-03 0.  1.
        -12    1    3    3    0    0  0.14424010385E+02 -0.11817662204E+02 -0.22274713898E+01  0.18779532591E+02  0.00000000000E+00 0.  1.
</event>
<event>
 7    1  0.9139899E-013  0.5052900E+02  0.7816164E-02  0.1300438E+00
        -11   -1    0    0    0    0  0.00000000000E+00  0.00000000000E+00  0.45593999997E+02  0.45594000000E+02  0.51100000000E-03 0. -1.
         11   -1    0    0    0    0 -0.00000000000E+00 -0.00000000000E+00 -0.45593999997E+02  0.45594000000E+02  0.51100000000E-03 0.  1.
    9900012    2    1    2    0    0  0.21860146119E+02 -0.32010993208E+02 -0.12271284960E+02  0.50529002114E+02  0.30000432422E+02 0.  0.
        -12    1    1    2    0    0 -0.21860146119E+02  0.32010993208E+02  0.12271284960E+02  0.40658997886E+02  0.00000000000E+00 0.  1.
         11    1    3    3    0    0  0.19272019426E+02 -0.13370101577E+02 -0.10457429728E+02  0.25681280843E+02  0.51100000000E-03 0. -1.
        -11    1    3    3    0    0  0.21185935044E+01 -0.63518665422E+00 -0.59666195264E+01  0.63633677684E+01  0.51100000000E-03 0.  1.
         12    1    3    3    0    0  0.46953318874E+00 -0.18005704977E+02  0.41527642939E+01  0.18484353503E+02  0.00000000000E+00 0. -1.
</event>
<event>
 7    1  0.5992960E-013  0.5052886E+02  0.7816164E-02  0.1300439E+00
        -11   -1    0    0    0    0  0.00000000000E+00  0.00000000000E+00  0.45593999997E+02  0.45594000000E+02  0.51100000000E-03 0. -1.
         11   -1    0    0    0    0 -0.00000000000E+00 -0.00000000000E+00 -0.45593999997E+02  0.45594000000E+02  0.51100000000E-03 0.  1.
    9900012    2    1    2    0    0 -0.41735588287E+01  0.40118567342E+02 -0.51232619011E+01  0.50528857715E+02  0.29999993511E+02 0.  0.
        -12    1    1    2    0    0  0.41735588287E+01 -0.40118567342E+02  0.51232619011E+01  0.40659142285E+02  0.00000000000E+00 0.  1.
         11    1    3    3    0    0 -0.66078819037E+01  0.29338950326E+02  0.15920640750E+01  0.30115988739E+02  0.51100000000E-03 0. -1.
        -11    1    3    3    0    0 -0.39087098397E+01  0.47172373098E+00  0.29535422810E+01  0.49217830261E+01  0.51100000000E-03 0.  1.
        -12    1    3    3    0    0  0.63430329147E+01  0.10307893285E+02 -0.96688682571E+01  0.15491085950E+02  0.00000000000E+00 0.  1.
</event>
<event>
 7    1  0.5992960E-013  0.5052886E+02  0.7816164E-02  0.1300439E+00
        -11   -1    0    0    0    0  0.00000000000E+00  0.00000000000E+00  0.45593999997E+02  0.45594000000E+02  0.51100000000E-03 0. -1.
         11   -1    0    0    0    0 -0.00000000000E+00 -0.00000000000E+00 -0.45593999997E+02  0.45594000000E+02  0.51100000000E-03 0.  1.
    9900012    2    1    2    0    0  0.13862813167E+01 -0.35899484500E+02  0.19038665652E+02  0.50528861383E+02  0.30000004661E+02 0.  0.
        -12    1    1    2    0    0 -0.13862813167E+01  0.35899484500E+02 -0.19038665652E+02  0.40659138617E+02  0.00000000000E+00 0.  1.
         11    1    3    3    0    0  0.14375264377E+01 -0.22679461433E+02  0.18545396485E+02  0.29331828859E+02  0.51100000000E-03 0. -1.
        -11    1    3    3    0    0  0.34282328018E+01 -0.13898132798E+02  0.52653250380E+01  0.15252361241E+02  0.51100000000E-03 0.  1.
        -12    1    3    3    0    0 -0.34794779228E+01  0.67810973108E+00 -0.47720558718E+01  0.59446712833E+01  0.00000000000E+00 0.  1.
</event>
<event>
 7    1  0.5992960E-013  0.5052886E+02  0.7816164E-02  0.1300439E+00
        -11   -1    0    0    0    0  0.00000000000E+00  0.00000000000E+00  0.45593999997E+02  0.45594000000E+02  0.51100000000E-03 0.  1.
         11   -1    0    0    0    0 -0.00000000000E+00 -0.00000000000E+00 -0.45593999997E+02  0.45594000000E+02  0.51100000000E-03 0. -1.
    9900012    2    1    2    0    0 -0.73913095614E+01  0.32394657812E+01 -0.39850216056E+02  0.50528864307E+02  0.30000013547E+02 0.  0.
        -12    1    1    2    0    0  0.73913095614E+01 -0.32394657812E+01  0.39850216056E+02  0.40659135693E+02  0.00000000000E+00 0.  1.
         11    1    3    3    0    0 -0.98886376611E+01  0.82172700997E+01 -0.15634347148E+02  0.20242072366E+02  0.51100000000E-03 0. -1.
        -11    1    3    3    0    0 -0.55794677810E+01  0.21906498997E+01 -0.35421983396E+01  0.69625122651E+01  0.51100000000E-03 0.  1.
        -12    1    3    3    0    0  0.80767958806E+01 -0.71684542182E+01 -0.20673670569E+02  0.23324279675E+02  0.00000000000E+00 0.  1.
</event>
<event>
 7    1  0.5992960E-013  0.5052885E+02  0.7816164E-02  0.1300439E+00
        -11   -1    0    0    0    0  0.00000000000E+00  0.00000000000E+00  0.45593999997E+02  0.45594000000E+02  0.51100000000E-03 0.  1.
         11   -1    0    0    0    0 -0.00000000000E+00 -0.00000000000E+00 -0.45593999997E+02  0.45594000000E+02  0.51100000000E-03 0. -1.
    9900012    2    1    2    0    0 -0.57470268927E+01 -0.25688692089E+02 -0.30987564252E+02  0.50528851489E+02  0.29999974587E+02 0.  0.
        -12    1    1    2    0    0  0.57470268927E+01  0.25688692089E+02  0.30987564252E+02  0.40659148511E+02  0.00000000000E+00 0.  1.
         11    1    3    3    0    0 -0.67986617107E+01 -0.21837502375E+02 -0.55749860298E+01  0.23541002114E+02  0.51100000000E-03 0. -1.
        -11    1    3    3    0    0  0.34051053641E+01 -0.34801685958E+01 -0.76623203934E+01  0.90784068023E+01  0.51100000000E-03 0.  1.
        -12    1    3    3    0    0 -0.23534705462E+01 -0.37102111807E+00 -0.17750257829E+02  0.17909442573E+02  0.00000000000E+00 0.  1.
</event>
<event>
 7    1  0.5992960E-013  0.5052885E+02  0.7816164E-02  0.1300439E+00
        -11   -1    0    0    0    0  0.00000000000E+00  0.00000000000E+00  0.45593999997E+02  0.45594000000E+02  0.51100000000E-03 0.  1.
         11   -1    0    0    0    0 -0.00000000000E+00 -0.00000000000E+00 -0.45593999997E+02  0.45594000000E+02  0.51100000000E-03 0. -1.
    9900012    2    1    2    0    0 -0.24738734131E+02 -0.10470625256E+02 -0.30520938210E+02  0.50528848154E+02  0.29999964448E+02 0.  0.
        -12    1    1    2    0    0  0.24738734131E+02  0.10470625256E+02  0.30520938210E+02  0.40659151846E+02  0.00000000000E+00 0.  1.
         11    1    3    3    0    0  0.18002698479E+01 -0.61971721846E+01 -0.12416942732E+01  0.65717364174E+01  0.51100000000E-03 0. -1.
        -11    1    3    3    0    0 -0.81733516809E+00 -0.66719133019E+01 -0.40481361900E+01  0.78466471030E+01  0.51100000000E-03 0.  1.
         12    1    3    3    0    0 -0.25721668811E+02  0.23984602306E+01 -0.25231107747E+02  0.36110464633E+02  0.00000000000E+00 0. -1.
</event>
<event>
 7    1  0.5992960E-013  0.5052887E+02  0.7816164E-02  0.1300439E+00
        -11   -1    0    0    0    0  0.00000000000E+00  0.00000000000E+00  0.45593999997E+02  0.45594000000E+02  0.51100000000E-03 0.  1.
         11   -1    0    0    0    0 -0.00000000000E+00 -0.00000000000E+00 -0.45593999997E+02  0.45594000000E+02  0.51100000000E-03 0. -1.
    9900012    2    1    2    0    0 -0.15617946642E+02  0.28060172288E+02 -0.24937351582E+02  0.50528867814E+02  0.30000024209E+02 0.  0.
        -12    1    1    2    0    0  0.15617946642E+02 -0.28060172288E+02  0.24937351582E+02  0.40659132186E+02  0.00000000000E+00 0.  1.
         11    1    3    3    0    0 -0.95475147832E+01  0.16991433571E+02  0.26897899840E+00  0.19491952270E+02  0.51100000000E-03 0. -1.
        -11    1    3    3    0    0  0.22988086799E+00  0.75581201336E+01 -0.38292202300E+01  0.84759042585E+01  0.51100000000E-03 0.  1.
        -12    1    3    3    0    0 -0.63003127267E+01  0.35106185831E+01 -0.21377110351E+02  0.22561011286E+02  0.00000000000E+00 0.  1.
</event>
<event>
 7    1  0.5992960E-013  0.5052886E+02  0.7816164E-02  0.1300439E+00
        -11   -1    0    0    0    0  0.00000000000E+00  0.00000000000E+00  0.45593999997E+02  0.45594000000E+02  0.51100000000E-03 0.  1.
         11   -1    0    0    0    0 -0.00000000000E+00 -0.00000000000E+00 -0.45593999997E+02  0.45594000000E+02  0.51100000000E-03 0. -1.
    9900012    2    1    2    0    0  0.30821373004E+01 -0.20296639133E+02 -0.35095758948E+02  0.50528862939E+02  0.30000009388E+02 0.  0.
        -12    1    1    2    0    0 -0.30821373004E+01  0.20296639133E+02  0.35095758948E+02  0.40659137061E+02  0.00000000000E+00 0.  1.
         11    1    3    3    0    0 -0.41358231438E+00 -0.52898044815E+01 -0.25109862079E+01  0.58701050911E+01  0.51100000000E-03 0. -1.
        -11    1    3    3    0    0 -0.30267114613E+01 -0.21219863031E+02 -0.24521097775E+02  0.32568816461E+02  0.51100000000E-03 0.  1.
        -12    1    3    3    0    0  0.65224310762E+01  0.62130283794E+01 -0.80636749647E+01  0.12089941386E+02  0.00000000000E+00 0.  1.
</event>
<event>
 7    1  0.5992960E-013  0.5052899E+02  0.7816164E-02  0.1300438E+00
        -11   -1    0    0    0    0  0.00000000000E+00  0.00000000000E+00  0.45593999997E+02  0.45594000000E+02  0.51100000000E-03 0. -1.
         11   -1    0    0    0    0 -0.00000000000E+00 -0.00000000000E+00 -0.45593999997E+02  0.45594000000E+02  0.51100000000E-03 0.  1.
    9900012    2    1    2    0    0 -0.39784380238E+02 -0.77553472367E+01  0.31957227431E+01  0.50528991582E+02  0.30000400409E+02 0.  0.
        -12    1    1    2    0    0  0.39784380238E+02  0.77553472367E+01 -0.31957227431E+01  0.40659008418E+02  0.00000000000E+00 0.  1.
         11    1    3    3    0    0 -0.67613963077E+01  0.36501705443E+01 -0.73843445300E+01  0.10656864897E+02  0.51100000000E-03 0. -1.
        -11    1    3    3    0    0 -0.27712595145E+00 -0.36974536134E+01 -0.16749938064E+01  0.40686074434E+01  0.51100000000E-03 0.  1.
         12    1    3    3    0    0 -0.32745857979E+02 -0.77080641677E+01  0.12255061079E+02  0.35803519241E+02  0.00000000000E+00 0. -1.
</event>
<event>
 7    1  0.5992960E-013  0.5052884E+02  0.7816164E-02  0.1300439E+00
        -11   -1    0    0    0    0  0.00000000000E+00  0.00000000000E+00  0.45593999997E+02  0.45594000000E+02  0.51100000000E-03 0.  1.
         11   -1    0    0    0    0 -0.00000000000E+00 -0.00000000000E+00 -0.45593999997E+02  0.45594000000E+02  0.51100000000E-03 0. -1.
    9900012    2    1    2    0    0 -0.37081342108E+02  0.74285333365E+01 -0.14931773445E+02  0.50528844840E+02  0.29999954377E+02 0.  0.
        -12    1    1    2    0    0  0.37081342108E+02 -0.74285333365E+01  0.14931773445E+02  0.40659155160E+02  0.00000000000E+00 0.  1.
         11    1    3    3    0    0 -0.27551934411E+02 -0.20706427242E+01 -0.74429855885E+01  0.28614588688E+02  0.51100000000E-03 0. -1.
        -11    1    3    3    0    0 -0.13323712389E+02  0.43655530769E+01 -0.65014505567E+01  0.15454715303E+02  0.51100000000E-03 0.  1.
        -12    1    3    3    0    0  0.37943046920E+01  0.51336229838E+01 -0.98733729978E+00  0.64595408489E+01  0.00000000000E+00 0.  1.
</event>
<event>
 7    1  0.5992960E-013  0.5052886E+02  0.7816164E-02  0.1300439E+00
        -11   -1    0    0    0    0  0.00000000000E+00  0.00000000000E+00  0.45593999997E+02  0.45594000000E+02  0.51100000000E-03 0.  1.
         11   -1    0    0    0    0 -0.00000000000E+00 -0.00000000000E+00 -0.45593999997E+02  0.45594000000E+02  0.51100000000E-03 0. -1.
    9900012    2    1    2    0    0  0.30411764055E+01  0.71138057518E+01 -0.39916296229E+02  0.50528859689E+02  0.29999999511E+02 0.  0.
        -12    1    1    2    0    0 -0.30411764055E+01 -0.71138057518E+01  0.39916296229E+02  0.40659140311E+02  0.00000000000E+00 0.  1.
         11    1    3    3    0    0 -0.44856546566E+01 -0.49759624421E+01 -0.25437305784E+01  0.71660215908E+01  0.51100000000E-03 0. -1.
        -11    1    3    3    0    0  0.16715972650E+01  0.75694713471E+01 -0.31790992236E+01  0.83784130971E+01  0.51100000000E-03 0.  1.
         12    1    3    3    0    0  0.58552337971E+01  0.45202968469E+01 -0.34193466427E+02  0.34984425001E+02  0.00000000000E+00 0. -1.
</event>
<event>
 7    1  0.5992960E-013  0.5052886E+02  0.7816164E-02  0.1300439E+00
        -11   -1    0    0    0    0  0.00000000000E+00  0.00000000000E+00  0.45593999997E+02  0.45594000000E+02  0.51100000000E-03 0. -1.
         11   -1    0    0    0    0 -0.00000000000E+00 -0.00000000000E+00 -0.45593999997E+02  0.45594000000E+02  0.51100000000E-03 0.  1.
    9900012    2    1    2    0    0  0.39866803750E+02 -0.64045283621E+01 -0.47734294903E+01  0.50528860143E+02  0.30000000891E+02 0.  0.
        -12    1    1    2    0    0 -0.39866803750E+02  0.64045283621E+01  0.47734294903E+01  0.40659139857E+02  0.00000000000E+00 0.  1.
         11    1    3    3    0    0  0.65787312298E+01 -0.12411977948E+02  0.25362842740E+01  0.14274790343E+02  0.51100000000E-03 0. -1.
        -11    1    3    3    0    0  0.64170560516E+01 -0.28566499321E+01 -0.29768998682E+01  0.76289573528E+01  0.51100000000E-03 0.  1.
        -12    1    3    3    0    0  0.26871016469E+02  0.88640995178E+01 -0.43328138961E+01  0.28625112447E+02  0.00000000000E+00 0.  1.
</event>
<event>
 7    1  0.5992960E-013  0.5052886E+02  0.7816164E-02  0.1300439E+00
        -11   -1    0    0    0    0  0.00000000000E+00  0.00000000000E+00  0.45593999997E+02  0.45594000000E+02  0.51100000000E-03 0.  1.
         11   -1    0    0    0    0 -0.00000000000E+00 -0.00000000000E+00 -0.45593999997E+02  0.45594000000E+02  0.51100000000E-03 0. -1.
    9900012    2    1    2    0    0 -0.14423024513E+02  0.54317821691E+01 -0.37624962531E+02  0.50528859588E+02  0.29999999203E+02 0.  0.
        -12    1    1    2    0    0  0.14423024513E+02 -0.54317821691E+01  0.37624962531E+02  0.40659140412E+02  0.00000000000E+00 0.  1.
         11    1    3    3    0    0 -0.90163839475E+00  0.53773553075E+01 -0.46813595222E+01  0.71863780261E+01  0.51100000000E-03 0. -1.
        -11    1    3    3    0    0 -0.10692053946E+02  0.41540625193E+01 -0.15720010726E+01  0.11577885844E+02  0.51100000000E-03 0.  1.
         12    1    3    3    0    0 -0.28293321720E+01 -0.40996356576E+01 -0.31371601936E+02  0.31764595717E+02  0.00000000000E+00 0. -1.
</event>
<event>
 7    1  0.5992960E-013  0.5052877E+02  0.7816164E-02  0.1300439E+00
        -11   -1    0    0    0    0  0.00000000000E+00  0.00000000000E+00  0.45593999997E+02  0.45594000000E+02  0.51100000000E-03 0.  1.
         11   -1    0    0    0    0 -0.00000000000E+00 -0.00000000000E+00 -0.45593999997E+02  0.45594000000E+02  0.51100000000E-03 0. -1.
    9900012    2    1    2    0    0  0.13774515988E+01 -0.24593028269E+02 -0.32349007163E+02  0.50528773780E+02  0.29999738381E+02 0.  0.
        -12    1    1    2    0    0 -0.13774515988E+01  0.24593028269E+02  0.32349007163E+02  0.40659226220E+02  0.00000000000E+00 0.  1.
         11    1    3    3    0    0  0.31796132111E+01 -0.10447746741E+02 -0.45447248742E+01  0.11828773249E+02  0.51100000000E-03 0. -1.
        -11    1    3    3    0    0 -0.50987273606E+01 -0.11913809929E+02 -0.26430294160E+01  0.13225788917E+02  0.51100000000E-03 0.  1.
         12    1    3    3    0    0  0.32965657484E+01 -0.22314715996E+01 -0.25161252873E+02  0.25474211614E+02  0.00000000000E+00 0. -1.
</event>
<event>
 7    1  0.5992960E-013  0.5052886E+02  0.7816164E-02  0.1300439E+00
        -11   -1    0    0    0    0  0.00000000000E+00  0.00000000000E+00  0.45593999997E+02  0.45594000000E+02  0.51100000000E-03 0. -1.
         11   -1    0    0    0    0 -0.00000000000E+00 -0.00000000000E+00 -0.45593999997E+02  0.45594000000E+02  0.51100000000E-03 0.  1.
    9900012    2    1    2    0    0  0.19421333517E+02  0.35715865252E+02  0.59531469343E+00  0.50528860488E+02  0.30000001938E+02 0.  0.
        -12    1    1    2    0    0 -0.19421333517E+02 -0.35715865252E+02 -0.59531469343E+00  0.40659139512E+02  0.00000000000E+00 0.  1.
         11    1    3    3    0    0  0.71304919361E+00  0.10037363887E+02  0.21898902951E+01  0.10298190750E+02  0.51100000000E-03 0. -1.
        -11    1    3    3    0    0  0.45783993824E+01  0.24188038673E+02 -0.60316505195E+01  0.25345685314E+02  0.51100000000E-03 0.  1.
        -12    1    3    3    0    0  0.14129884941E+02  0.14904626922E+01  0.44370749178E+01  0.14884984424E+02  0.00000000000E+00 0.  1.
</event>
<event>
 7    1  0.5992960E-013  0.5052884E+02  0.7816164E-02  0.1300439E+00
        -11   -1    0    0    0    0  0.00000000000E+00  0.00000000000E+00  0.45593999997E+02  0.45594000000E+02  0.51100000000E-03 0.  1.
         11   -1    0    0    0    0 -0.00000000000E+00 -0.00000000000E+00 -0.45593999997E+02  0.45594000000E+02  0.51100000000E-03 0. -1.
    9900012    2    1    2    0    0 -0.32875021094E+02 -0.12102462573E+02 -0.20638080226E+02  0.50528843988E+02  0.29999951785E+02 0.  0.
        -12    1    1    2    0    0  0.32875021094E+02  0.12102462573E+02  0.20638080226E+02  0.40659156012E+02  0.00000000000E+00 0.  1.
         11    1    3    3    0    0 -0.70924436007E+01  0.24487928195E+01 -0.10132006766E+02  0.12607811225E+02  0.51100000000E-03 0. -1.
        -11    1    3    3    0    0 -0.27066389464E+02 -0.68278572017E+01 -0.50230475900E+01  0.28362652907E+02  0.51100000000E-03 0.  1.
        -12    1    3    3    0    0  0.12838119710E+01 -0.77233981906E+01 -0.54830258695E+01  0.95583798561E+01  0.00000000000E+00 0.  1.
</event>
<event>
 7    1  0.5992960E-013  0.5052886E+02  0.7816164E-02  0.1300439E+00
        -11   -1    0    0    0    0  0.00000000000E+00  0.00000000000E+00  0.45593999997E+02  0.45594000000E+02  0.51100000000E-03 0.  1.
         11   -1    0    0    0    0 -0.00000000000E+00 -0.00000000000E+00 -0.45593999997E+02  0.45594000000E+02  0.51100000000E-03 0. -1.
    9900012    2    1    2    0    0  0.79867542638E+01  0.21833912323E+02 -0.33356518524E+02  0.50528864507E+02  0.30000014156E+02 0.  0.
        -12    1    1    2    0    0 -0.79867542638E+01 -0.21833912323E+02  0.33356518524E+02  0.40659135493E+02  0.00000000000E+00 0.  1.
         11    1    3    3    0    0  0.49348471935E+01  0.15594050964E+02 -0.19704707009E+02  0.25608643480E+02  0.51100000000E-03 0. -1.
        -11    1    3    3    0    0  0.72285285812E+01  0.41600640138E+01 -0.17162175624E+02  0.19081352951E+02  0.51100000000E-03 0.  1.
         12    1    3    3    0    0 -0.41766215108E+01  0.20797973443E+01  0.35103641087E+01  0.58388680764E+01  0.00000000000E+00 0. -1.
</event>
<event>
 7    1  0.5992960E-013  0.5052887E+02  0.7816164E-02  0.1300439E+00
        -11   -1    0    0    0    0  0.00000000000E+00  0.00000000000E+00  0.45593999997E+02  0.45594000000E+02  0.51100000000E-03 0.  1.
         11   -1    0    0    0    0 -0.00000000000E+00 -0.00000000000E+00 -0.45593999997E+02  0.45594000000E+02  0.51100000000E-03 0. -1.
    9900012    2    1    2    0    0 -0.62142450015E+01 -0.21812009445E+02 -0.33745883230E+02  0.50528865332E+02  0.30000016663E+02 0.  0.
        -12    1    1    2    0    0  0.62142450015E+01  0.21812009445E+02  0.33745883230E+02  0.40659134668E+02  0.00000000000E+00 0.  1.
         11    1    3    3    0    0 -0.41829404931E+00  0.65096287088E+00  0.24327085744E+01  0.25528011752E+01  0.51100000000E-03 0. -1.
        -11    1    3    3    0    0 -0.25995966551E+01 -0.57841165249E+01  0.16136552886E+01  0.65435304228E+01  0.51100000000E-03 0.  1.
         12    1    3    3    0    0 -0.31963542971E+01 -0.16678855791E+02 -0.37792247093E+02  0.41432533734E+02  0.00000000000E+00 0. -1.
</event>
<event>
 7    1  0.5992960E-013  0.5052885E+02  0.7816164E-02  0.1300439E+00
        -11   -1    0    0    0    0  0.00000000000E+00  0.00000000000E+00  0.45593999997E+02  0.45594000000E+02  0.51100000000E-03 0.  1.
         11   -1    0    0    0    0 -0.00000000000E+00 -0.00000000000E+00 -0.45593999997E+02  0.45594000000E+02  0.51100000000E-03 0. -1.
    9900012    2    1    2    0    0  0.29477216291E+02 -0.16669679391E+02 -0.22502927789E+02  0.50528852809E+02  0.29999978597E+02 0.  0.
        -12    1    1    2    0    0 -0.29477216291E+02  0.16669679391E+02  0.22502927789E+02  0.40659147191E+02  0.00000000000E+00 0.  1.
         11    1    3    3    0    0  0.11154143515E+02 -0.10616705661E+01 -0.47311646085E+01  0.12162482508E+02  0.51100000000E-03 0. -1.
        -11    1    3    3    0    0  0.95533405586E+01  0.38049931298E+01  0.50895208113E+00  0.10295791423E+02  0.51100000000E-03 0.  1.
         12    1    3    3    0    0  0.87697322175E+01 -0.19413001954E+02 -0.18280715261E+02  0.28070578877E+02  0.00000000000E+00 0. -1.
</event>
<event>
 7    1  0.5992960E-013  0.5052885E+02  0.7816164E-02  0.1300439E+00
        -11   -1    0    0    0    0  0.00000000000E+00  0.00000000000E+00  0.45593999997E+02  0.45594000000E+02  0.51100000000E-03 0. -1.
         11   -1    0    0    0    0 -0.00000000000E+00 -0.00000000000E+00 -0.45593999997E+02  0.45594000000E+02  0.51100000000E-03 0.  1.
    9900012    2    1    2    0    0 -0.25738241162E+02  0.29110303772E+02  0.11970768525E+02  0.50528854130E+02  0.29999982613E+02 0.  0.
        -12    1    1    2    0    0  0.25738241162E+02 -0.29110303772E+02 -0.11970768525E+02  0.40659145870E+02  0.00000000000E+00 0.  1.
         11    1    3    3    0    0 -0.91756006176E+01  0.19608533276E+02  0.78004758881E+01  0.23011598125E+02  0.51100000000E-03 0. -1.
        -11    1    3    3    0    0  0.27696953926E+01  0.22656585013E+01  0.57954882198E+01  0.68111750072E+01  0.51100000000E-03 0.  1.
        -12    1    3    3    0    0 -0.19332335937E+02  0.72361119944E+01 -0.16251955832E+01  0.20706080997E+02  0.00000000000E+00 0.  1.
</event>
<event>
 7    1  0.5992960E-013  0.5052886E+02  0.7816164E-02  0.1300439E+00
        -11   -1    0    0    0    0  0.00000000000E+00  0.00000000000E+00  0.45593999997E+02  0.45594000000E+02  0.51100000000E-03 0.  1.
         11   -1    0    0    0    0 -0.00000000000E+00 -0.00000000000E+00 -0.45593999997E+02  0.45594000000E+02  0.51100000000E-03 0. -1.
    9900012    2    1    2    0    0 -0.15082863449E+02  0.89975863047E+01 -0.36670376780E+02  0.50528857580E+02  0.29999993102E+02 0.  0.
        -12    1    1    2    0    0  0.15082863449E+02 -0.89975863047E+01  0.36670376780E+02  0.40659142420E+02  0.00000000000E+00 0.  1.
         11    1    3    3    0    0 -0.10030806605E+02  0.35350681746E+01 -0.26094025646E+02  0.28178217879E+02  0.51100000000E-03 0. -1.
        -11    1    3    3    0    0 -0.40828644897E+01  0.94340798204E+01 -0.13755248947E+02  0.17172027205E+02  0.51100000000E-03 0.  1.
         12    1    3    3    0    0 -0.96919235351E+00 -0.39715616904E+01  0.31788978130E+01  0.51786124960E+01  0.00000000000E+00 0. -1.
</event>
<event>
 7    1  0.1309575E-012  0.5052887E+02  0.7816164E-02  0.1300439E+00
        -11   -1    0    0    0    0  0.00000000000E+00  0.00000000000E+00  0.45593999997E+02  0.45594000000E+02  0.51100000000E-03 0. -1.
         11   -1    0    0    0    0 -0.00000000000E+00 -0.00000000000E+00 -0.45593999997E+02  0.45594000000E+02  0.51100000000E-03 0.  1.
    9900012    2    1    2    0    0 -0.33820324626E+02 -0.74644919581E+01  0.21298641670E+02  0.50528866524E+02  0.30000020287E+02 0.  0.
        -12    1    1    2    0    0  0.33820324626E+02  0.74644919581E+01 -0.21298641670E+02  0.40659133476E+02  0.00000000000E+00 0.  1.
         11    1    3    3    0    0 -0.12779032871E+02 -0.25030681428E+00  0.18144760916E+02  0.22194564280E+02  0.51100000000E-03 0. -1.
        -11    1    3    3    0    0  0.24412692700E+01 -0.48292861831E+00 -0.22052620646E+01  0.33250859739E+01  0.51100000000E-03 0.  1.
         12    1    3    3    0    0 -0.23482561025E+02 -0.67312565255E+01  0.53591428187E+01  0.25009216270E+02  0.00000000000E+00 0. -1.
</event>
<event>
 7    1  0.5992960E-013  0.5052885E+02  0.7816164E-02  0.1300439E+00
        -11   -1    0    0    0    0  0.00000000000E+00  0.00000000000E+00  0.45593999997E+02  0.45594000000E+02  0.51100000000E-03 0.  1.
         11   -1    0    0    0    0 -0.00000000000E+00 -0.00000000000E+00 -0.45593999997E+02  0.45594000000E+02  0.51100000000E-03 0. -1.
    9900012    2    1    2    0    0  0.25820200866E+02 -0.30186121688E+02  0.86764832537E+01  0.50528854940E+02  0.29999985077E+02 0.  0.
        -12    1    1    2    0    0 -0.25820200866E+02  0.30186121688E+02 -0.86764832537E+01  0.40659145060E+02  0.00000000000E+00 0.  1.
         11    1    3    3    0    0  0.84559904553E+01 -0.48706908418E+01 -0.40931436394E+01  0.10582118359E+02  0.51100000000E-03 0. -1.
        -11    1    3    3    0    0  0.69140008607E+00  0.37389242893E+01  0.35521322496E+01  0.52033866567E+01  0.51100000000E-03 0.  1.
         12    1    3    3    0    0  0.16672810325E+02 -0.29054355135E+02  0.92174946435E+01  0.34743349924E+02  0.00000000000E+00 0. -1.
</event>
<event>
 7    1  0.5992960E-013  0.5052886E+02  0.7816164E-02  0.1300439E+00
        -11   -1    0    0    0    0  0.00000000000E+00  0.00000000000E+00  0.45593999997E+02  0.45594000000E+02  0.51100000000E-03 0.  1.
         11   -1    0    0    0    0 -0.00000000000E+00 -0.00000000000E+00 -0.45593999997E+02  0.45594000000E+02  0.51100000000E-03 0. -1.
    9900012    2    1    2    0    0  0.40358442572E+02  0.49332650991E+01  0.15748870084E+00  0.50528858419E+02  0.29999995651E+02 0.  0.
        -12    1    1    2    0    0 -0.40358442572E+02 -0.49332650991E+01 -0.15748870084E+00  0.40659141581E+02  0.00000000000E+00 0.  1.
         11    1    3    3    0    0  0.34446333889E+02 -0.74413657325E+01  0.47428212235E+01  0.35558658521E+02  0.51100000000E-03 0. -1.
        -11    1    3    3    0    0  0.19385252435E+01  0.11373728293E+01 -0.14985758771E+00  0.22525440351E+01  0.51100000000E-03 0.  1.
         12    1    3    3    0    0  0.39735834392E+01  0.11237258002E+02 -0.44354749350E+01  0.12717655863E+02  0.00000000000E+00 0. -1.
</event>
<event>
 7    1  0.5992960E-013  0.5052890E+02  0.7816164E-02  0.1300439E+00
        -11   -1    0    0    0    0  0.00000000000E+00  0.00000000000E+00  0.45593999997E+02  0.45594000000E+02  0.51100000000E-03 0.  1.
         11   -1    0    0    0    0 -0.00000000000E+00 -0.00000000000E+00 -0.45593999997E+02  0.45594000000E+02  0.51100000000E-03 0. -1.
    9900012    2    1    2    0    0  0.27000987803E+02  0.11851441829E+02 -0.27993788051E+02  0.50528902799E+02  0.30000130548E+02 0.  0.
        -12    1    1    2    0    0 -0.27000987803E+02 -0.11851441829E+02  0.27993788051E+02  0.40659097201E+02  0.00000000000E+00 0.  1.
         11    1    3    3    0    0  0.71565814141E+01  0.85563690272E+00 -0.51981692550E+01  0.88864917662E+01  0.51100000000E-03 0.  1.
        -11    1    3    3    0    0  0.24954870522E+02  0.14041911479E+02 -0.16814164624E+02  0.33205977971E+02  0.51100000000E-03 0. -1.
         12    1    3    3    0    0 -0.51104641334E+01 -0.30461065527E+01 -0.59814541722E+01  0.84364330616E+01  0.00000000000E+00 0. -1.
</event>
<event>
 7    1  0.6661900E-013  0.5052886E+02  0.7816164E-02  0.1300439E+00
        -11   -1    0    0    0    0  0.00000000000E+00  0.00000000000E+00  0.45593999997E+02  0.45594000000E+02  0.51100000000E-03 0.  1.
         11   -1    0    0    0    0 -0.00000000000E+00 -0.00000000000E+00 -0.45593999997E+02  0.45594000000E+02  0.51100000000E-03 0. -1.
    9900012    2    1    2    0    0 -0.23312815863E+02  0.32555721007E+02 -0.70571479920E+01  0.50528859680E+02  0.29999999483E+02 0.  0.
        -12    1    1    2    0    0  0.23312815863E+02 -0.32555721007E+02  0.70571479920E+01  0.40659140320E+02  0.00000000000E+00 0.  1.
         11    1    3    3    0    0 -0.63496020364E+01  0.18423811882E+02 -0.42766486641E+01  0.19951040432E+02  0.51100000000E-03 0. -1.
        -11    1    3    3    0    0  0.38777339701E+01  0.77283345457E+01 -0.63243514288E+00  0.86697145319E+01  0.51100000000E-03 0.  1.
         12    1    3    3    0    0 -0.20840947797E+02  0.64035745800E+01 -0.21480641851E+01  0.21908104716E+02  0.00000000000E+00 0. -1.
</event>
<event>
 7    1  0.5992960E-013  0.5052887E+02  0.7816164E-02  0.1300439E+00
        -11   -1    0    0    0    0  0.00000000000E+00  0.00000000000E+00  0.45593999997E+02  0.45594000000E+02  0.51100000000E-03 0. -1.
         11   -1    0    0    0    0 -0.00000000000E+00 -0.00000000000E+00 -0.45593999997E+02  0.45594000000E+02  0.51100000000E-03 0.  1.
    9900012    2    1    2    0    0 -0.10606345800E+00 -0.33307815830E+02  0.23318290078E+02  0.50528874370E+02  0.30000044136E+02 0.  0.
        -12    1    1    2    0    0  0.10606345800E+00  0.33307815830E+02 -0.23318290078E+02  0.40659125630E+02  0.00000000000E+00 0.  1.
         11    1    3    3    0    0 -0.66368185034E+00 -0.17625371395E+01 -0.24743631239E+01  0.31095793762E+01  0.51100000000E-03 0. -1.
        -11    1    3    3    0    0 -0.70453693658E+01  0.29898241183E+00  0.45971301564E+01  0.84178516213E+01  0.51100000000E-03 0.  1.
         12    1    3    3    0    0  0.76029877581E+01 -0.31844261102E+02  0.21195523046E+02  0.39001443373E+02  0.00000000000E+00 0. -1.
</event>
<event>
 7    1  0.5992960E-013  0.5052886E+02  0.7816164E-02  0.1300439E+00
        -11   -1    0    0    0    0  0.00000000000E+00  0.00000000000E+00  0.45593999997E+02  0.45594000000E+02  0.51100000000E-03 0.  1.
         11   -1    0    0    0    0 -0.00000000000E+00 -0.00000000000E+00 -0.45593999997E+02  0.45594000000E+02  0.51100000000E-03 0. -1.
    9900012    2    1    2    0    0 -0.24603848204E+02 -0.11960532391E+02 -0.30079266477E+02  0.50528856461E+02  0.29999989698E+02 0.  0.
        -12    1    1    2    0    0  0.24603848204E+02  0.11960532391E+02  0.30079266477E+02  0.40659143539E+02  0.00000000000E+00 0.  1.
         11    1    3    3    0    0  0.88397078799E+00 -0.52944664324E+01 -0.69684541737E+01  0.87961430747E+01  0.51100000000E-03 0. -1.
        -11    1    3    3    0    0 -0.79220802514E+01 -0.12879788612E+02 -0.15355250504E+02  0.21550685105E+02  0.51100000000E-03 0.  1.
        -12    1    3    3    0    0 -0.17565738740E+02  0.62137226533E+01 -0.77555617998E+01  0.20182028281E+02  0.00000000000E+00 0.  1.
</event>
<event>
 7    1  0.5992960E-013  0.5052885E+02  0.7816164E-02  0.1300439E+00
        -11   -1    0    0    0    0  0.00000000000E+00  0.00000000000E+00  0.45593999997E+02  0.45594000000E+02  0.51100000000E-03 0. -1.
         11   -1    0    0    0    0 -0.00000000000E+00 -0.00000000000E+00 -0.45593999997E+02  0.45594000000E+02  0.51100000000E-03 0.  1.
    9900012    2    1    2    0    0 -0.59647651478E+01 -0.20310140142E+02  0.34714352425E+02  0.50528849983E+02  0.29999970007E+02 0.  0.
        -12    1    1    2    0    0  0.59647651478E+01  0.20310140142E+02 -0.34714352425E+02  0.40659150017E+02  0.00000000000E+00 0.  1.
         11    1    3    3    0    0 -0.66771013908E+01 -0.10928449060E+01 -0.14196482997E+01  0.69132766853E+01  0.51100000000E-03 0. -1.
        -11    1    3    3    0    0 -0.26106837643E+01 -0.26435012368E+00 -0.59836241642E-01  0.26247154783E+01  0.51100000000E-03 0.  1.
         12    1    3    3    0    0  0.33230200073E+01 -0.18952945112E+02  0.36193836966E+02  0.40990857819E+02  0.00000000000E+00 0. -1.
</event>
<event>
 7    1  0.5992960E-013  0.5052886E+02  0.7816164E-02  0.1300439E+00
        -11   -1    0    0    0    0  0.00000000000E+00  0.00000000000E+00  0.45593999997E+02  0.45594000000E+02  0.51100000000E-03 0. -1.
         11   -1    0    0    0    0 -0.00000000000E+00 -0.00000000000E+00 -0.45593999997E+02  0.45594000000E+02  0.51100000000E-03 0.  1.
    9900012    2    1    2    0    0  0.29654049258E+02 -0.27556644936E+02 -0.37992307056E+01  0.50528862386E+02  0.30000007709E+02 0.  0.
        -12    1    1    2    0    0 -0.29654049258E+02  0.27556644936E+02  0.37992307056E+01  0.40659137614E+02  0.00000000000E+00 0.  1.
         11    1    3    3    0    0  0.13457607716E+02 -0.11864590668E+02 -0.38630955656E+01  0.18352090474E+02  0.51100000000E-03 0. -1.
        -11    1    3    3    0    0  0.55168805791E+01 -0.25370765847E+01 -0.10557178210E+02  0.12178946627E+02  0.51100000000E-03 0.  1.
         12    1    3    3    0    0  0.10679560963E+02 -0.13154977683E+02  0.10621043070E+02  0.19997825284E+02  0.00000000000E+00 0. -1.
</event>
<event>
 7    1  0.5992960E-013  0.5052886E+02  0.7816164E-02  0.1300439E+00
        -11   -1    0    0    0    0  0.00000000000E+00  0.00000000000E+00  0.45593999997E+02  0.45594000000E+02  0.51100000000E-03 0.  1.
         11   -1    0    0    0    0 -0.00000000000E+00 -0.00000000000E+00 -0.45593999997E+02  0.45594000000E+02  0.51100000000E-03 0. -1.
    9900012    2    1    2    0    0  0.49825041384E+01  0.80399710695E+01 -0.39543634738E+02  0.50528861660E+02  0.30000005501E+02 0.  0.
        -12    1    1    2    0    0 -0.49825041384E+01 -0.80399710695E+01  0.39543634738E+02  0.40659138340E+02  0.00000000000E+00 0.  1.
         11    1    3    3    0    0  0.71267968141E+01  0.21312993331E+01 -0.31610204760E+02  0.32473661864E+02  0.51100000000E-03 0. -1.
        -11    1    3    3    0    0 -0.20252382423E+01 -0.47329290255E+01 -0.71883131004E+00  0.51979732407E+01  0.51100000000E-03 0.  1.
        -12    1    3    3    0    0 -0.11905443348E+00  0.10641600762E+02 -0.72145986682E+01  0.12857226555E+02  0.00000000000E+00 0.  1.
</event>
<event>
 7    1  0.5992960E-013  0.5052886E+02  0.7816164E-02  0.1300439E+00
        -11   -1    0    0    0    0  0.00000000000E+00  0.00000000000E+00  0.45593999997E+02  0.45594000000E+02  0.51100000000E-03 0.  1.
         11   -1    0    0    0    0 -0.00000000000E+00 -0.00000000000E+00 -0.45593999997E+02  0.45594000000E+02  0.51100000000E-03 0. -1.
    9900012    2    1    2    0    0  0.37360665570E+02 -0.89680307197E+01 -0.13301149438E+02  0.50528862243E+02  0.30000007273E+02 0.  0.
        -12    1    1    2    0    0 -0.37360665570E+02  0.89680307197E+01  0.13301149438E+02  0.40659137757E+02  0.00000000000E+00 0.  1.
         11    1    3    3    0    0  0.19918900780E+02 -0.10793054070E+02 -0.16054188046E+02  0.27766699093E+02  0.51100000000E-03 0. -1.
        -11    1    3    3    0    0  0.41976791089E+01 -0.40571713409E+01 -0.36862780983E+01  0.69043316599E+01  0.51100000000E-03 0.  1.
        -12    1    3    3    0    0  0.13244085681E+02  0.58821946913E+01  0.64393167066E+01  0.15857831490E+02  0.00000000000E+00 0.  1.
</event>
<event>
 7    1  0.5992960E-013  0.5052884E+02  0.7816164E-02  0.1300439E+00
        -11   -1    0    0    0    0  0.00000000000E+00  0.00000000000E+00  0.45593999997E+02  0.45594000000E+02  0.51100000000E-03 0. -1.
         11   -1    0    0    0    0 -0.00000000000E+00 -0.00000000000E+00 -0.45593999997E+02  0.45594000000E+02  0.51100000000E-03 0.  1.
    9900012    2    1    2    0    0 -0.37846367914E+02  0.37185244525E+01 -0.14387240638E+02  0.50528835208E+02  0.29999925100E+02 0.  0.
        -12    1    1    2    0    0  0.37846367914E+02 -0.37185244525E+01  0.14387240638E+02  0.40659164792E+02  0.00000000000E+00 0.  1.
         11    1    3    3    0    0 -0.15470446766E+02 -0.48301293410E+01 -0.10142704078E+01  0.16238645796E+02  0.51100000000E-03 0. -1.
        -11    1    3    3    0    0 -0.26375903337E+01  0.11107767723E+02 -0.69976475786E+01  0.13390536153E+02  0.51100000000E-03 0.  1.
         12    1    3    3    0    0 -0.19738330814E+02 -0.25591139299E+01 -0.63753226519E+01  0.20899653259E+02  0.00000000000E+00 0. -1.
</event>
<event>
 7    1  0.5992960E-013  0.5052885E+02  0.7816164E-02  0.1300439E+00
        -11   -1    0    0    0    0  0.00000000000E+00  0.00000000000E+00  0.45593999997E+02  0.45594000000E+02  0.51100000000E-03 0.  1.
         11   -1    0    0    0    0 -0.00000000000E+00 -0.00000000000E+00 -0.45593999997E+02  0.45594000000E+02  0.51100000000E-03 0. -1.
    9900012    2    1    2    0    0  0.98962701307E+01  0.38766699309E+02 -0.72369335938E+01  0.50528851636E+02  0.29999975033E+02 0.  0.
        -12    1    1    2    0    0 -0.98962701307E+01 -0.38766699309E+02  0.72369335938E+01  0.40659148364E+02  0.00000000000E+00 0.  1.
         11    1    3    3    0    0  0.17626933585E+02  0.20444176588E+02 -0.62452974944E+01  0.27706982605E+02  0.51100000000E-03 0. -1.
        -11    1    3    3    0    0  0.75456817791E+00  0.45264840717E+01 -0.43023526901E+01  0.62903632739E+01  0.51100000000E-03 0.  1.
         12    1    3    3    0    0 -0.84852316325E+01  0.13796038649E+02  0.33107165906E+01  0.16531505757E+02  0.00000000000E+00 0. -1.
</event>
<event>
 7    1  0.5992960E-013  0.5052883E+02  0.7816164E-02  0.1300439E+00
        -11   -1    0    0    0    0  0.00000000000E+00  0.00000000000E+00  0.45593999997E+02  0.45594000000E+02  0.51100000000E-03 0. -1.
         11   -1    0    0    0    0 -0.00000000000E+00 -0.00000000000E+00 -0.45593999997E+02  0.45594000000E+02  0.51100000000E-03 0.  1.
    9900012    2    1    2    0    0 -0.55250638684E+01 -0.21271932788E+01  0.40225823743E+02  0.50528829106E+02  0.29999906550E+02 0.  0.
        -12    1    1    2    0    0  0.55250638684E+01  0.21271932788E+01 -0.40225823743E+02  0.40659170894E+02  0.00000000000E+00 0.  1.
         11    1    3    3    0    0  0.53863773652E+00 -0.68231935447E+01  0.99685048689E+00  0.69166329897E+01  0.51100000000E-03 0. -1.
        -11    1    3    3    0    0 -0.41512155394E+01 -0.15315634626E+01  0.63240789167E+00  0.44696998889E+01  0.51100000000E-03 0.  1.
        -12    1    3    3    0    0 -0.19124860655E+01  0.62275637285E+01  0.38596565365E+02  0.39142496227E+02  0.00000000000E+00 0.  1.
</event>
<event>
 7    1  0.5992960E-013  0.5052886E+02  0.7816164E-02  0.1300439E+00
        -11   -1    0    0    0    0  0.00000000000E+00  0.00000000000E+00  0.45593999997E+02  0.45594000000E+02  0.51100000000E-03 0.  1.
         11   -1    0    0    0    0 -0.00000000000E+00 -0.00000000000E+00 -0.45593999997E+02  0.45594000000E+02  0.51100000000E-03 0. -1.
    9900012    2    1    2    0    0 -0.16273679200E+02 -0.28168178180E+02 -0.24390293243E+02  0.50528864481E+02  0.30000014077E+02 0.  0.
        -12    1    1    2    0    0  0.16273679200E+02  0.28168178180E+02  0.24390293243E+02  0.40659135519E+02  0.00000000000E+00 0.  1.
         11    1    3    3    0    0 -0.75358117892E+01 -0.28970648838E+02 -0.20453976680E+02  0.36255373612E+02  0.51100000000E-03 0. -1.
        -11    1    3    3    0    0  0.16552925936E+00  0.40353816332E+01 -0.23401629492E+01  0.46677690337E+01  0.51100000000E-03 0.  1.
        -12    1    3    3    0    0 -0.89033966699E+01 -0.32329109748E+01 -0.15961536133E+01  0.96057218360E+01  0.00000000000E+00 0.  1.
</event>
<event>
 7    1  0.5992960E-013  0.5052888E+02  0.7816164E-02  0.1300439E+00
        -11   -1    0    0    0    0  0.00000000000E+00  0.00000000000E+00  0.45593999997E+02  0.45594000000E+02  0.51100000000E-03 0.  1.
         11   -1    0    0    0    0 -0.00000000000E+00 -0.00000000000E+00 -0.45593999997E+02  0.45594000000E+02  0.51100000000E-03 0. -1.
    9900012    2    1    2    0    0 -0.32584854969E+02 -0.19908637906E+02 -0.13965575408E+02  0.50528881305E+02  0.30000065214E+02 0.  0.
        -12    1    1    2    0    0  0.32584854969E+02  0.19908637906E+02  0.13965575408E+02  0.40659118695E+02  0.00000000000E+00 0.  1.
         11    1    3    3    0    0 -0.55271623195E+01 -0.39566738630E+00 -0.77532320396E+01  0.95298836986E+01  0.51100000000E-03 0. -1.
        -11    1    3    3    0    0 -0.56377589559E+01 -0.12540351385E+02 -0.11425981048E+02  0.17877297952E+02  0.51100000000E-03 0.  1.
        -12    1    3    3    0    0 -0.21419933693E+02 -0.69726191346E+01  0.52136376800E+01  0.23121699654E+02  0.00000000000E+00 0.  1.
</event>
<event>
 7    1  0.5992960E-013  0.5052888E+02  0.7816164E-02  0.1300439E+00
        -11   -1    0    0    0    0  0.00000000000E+00  0.00000000000E+00  0.45593999997E+02  0.45594000000E+02  0.51100000000E-03 0.  1.
         11   -1    0    0    0    0 -0.00000000000E+00 -0.00000000000E+00 -0.45593999997E+02  0.45594000000E+02  0.51100000000E-03 0. -1.
    9900012    2    1    2    0    0  0.97902879289E+01 -0.32905248851E+02 -0.21784367126E+02  0.50528883055E+02  0.30000070534E+02 0.  0.
        -12    1    1    2    0    0 -0.97902879289E+01  0.32905248851E+02  0.21784367126E+02  0.40659116945E+02  0.00000000000E+00 0.  1.
         11    1    3    3    0    0  0.75436303740E+01 -0.19714463129E+02 -0.17182881125E+02  0.27217968692E+02  0.51100000000E-03 0. -1.
        -11    1    3    3    0    0 -0.68690814043E+01 -0.69137581326E+01 -0.69833592604E+01  0.11989647104E+02  0.51100000000E-03 0.  1.
         12    1    3    3    0    0  0.91157389592E+01 -0.62770275893E+01  0.23818732595E+01  0.11321267259E+02  0.00000000000E+00 0. -1.
</event>
<event>
 7    1  0.5992960E-013  0.5052886E+02  0.7816164E-02  0.1300439E+00
        -11   -1    0    0    0    0  0.00000000000E+00  0.00000000000E+00  0.45593999997E+02  0.45594000000E+02  0.51100000000E-03 0. -1.
         11   -1    0    0    0    0 -0.00000000000E+00 -0.00000000000E+00 -0.45593999997E+02  0.45594000000E+02  0.51100000000E-03 0.  1.
    9900012    2    1    2    0    0  0.30620920277E+01  0.40107546829E+02 -0.59307423542E+01  0.50528862957E+02  0.30000009444E+02 0.  0.
        -12    1    1    2    0    0 -0.30620920277E+01 -0.40107546829E+02  0.59307423542E+01  0.40659137043E+02  0.00000000000E+00 0.  1.
         11    1    3    3    0    0  0.96652607274E+01  0.59516017892E+01 -0.11653431873E+01  0.11410383595E+02  0.51100000000E-03 0. -1.
        -11    1    3    3    0    0  0.50930031034E+00  0.28491081286E+02 -0.77807381237E+01  0.29538804744E+02  0.51100000000E-03 0.  1.
        -12    1    3    3    0    0 -0.71124690101E+01  0.56648637534E+01  0.30153389568E+01  0.95796746181E+01  0.00000000000E+00 0.  1.
</event>
<event>
 7    1  0.5992960E-013  0.5052885E+02  0.7816164E-02  0.1300439E+00
        -11   -1    0    0    0    0  0.00000000000E+00  0.00000000000E+00  0.45593999997E+02  0.45594000000E+02  0.51100000000E-03 0.  1.
         11   -1    0    0    0    0 -0.00000000000E+00 -0.00000000000E+00 -0.45593999997E+02  0.45594000000E+02  0.51100000000E-03 0. -1.
    9900012    2    1    2    0    0  0.20704363005E+02  0.34913236540E+02 -0.23582541855E+01  0.50528854708E+02  0.29999984369E+02 0.  0.
        -12    1    1    2    0    0 -0.20704363005E+02 -0.34913236540E+02  0.23582541855E+01  0.40659145292E+02  0.00000000000E+00 0.  1.
         11    1    3    3    0    0 -0.17841710216E+01  0.18710727943E+02 -0.38160856556E+01  0.19179080175E+02  0.51100000000E-03 0. -1.
        -11    1    3    3    0    0 -0.17123882982E+01  0.62576498137E-01  0.14744313264E+01  0.22605613240E+01  0.51100000000E-03 0.  1.
         12    1    3    3    0    0  0.24200922325E+02  0.16139932099E+02 -0.16599856252E-01  0.29089213208E+02  0.00000000000E+00 0. -1.
</event>
<event>
 7    1  0.5992960E-013  0.5052887E+02  0.7816164E-02  0.1300439E+00
        -11   -1    0    0    0    0  0.00000000000E+00  0.00000000000E+00  0.45593999997E+02  0.45594000000E+02  0.51100000000E-03 0. -1.
         11   -1    0    0    0    0 -0.00000000000E+00 -0.00000000000E+00 -0.45593999997E+02  0.45594000000E+02  0.51100000000E-03 0.  1.
    9900012    2    1    2    0    0 -0.30046293187E+01  0.37902466943E+02 -0.14406259486E+02  0.50528866831E+02  0.30000021219E+02 0.  0.
        -12    1    1    2    0    0  0.30046293187E+01 -0.37902466943E+02  0.14406259486E+02  0.40659133169E+02  0.00000000000E+00 0.  1.
         11    1    3    3    0    0 -0.91565070884E+01  0.29806444726E+02 -0.41250165411E+01  0.31452846151E+02  0.51100000000E-03 0. -1.
        -11    1    3    3    0    0  0.55400531069E+00  0.47898942322E+00  0.28239595861E+01  0.29173790904E+01  0.51100000000E-03 0.  1.
         12    1    3    3    0    0  0.55978724590E+01  0.76170327940E+01 -0.13105202531E+02  0.16158641590E+02  0.00000000000E+00 0. -1.
</event>
<event>
 7    1  0.5992960E-013  0.5052885E+02  0.7816164E-02  0.1300439E+00
        -11   -1    0    0    0    0  0.00000000000E+00  0.00000000000E+00  0.45593999997E+02  0.45594000000E+02  0.51100000000E-03 0.  1.
         11   -1    0    0    0    0 -0.00000000000E+00 -0.00000000000E+00 -0.45593999997E+02  0.45594000000E+02  0.51100000000E-03 0. -1.
    9900012    2    1    2    0    0  0.83950207206E+01  0.27788153452E+02 -0.28469430493E+02  0.50528851979E+02  0.29999976075E+02 0.  0.
        -12    1    1    2    0    0 -0.83950207206E+01 -0.27788153452E+02  0.28469430493E+02  0.40659148021E+02  0.00000000000E+00 0.  1.
         11    1    3    3    0    0 -0.56548356896E+01  0.47153067605E+01 -0.87253078113E+01  0.11416754407E+02  0.51100000000E-03 0.  1.
        -11    1    3    3    0    0  0.33098126620E+01  0.22506929931E+02 -0.11092877031E+02  0.25309458230E+02  0.51100000000E-03 0. -1.
         12    1    3    3    0    0  0.10740043748E+02  0.56591676035E+00 -0.86512456514E+01  0.13802639342E+02  0.00000000000E+00 0. -1.
</event>
<event>
 7    1  0.5992960E-013  0.5052888E+02  0.7816164E-02  0.1300439E+00
        -11   -1    0    0    0    0  0.00000000000E+00  0.00000000000E+00  0.45593999997E+02  0.45594000000E+02  0.51100000000E-03 0.  1.
         11   -1    0    0    0    0 -0.00000000000E+00 -0.00000000000E+00 -0.45593999997E+02  0.45594000000E+02  0.51100000000E-03 0. -1.
    9900012    2    1    2    0    0 -0.21438330390E+02 -0.34535870458E+02  0.91431464948E+00  0.50528876431E+02  0.30000050398E+02 0.  0.
        -12    1    1    2    0    0  0.21438330390E+02  0.34535870458E+02 -0.91431464948E+00  0.40659123569E+02  0.00000000000E+00 0.  1.
         11    1    3    3    0    0  0.15735968050E+01 -0.22352913046E+02  0.66351038998E+01  0.23369927953E+02  0.51100000000E-03 0.  1.
        -11    1    3    3    0    0 -0.42612324395E+01 -0.91465416863E+00  0.57224994689E+00  0.43956983990E+01  0.51100000000E-03 0. -1.
        -12    1    3    3    0    0 -0.18750694755E+02 -0.11268303243E+02 -0.62930391972E+01  0.22763250078E+02  0.00000000000E+00 0.  1.
</event>
<event>
 7    1  0.5992960E-013  0.5052884E+02  0.7816164E-02  0.1300439E+00
        -11   -1    0    0    0    0  0.00000000000E+00  0.00000000000E+00  0.45593999997E+02  0.45594000000E+02  0.51100000000E-03 0.  1.
         11   -1    0    0    0    0 -0.00000000000E+00 -0.00000000000E+00 -0.45593999997E+02  0.45594000000E+02  0.51100000000E-03 0. -1.
    9900012    2    1    2    0    0 -0.64445624872E+01 -0.16019221505E+02 -0.36810583776E+02  0.50528844559E+02  0.29999953521E+02 0.  0.
        -12    1    1    2    0    0  0.64445624872E+01  0.16019221505E+02  0.36810583776E+02  0.40659155441E+02  0.00000000000E+00 0.  1.
         11    1    3    3    0    0 -0.76624565670E+01 -0.10452942825E+02 -0.91809990628E+01  0.15882946779E+02  0.51100000000E-03 0. -1.
        -11    1    3    3    0    0  0.10739454679E+01 -0.66108276774E+01  0.29253334945E+00  0.67038777935E+01  0.51100000000E-03 0.  1.
         12    1    3    3    0    0  0.14394861190E+00  0.10445489970E+01 -0.27922118062E+02  0.27942019986E+02  0.00000000000E+00 0. -1.
</event>
<event>
 7    1  0.5992960E-013  0.5052886E+02  0.7816164E-02  0.1300439E+00
        -11   -1    0    0    0    0  0.00000000000E+00  0.00000000000E+00  0.45593999997E+02  0.45594000000E+02  0.51100000000E-03 0.  1.
         11   -1    0    0    0    0 -0.00000000000E+00 -0.00000000000E+00 -0.45593999997E+02  0.45594000000E+02  0.51100000000E-03 0. -1.
    9900012    2    1    2    0    0 -0.28995257016E+01 -0.55378062193E+01 -0.40175747905E+02  0.50528864904E+02  0.30000015363E+02 0.  0.
        -12    1    1    2    0    0  0.28995257016E+01  0.55378062193E+01  0.40175747905E+02  0.40659135096E+02  0.00000000000E+00 0.  1.
         11    1    3    3    0    0 -0.49645369277E+01  0.11494737449E+01 -0.15038357882E+01  0.53131383509E+01  0.51100000000E-03 0. -1.
        -11    1    3    3    0    0 -0.35893805640E+01 -0.52616898176E+00  0.16861008121E+01  0.40004303319E+01  0.51100000000E-03 0.  1.
         12    1    3    3    0    0  0.56543917901E+01 -0.61611109825E+01 -0.40358012929E+02  0.41215296221E+02  0.00000000000E+00 0. -1.
</event>
<event>
 7    1  0.5992960E-013  0.5052884E+02  0.7816164E-02  0.1300439E+00
        -11   -1    0    0    0    0  0.00000000000E+00  0.00000000000E+00  0.45593999997E+02  0.45594000000E+02  0.51100000000E-03 0.  1.
         11   -1    0    0    0    0 -0.00000000000E+00 -0.00000000000E+00 -0.45593999997E+02  0.45594000000E+02  0.51100000000E-03 0. -1.
    9900012    2    1    2    0    0  0.38922536425E+02  0.10398521609E+02 -0.54839898753E+01  0.50528840658E+02  0.29999941665E+02 0.  0.
        -12    1    1    2    0    0 -0.38922536425E+02 -0.10398521609E+02  0.54839898753E+01  0.40659159342E+02  0.00000000000E+00 0.  1.
         11    1    3    3    0    0  0.23465437051E+02 -0.47864688454E+01 -0.50474874822E+00  0.23953951481E+02  0.51100000000E-03 0. -1.
        -11    1    3    3    0    0  0.17916888357E+01 -0.11111649395E+01  0.31636459183E+01  0.38017748702E+01  0.51100000000E-03 0.  1.
         12    1    3    3    0    0  0.13665410539E+02  0.16296155394E+02 -0.81428870453E+01  0.22773114307E+02  0.00000000000E+00 0. -1.
</event>
<event>
 7    1  0.6883136E-013  0.5052885E+02  0.7816164E-02  0.1300439E+00
        -11   -1    0    0    0    0  0.00000000000E+00  0.00000000000E+00  0.45593999997E+02  0.45594000000E+02  0.51100000000E-03 0. -1.
         11   -1    0    0    0    0 -0.00000000000E+00 -0.00000000000E+00 -0.45593999997E+02  0.45594000000E+02  0.51100000000E-03 0.  1.
    9900012    2    1    2    0    0  0.12201265969E+02 -0.28884622049E+02  0.25883854038E+02  0.50528853649E+02  0.29999981150E+02 0.  0.
        -12    1    1    2    0    0 -0.12201265969E+02  0.28884622049E+02 -0.25883854038E+02  0.40659146351E+02  0.00000000000E+00 0.  1.
         11    1    3    3    0    0  0.70577752578E+01 -0.18990608012E+02  0.20278978964E+02  0.28665176998E+02  0.51100000000E-03 0. -1.
        -11    1    3    3    0    0  0.93808527332E+01 -0.12410520542E+02  0.64900625519E+01  0.16856521892E+02  0.51100000000E-03 0.  1.
        -12    1    3    3    0    0 -0.42373620221E+01  0.25165065053E+01 -0.88518747767E+00  0.50071547578E+01  0.00000000000E+00 0.  1.
</event>
<event>
 7    1  0.5992960E-013  0.5052887E+02  0.7816164E-02  0.1300439E+00
        -11   -1    0    0    0    0  0.00000000000E+00  0.00000000000E+00  0.45593999997E+02  0.45594000000E+02  0.51100000000E-03 0.  1.
         11   -1    0    0    0    0 -0.00000000000E+00 -0.00000000000E+00 -0.45593999997E+02  0.45594000000E+02  0.51100000000E-03 0. -1.
    9900012    2    1    2    0    0  0.15800291694E+02 -0.32997350016E+02 -0.17739509069E+02  0.50528874238E+02  0.30000043734E+02 0.  0.
        -12    1    1    2    0    0 -0.15800291694E+02  0.32997350016E+02  0.17739509069E+02  0.40659125762E+02  0.00000000000E+00 0.  1.
         11    1    3    3    0    0  0.19972903466E+01  0.15593069027E+01 -0.22160050101E+01  0.33661974409E+01  0.51100000000E-03 0. -1.
        -11    1    3    3    0    0  0.76212352487E+01  0.69316283239E+00 -0.70058788374E+01  0.10375260959E+02  0.51100000000E-03 0.  1.
         12    1    3    3    0    0  0.61817660985E+01 -0.35249819752E+02 -0.85176252214E+01  0.36787415838E+02  0.00000000000E+00 0. -1.
</event>
<event>
 7    1  0.5992960E-013  0.5052887E+02  0.7816164E-02  0.1300439E+00
        -11   -1    0    0    0    0  0.00000000000E+00  0.00000000000E+00  0.45593999997E+02  0.45594000000E+02  0.51100000000E-03 0.  1.
         11   -1    0    0    0    0 -0.00000000000E+00 -0.00000000000E+00 -0.45593999997E+02  0.45594000000E+02  0.51100000000E-03 0. -1.
    9900012    2    1    2    0    0 -0.13494015605E+02  0.18514271762E+02 -0.33590144166E+02  0.50528874319E+02  0.30000043981E+02 0.  0.
        -12    1    1    2    0    0  0.13494015605E+02 -0.18514271762E+02  0.33590144166E+02  0.40659125681E+02  0.00000000000E+00 0.  1.
         11    1    3    3    0    0 -0.87672267896E+01  0.49394430817E+01 -0.14550054870E+02  0.17690858106E+02  0.51100000000E-03 0. -1.
        -11    1    3    3    0    0 -0.80777291034E+01  0.40377412100E+01  0.22178341489E+01  0.92990241488E+01  0.51100000000E-03 0.  1.
        -12    1    3    3    0    0  0.33509402883E+01  0.95370874699E+01 -0.21257923445E+02  0.23538992064E+02  0.00000000000E+00 0.  1.
</event>
<event>
 7    1  0.5992960E-013  0.5052887E+02  0.7816164E-02  0.1300439E+00
        -11   -1    0    0    0    0  0.00000000000E+00  0.00000000000E+00  0.45593999997E+02  0.45594000000E+02  0.51100000000E-03 0.  1.
         11   -1    0    0    0    0 -0.00000000000E+00 -0.00000000000E+00 -0.45593999997E+02  0.45594000000E+02  0.51100000000E-03 0. -1.
    9900012    2    1    2    0    0 -0.16855068629E+02  0.16504103366E+02 -0.33116256224E+02  0.50528865815E+02  0.30000018130E+02 0.  0.
        -12    1    1    2    0    0  0.16855068629E+02 -0.16504103366E+02  0.33116256224E+02  0.40659134185E+02  0.00000000000E+00 0.  1.
         11    1    3    3    0    0 -0.61833411654E+01 -0.26497914727E+01 -0.18487211634E+02  0.19673131349E+02  0.51100000000E-03 0. -1.
        -11    1    3    3    0    0  0.19399263038E+01  0.12225648145E+02 -0.94096161868E+01  0.15548976290E+02  0.51100000000E-03 0.  1.
        -12    1    3    3    0    0 -0.12611653767E+02  0.69282466937E+01 -0.52194284034E+01  0.15306758176E+02  0.00000000000E+00 0.  1.
</event>
<event>
 7    1  0.5992960E-013  0.5052886E+02  0.7816164E-02  0.1300439E+00
        -11   -1    0    0    0    0  0.00000000000E+00  0.00000000000E+00  0.45593999997E+02  0.45594000000E+02  0.51100000000E-03 0. -1.
         11   -1    0    0    0    0 -0.00000000000E+00 -0.00000000000E+00 -0.45593999997E+02  0.45594000000E+02  0.51100000000E-03 0.  1.
    9900012    2    1    2    0    0 -0.34180668741E+02 -0.15137804821E+02  0.15990457226E+02  0.50528856223E+02  0.29999988975E+02 0.  0.
        -12    1    1    2    0    0  0.34180668741E+02  0.15137804821E+02 -0.15990457226E+02  0.40659143777E+02  0.00000000000E+00 0.  1.
         11    1    3    3    0    0 -0.18532267710E+02 -0.15996622339E+02  0.64800813089E+01  0.25324461036E+02  0.51100000000E-03 0. -1.
        -11    1    3    3    0    0 -0.15954737874E+01 -0.51801231326E+01 -0.22917889374E+01  0.58848542098E+01  0.51100000000E-03 0.  1.
        -12    1    3    3    0    0 -0.14052927244E+02  0.60389406507E+01  0.11802164855E+02  0.19319540977E+02  0.00000000000E+00 0.  1.
</event>
<event>
 7    1  0.5992960E-013  0.5052886E+02  0.7816164E-02  0.1300439E+00
        -11   -1    0    0    0    0  0.00000000000E+00  0.00000000000E+00  0.45593999997E+02  0.45594000000E+02  0.51100000000E-03 0. -1.
         11   -1    0    0    0    0 -0.00000000000E+00 -0.00000000000E+00 -0.45593999997E+02  0.45594000000E+02  0.51100000000E-03 0.  1.
    9900012    2    1    2    0    0 -0.32246957278E+02 -0.17303700119E+02  0.17716705058E+02  0.50528856753E+02  0.29999990586E+02 0.  0.
        -12    1    1    2    0    0  0.32246957278E+02  0.17303700119E+02 -0.17716705058E+02  0.40659143247E+02  0.00000000000E+00 0.  1.
         11    1    3    3    0    0 -0.26528863177E+02 -0.52783822928E+01  0.13238562625E+02  0.30114804361E+02  0.51100000000E-03 0. -1.
        -11    1    3    3    0    0 -0.75338896865E+01  0.80197123551E-01  0.53330318303E+00  0.75531674106E+01  0.51100000000E-03 0.  1.
         12    1    3    3    0    0  0.18157955850E+01 -0.12105514949E+02  0.39448392501E+01  0.12860884981E+02  0.00000000000E+00 0. -1.
</event>
<event>
 7    1  0.5992960E-013  0.5052886E+02  0.7816164E-02  0.1300439E+00
        -11   -1    0    0    0    0  0.00000000000E+00  0.00000000000E+00  0.45593999997E+02  0.45594000000E+02  0.51100000000E-03 0.  1.
         11   -1    0    0    0    0 -0.00000000000E+00 -0.00000000000E+00 -0.45593999997E+02  0.45594000000E+02  0.51100000000E-03 0. -1.
    9900012    2    1    2    0    0  0.29226462624E+02 -0.23708857346E+02 -0.15390573678E+02  0.50528858441E+02  0.29999995718E+02 0.  0.
        -12    1    1    2    0    0 -0.29226462624E+02  0.23708857346E+02  0.15390573678E+02  0.40659141559E+02  0.00000000000E+00 0.  1.
         11    1    3    3    0    0  0.28839289444E+01 -0.15475031566E+01 -0.37967083242E+01  0.50126646144E+01  0.51100000000E-03 0. -1.
        -11    1    3    3    0    0  0.26379988361E+02 -0.23514121403E+02 -0.17515968475E+02  0.39441435612E+02  0.51100000000E-03 0.  1.
        -12    1    3    3    0    0 -0.37454682209E-01  0.13527672128E+01  0.59221031212E+01  0.60747582144E+01  0.00000000000E+00 0.  1.
</event>
<event>
 7    1  0.5992960E-013  0.5052887E+02  0.7816164E-02  0.1300439E+00
        -11   -1    0    0    0    0  0.00000000000E+00  0.00000000000E+00  0.45593999997E+02  0.45594000000E+02  0.51100000000E-03 0. -1.
         11   -1    0    0    0    0 -0.00000000000E+00 -0.00000000000E+00 -0.45593999997E+02  0.45594000000E+02  0.51100000000E-03 0.  1.
    9900012    2    1    2    0    0 -0.10063917281E+01  0.32033037070E+02 -0.25020727042E+02  0.50528867324E+02  0.30000022717E+02 0.  0.
        -12    1    1    2    0    0  0.10063917281E+01 -0.32033037070E+02  0.25020727042E+02  0.40659132676E+02  0.00000000000E+00 0.  1.
         11    1    3    3    0    0  0.88954994488E+01  0.28660156475E+01 -0.55544023694E-01  0.93459639168E+01  0.51100000000E-03 0. -1.
        -11    1    3    3    0    0 -0.42304370605E+01  0.10095605567E+02 -0.15935866532E+02  0.19333124214E+02  0.51100000000E-03 0.  1.
        -12    1    3    3    0    0 -0.56714541163E+01  0.19071415856E+02 -0.90293164866E+01  0.21849779193E+02  0.00000000000E+00 0.  1.
</event>
<event>
 7    1  0.6959528E-013  0.5052886E+02  0.7816164E-02  0.1300439E+00
        -11   -1    0    0    0    0  0.00000000000E+00  0.00000000000E+00  0.45593999997E+02  0.45594000000E+02  0.51100000000E-03 0. -1.
         11   -1    0    0    0    0 -0.00000000000E+00 -0.00000000000E+00 -0.45593999997E+02  0.45594000000E+02  0.51100000000E-03 0.  1.
    9900012    2    1    2    0    0  0.77987206086E+01 -0.15654702067E+02  0.36705254579E+02  0.50528862605E+02  0.30000008376E+02 0.  0.
        -12    1    1    2    0    0 -0.77987206086E+01  0.15654702067E+02 -0.36705254579E+02  0.40659137395E+02  0.00000000000E+00 0.  1.
         11    1    3    3    0    0 -0.71920809507E+00 -0.28694215626E+01 -0.15126180139E+01  0.33224770737E+01  0.51100000000E-03 0. -1.
        -11    1    3    3    0    0  0.93109418850E+01 -0.37035011891E+00  0.28961823015E+01  0.97580054407E+01  0.51100000000E-03 0.  1.
         12    1    3    3    0    0 -0.79301318131E+00 -0.12414930385E+02  0.35321690292E+02  0.37448380091E+02  0.00000000000E+00 0. -1.
</event>
<event>
 7    1  0.5992960E-013  0.5052886E+02  0.7816164E-02  0.1300439E+00
        -11   -1    0    0    0    0  0.00000000000E+00  0.00000000000E+00  0.45593999997E+02  0.45594000000E+02  0.51100000000E-03 0. -1.
         11   -1    0    0    0    0 -0.00000000000E+00 -0.00000000000E+00 -0.45593999997E+02  0.45594000000E+02  0.51100000000E-03 0.  1.
    9900012    2    1    2    0    0  0.16085090084E+02 -0.34587599597E+02  0.14075984790E+02  0.50528861831E+02  0.30000006020E+02 0.  0.
        -12    1    1    2    0    0 -0.16085090084E+02  0.34587599597E+02 -0.14075984790E+02  0.40659138169E+02  0.00000000000E+00 0.  1.
         11    1    3    3    0    0  0.14079558537E+02 -0.17547526136E+02  0.14463751555E+02  0.26746023095E+02  0.51100000000E-03 0. -1.
        -11    1    3    3    0    0  0.45815508126E+01  0.16728336673E+01  0.23672398901E+00  0.48831361680E+01  0.51100000000E-03 0.  1.
        -12    1    3    3    0    0 -0.25760192662E+01 -0.18712907128E+02 -0.62449075376E+00  0.18899702568E+02  0.00000000000E+00 0.  1.
</event>
<event>
 7    1  0.5992960E-013  0.5052883E+02  0.7816164E-02  0.1300439E+00
        -11   -1    0    0    0    0  0.00000000000E+00  0.00000000000E+00  0.45593999997E+02  0.45594000000E+02  0.51100000000E-03 0.  1.
         11   -1    0    0    0    0 -0.00000000000E+00 -0.00000000000E+00 -0.45593999997E+02  0.45594000000E+02  0.51100000000E-03 0. -1.
    9900012    2    1    2    0    0  0.33850663263E+02 -0.74626732459E+01 -0.21251094513E+02  0.50528832358E+02  0.29999916436E+02 0.  0.
        -12    1    1    2    0    0 -0.33850663263E+02  0.74626732459E+01  0.21251094513E+02  0.40659167642E+02  0.00000000000E+00 0.  1.
         11    1    3    3    0    0  0.15413804552E+02  0.30125747402E+01 -0.14594332854E+02  0.21439578565E+02  0.51100000000E-03 0. -1.
        -11    1    3    3    0    0  0.15392728029E+02  0.59012752997E+00  0.76340257391E+00  0.15422941044E+02  0.51100000000E-03 0.  1.
         12    1    3    3    0    0  0.30441306819E+01 -0.11065375516E+02 -0.74201642323E+01  0.13666312749E+02  0.00000000000E+00 0. -1.
</event>
<event>
 7    1  0.5992960E-013  0.5052886E+02  0.7816164E-02  0.1300439E+00
        -11   -1    0    0    0    0  0.00000000000E+00  0.00000000000E+00  0.45593999997E+02  0.45594000000E+02  0.51100000000E-03 0.  1.
         11   -1    0    0    0    0 -0.00000000000E+00 -0.00000000000E+00 -0.45593999997E+02  0.45594000000E+02  0.51100000000E-03 0. -1.
    9900012    2    1    2    0    0 -0.17789780460E+02 -0.35513698607E+02 -0.86871453593E+01  0.50528861149E+02  0.30000003949E+02 0.  0.
        -12    1    1    2    0    0  0.17789780460E+02  0.35513698607E+02  0.86871453593E+01  0.40659138851E+02  0.00000000000E+00 0.  1.
         11    1    3    3    0    0 -0.61283098149E+01 -0.11694208367E+02 -0.10231635776E+02  0.16703205125E+02  0.51100000000E-03 0. -1.
        -11    1    3    3    0    0 -0.49523457531E+00  0.18068448298E+01 -0.48074722449E+01  0.51596254874E+01  0.51100000000E-03 0.  1.
        -12    1    3    3    0    0 -0.11166236070E+02 -0.25626335070E+02  0.63519626618E+01  0.28666030537E+02  0.00000000000E+00 0.  1.
</event>
<event>
 7    1  0.5992960E-013  0.5052886E+02  0.7816164E-02  0.1300439E+00
        -11   -1    0    0    0    0  0.00000000000E+00  0.00000000000E+00  0.45593999997E+02  0.45594000000E+02  0.51100000000E-03 0.  1.
         11   -1    0    0    0    0 -0.00000000000E+00 -0.00000000000E+00 -0.45593999997E+02  0.45594000000E+02  0.51100000000E-03 0. -1.
    9900012    2    1    2    0    0  0.19336743213E+02 -0.14905682530E+02 -0.32512716027E+02  0.50528859414E+02  0.29999998675E+02 0.  0.
        -12    1    1    2    0    0 -0.19336743213E+02  0.14905682530E+02  0.32512716027E+02  0.40659140586E+02  0.00000000000E+00 0.  1.
         11    1    3    3    0    0  0.13613608261E+02  0.11152164253E+01 -0.10755166465E+02  0.17385270878E+02  0.51100000000E-03 0. -1.
        -11    1    3    3    0    0 -0.17914100475E+01  0.96035250702E+00  0.20922711721E+01  0.29170234512E+01  0.51100000000E-03 0.  1.
         12    1    3    3    0    0  0.75145449989E+01 -0.16981251462E+02 -0.23849820734E+02  0.30226565084E+02  0.00000000000E+00 0. -1.
</event>
<event>
 7    1  0.5992960E-013  0.5052887E+02  0.7816164E-02  0.1300439E+00
        -11   -1    0    0    0    0  0.00000000000E+00  0.00000000000E+00  0.45593999997E+02  0.45594000000E+02  0.51100000000E-03 0.  1.
         11   -1    0    0    0    0 -0.00000000000E+00 -0.00000000000E+00 -0.45593999997E+02  0.45594000000E+02  0.51100000000E-03 0. -1.
    9900012    2    1    2    0    0 -0.21423798107E+02 -0.31367834980E+02 -0.14499802385E+02  0.50528874753E+02  0.30000045298E+02 0.  0.
        -12    1    1    2    0    0  0.21423798107E+02  0.31367834980E+02  0.14499802385E+02  0.40659125247E+02  0.00000000000E+00 0.  1.
         11    1    3    3    0    0 -0.55461580091E+01 -0.40550656746E+01 -0.82617759778E+01  0.10745248664E+02  0.51100000000E-03 0. -1.
        -11    1    3    3    0    0 -0.12462471098E+02 -0.23412315885E+02 -0.14350552246E+02  0.30156061928E+02  0.51100000000E-03 0.  1.
        -12    1    3    3    0    0 -0.34151689995E+01 -0.39004534206E+01  0.81125258387E+01  0.96275641605E+01  0.00000000000E+00 0.  1.
</event>
<event>
 7    1  0.5992960E-013  0.5052888E+02  0.7816164E-02  0.1300439E+00
        -11   -1    0    0    0    0  0.00000000000E+00  0.00000000000E+00  0.45593999997E+02  0.45594000000E+02  0.51100000000E-03 0.  1.
         11   -1    0    0    0    0 -0.00000000000E+00 -0.00000000000E+00 -0.45593999997E+02  0.45594000000E+02  0.51100000000E-03 0. -1.
    9900012    2    1    2    0    0 -0.24434703174E+02 -0.31965598694E+02 -0.58574642108E+01  0.50528879177E+02  0.30000058747E+02 0.  0.
        -12    1    1    2    0    0  0.24434703174E+02  0.31965598694E+02  0.58574642108E+01  0.40659120823E+02  0.00000000000E+00 0.  1.
         11    1    3    3    0    0 -0.12377809559E+02 -0.85420840990E+01 -0.78247316593E+01  0.16952987820E+02  0.51100000000E-03 0. -1.
        -11    1    3    3    0    0 -0.10521943987E+02 -0.20569803206E+02 -0.69180214872E+01  0.24118190869E+02  0.51100000000E-03 0.  1.
        -12    1    3    3    0    0 -0.15349496284E+01 -0.28537113889E+01  0.88852889357E+01  0.94577004882E+01  0.00000000000E+00 0.  1.
</event>
<event>
 7    1  0.5992960E-013  0.5052884E+02  0.7816164E-02  0.1300439E+00
        -11   -1    0    0    0    0  0.00000000000E+00  0.00000000000E+00  0.45593999997E+02  0.45594000000E+02  0.51100000000E-03 0.  1.
         11   -1    0    0    0    0 -0.00000000000E+00 -0.00000000000E+00 -0.45593999997E+02  0.45594000000E+02  0.51100000000E-03 0. -1.
    9900012    2    1    2    0    0  0.37664443718E+02  0.12246430561E+01 -0.15266212645E+02  0.50528839658E+02  0.29999938624E+02 0.  0.
        -12    1    1    2    0    0 -0.37664443718E+02 -0.12246430561E+01  0.15266212645E+02  0.40659160342E+02  0.00000000000E+00 0.  1.
         11    1    3    3    0    0  0.11609264385E+02 -0.26134377091E+01 -0.11500761610E+02  0.16549096474E+02  0.51100000000E-03 0.  1.
        -11    1    3    3    0    0  0.20974575483E+02 -0.60815017322E+01 -0.59239684781E+01  0.22627657475E+02  0.51100000000E-03 0. -1.
        -12    1    3    3    0    0  0.50806038496E+01  0.99195824973E+01  0.21585174431E+01  0.11352085709E+02  0.00000000000E+00 0.  1.
</event>
<event>
 7    1  0.5992960E-013  0.5052886E+02  0.7816164E-02  0.1300439E+00
        -11   -1    0    0    0    0  0.00000000000E+00  0.00000000000E+00  0.45593999997E+02  0.45594000000E+02  0.51100000000E-03 0.  1.
         11   -1    0    0    0    0 -0.00000000000E+00 -0.00000000000E+00 -0.45593999997E+02  0.45594000000E+02  0.51100000000E-03 0. -1.
    9900012    2    1    2    0    0 -0.84426794736E+01  0.25619210425E+02 -0.30422739493E+02  0.50528857636E+02  0.29999993271E+02 0.  0.
        -12    1    1    2    0    0  0.84426794736E+01 -0.25619210425E+02  0.30422739493E+02  0.40659142364E+02  0.00000000000E+00 0.  1.
         11    1    3    3    0    0 -0.13572681188E+01  0.16450823798E+01 -0.90178807019E+01  0.92666415382E+01  0.51100000000E-03 0. -1.
        -11    1    3    3    0    0 -0.12997148835E+02  0.38549621694E+01 -0.12637168826E+02  0.18533338807E+02  0.51100000000E-03 0.  1.
        -12    1    3    3    0    0  0.59117374798E+01  0.20119165876E+02 -0.87676899650E+01  0.22728877291E+02  0.00000000000E+00 0.  1.
</event>
<event>
 7    1  0.5992960E-013  0.5052886E+02  0.7816164E-02  0.1300439E+00
        -11   -1    0    0    0    0  0.00000000000E+00  0.00000000000E+00  0.45593999997E+02  0.45594000000E+02  0.51100000000E-03 0.  1.
         11   -1    0    0    0    0 -0.00000000000E+00 -0.00000000000E+00 -0.45593999997E+02  0.45594000000E+02  0.51100000000E-03 0. -1.
    9900012    2    1    2    0    0  0.34438123637E+02  0.20619498897E+02  0.64820811395E+01  0.50528862401E+02  0.30000007755E+02 0.  0.
        -12    1    1    2    0    0 -0.34438123637E+02 -0.20619498897E+02 -0.64820811395E+01  0.40659137599E+02  0.00000000000E+00 0.  1.
         11    1    3    3    0    0  0.73424537736E+01  0.86987102836E+01 -0.20581116116E+01  0.11567843865E+02  0.51100000000E-03 0. -1.
        -11    1    3    3    0    0 -0.21412492879E+01 -0.38921517376E+01 -0.61342977755E+00  0.44844275013E+01  0.51100000000E-03 0.  1.
         12    1    3    3    0    0  0.29236919151E+02  0.15812940351E+02  0.91536225287E+01  0.34476591035E+02  0.00000000000E+00 0. -1.
</event>
<event>
 7    1  0.5992960E-013  0.5052886E+02  0.7816164E-02  0.1300439E+00
        -11   -1    0    0    0    0  0.00000000000E+00  0.00000000000E+00  0.45593999997E+02  0.45594000000E+02  0.51100000000E-03 0.  1.
         11   -1    0    0    0    0 -0.00000000000E+00 -0.00000000000E+00 -0.45593999997E+02  0.45594000000E+02  0.51100000000E-03 0. -1.
    9900012    2    1    2    0    0 -0.25958021898E+02 -0.15067385065E+02 -0.27428460529E+02  0.50528862767E+02  0.30000008866E+02 0.  0.
        -12    1    1    2    0    0  0.25958021898E+02  0.15067385065E+02  0.27428460529E+02  0.40659137233E+02  0.00000000000E+00 0.  1.
         11    1    3    3    0    0 -0.85465535144E+01  0.35740258944E+01 -0.14816047883E+01  0.93814919431E+01  0.51100000000E-03 0. -1.
        -11    1    3    3    0    0  0.32348459597E+01 -0.36481936522E+01 -0.98155419328E+01  0.10959854424E+02  0.51100000000E-03 0.  1.
         12    1    3    3    0    0 -0.20646314343E+02 -0.14993217307E+02 -0.16131313808E+02  0.30187516399E+02  0.00000000000E+00 0. -1.
</event>
<event>
 7    1  0.5992960E-013  0.5052886E+02  0.7816164E-02  0.1300439E+00
        -11   -1    0    0    0    0  0.00000000000E+00  0.00000000000E+00  0.45593999997E+02  0.45594000000E+02  0.51100000000E-03 0. -1.
         11   -1    0    0    0    0 -0.00000000000E+00 -0.00000000000E+00 -0.45593999997E+02  0.45594000000E+02  0.51100000000E-03 0.  1.
    9900012    2    1    2    0    0  0.34523786575E+02 -0.45637475931E+01 -0.20986805150E+02  0.50528860536E+02  0.30000002084E+02 0.  0.
        -12    1    1    2    0    0 -0.34523786575E+02  0.45637475931E+01  0.20986805150E+02  0.40659139464E+02  0.00000000000E+00 0.  1.
         11    1    3    3    0    0  0.60189905558E+01  0.24261725919E+01 -0.11275009163E+01  0.65867912776E+01  0.51100000000E-03 0. -1.
        -11    1    3    3    0    0  0.12392125812E+02  0.43229660348E+01 -0.20388337582E+02  0.24247414854E+02  0.51100000000E-03 0.  1.
         12    1    3    3    0    0  0.16112670207E+02 -0.11312886220E+02  0.52903334761E+00  0.19694654404E+02  0.00000000000E+00 0. -1.
</event>
<event>
 7    1  0.5992960E-013  0.5052885E+02  0.7816164E-02  0.1300439E+00
        -11   -1    0    0    0    0  0.00000000000E+00  0.00000000000E+00  0.45593999997E+02  0.45594000000E+02  0.51100000000E-03 0.  1.
         11   -1    0    0    0    0 -0.00000000000E+00 -0.00000000000E+00 -0.45593999997E+02  0.45594000000E+02  0.51100000000E-03 0. -1.
    9900012    2    1    2    0    0 -0.16024569762E+02 -0.35728602196E+02  0.10947444961E+02  0.50528850942E+02  0.29999972923E+02 0.  0.
        -12    1    1    2    0    0  0.16024569762E+02  0.35728602196E+02 -0.10947444961E+02  0.40659149058E+02  0.00000000000E+00 0.  1.
         11    1    3    3    0    0 -0.82717239872E+01 -0.23309284901E+02  0.13259507279E+02  0.28063476510E+02  0.51100000000E-03 0. -1.
        -11    1    3    3    0    0  0.17609578095E+01 -0.69931354550E+01  0.54517727193E+01  0.90402843950E+01  0.51100000000E-03 0.  1.
         12    1    3    3    0    0 -0.95138035846E+01 -0.54261818404E+01 -0.77638350370E+01  0.13425090037E+02  0.00000000000E+00 0. -1.
</event>
<event>
 7    1  0.5992960E-013  0.5052885E+02  0.7816164E-02  0.1300439E+00
        -11   -1    0    0    0    0  0.00000000000E+00  0.00000000000E+00  0.45593999997E+02  0.45594000000E+02  0.51100000000E-03 0.  1.
         11   -1    0    0    0    0 -0.00000000000E+00 -0.00000000000E+00 -0.45593999997E+02  0.45594000000E+02  0.51100000000E-03 0. -1.
    9900012    2    1    2    0    0 -0.23318132018E+02  0.13772519368E+02 -0.30327358795E+02  0.50528852665E+02  0.29999978160E+02 0.  0.
        -12    1    1    2    0    0  0.23318132018E+02 -0.13772519368E+02  0.30327358795E+02  0.40659147335E+02  0.00000000000E+00 0.  1.
         11    1    3    3    0    0 -0.16755924793E+02  0.78386518203E+01 -0.13368506563E+02  0.22823725507E+02  0.51100000000E-03 0. -1.
        -11    1    3    3    0    0 -0.59862418126E+01  0.51128778865E+01  0.24696142104E+01  0.82507942605E+01  0.51100000000E-03 0.  1.
         12    1    3    3    0    0 -0.57596541252E+00  0.82098966140E+00 -0.19428466442E+02  0.19454332898E+02  0.00000000000E+00 0. -1.
</event>
<event>
 7    1  0.5992960E-013  0.5052886E+02  0.7816164E-02  0.1300439E+00
        -11   -1    0    0    0    0  0.00000000000E+00  0.00000000000E+00  0.45593999997E+02  0.45594000000E+02  0.51100000000E-03 0. -1.
         11   -1    0    0    0    0 -0.00000000000E+00 -0.00000000000E+00 -0.45593999997E+02  0.45594000000E+02  0.51100000000E-03 0.  1.
    9900012    2    1    2    0    0 -0.33326647677E+01 -0.38934328569E+02 -0.11232862007E+02  0.50528858538E+02  0.29999996011E+02 0.  0.
        -12    1    1    2    0    0  0.33326647677E+01  0.38934328569E+02  0.11232862007E+02  0.40659141462E+02  0.00000000000E+00 0.  1.
         11    1    3    3    0    0 -0.59219169600E+01 -0.17868015491E+02 -0.87168585461E+01  0.20744124500E+02  0.51100000000E-03 0.  1.
        -11    1    3    3    0    0 -0.58735935713E+01 -0.16662318129E+02 -0.72954861897E+01  0.19114289573E+02  0.51100000000E-03 0. -1.
         12    1    3    3    0    0  0.84628457636E+01 -0.44039949490E+01  0.47794827288E+01  0.10670444465E+02  0.00000000000E+00 0. -1.
</event>
<event>
 7    1  0.5992960E-013  0.5052886E+02  0.7816164E-02  0.1300439E+00
        -11   -1    0    0    0    0  0.00000000000E+00  0.00000000000E+00  0.45593999997E+02  0.45594000000E+02  0.51100000000E-03 0.  1.
         11   -1    0    0    0    0 -0.00000000000E+00 -0.00000000000E+00 -0.45593999997E+02  0.45594000000E+02  0.51100000000E-03 0. -1.
    9900012    2    1    2    0    0  0.35230181227E+02 -0.20221015653E+02  0.17635608403E+01  0.50528864616E+02  0.30000014487E+02 0.  0.
        -12    1    1    2    0    0 -0.35230181227E+02  0.20221015653E+02 -0.17635608403E+01  0.40659135384E+02  0.00000000000E+00 0.  1.
         11    1    3    3    0    0  0.13186325052E+02  0.65982760369E+01  0.55383438111E+00  0.14755444684E+02  0.51100000000E-03 0. -1.
        -11    1    3    3    0    0  0.15051341999E+02 -0.11749619167E+02 -0.25408417053E+00  0.19096099224E+02  0.51100000000E-03 0.  1.
        -12    1    3    3    0    0  0.69925141757E+01 -0.15069672523E+02  0.14638106298E+01  0.16677320708E+02  0.00000000000E+00 0.  1.
</event>
<event>
 7    1  0.5992960E-013  0.5052885E+02  0.7816164E-02  0.1300439E+00
        -11   -1    0    0    0    0  0.00000000000E+00  0.00000000000E+00  0.45593999997E+02  0.45594000000E+02  0.51100000000E-03 0. -1.
         11   -1    0    0    0    0 -0.00000000000E+00 -0.00000000000E+00 -0.45593999997E+02  0.45594000000E+02  0.51100000000E-03 0.  1.
    9900012    2    1    2    0    0 -0.31811091832E+02  0.21190665325E+02  0.13862783374E+02  0.50528848222E+02  0.29999964654E+02 0.  0.
        -12    1    1    2    0    0  0.31811091832E+02 -0.21190665325E+02 -0.13862783374E+02  0.40659151778E+02  0.00000000000E+00 0.  1.
         11    1    3    3    0    0 -0.11749196384E+02  0.17913810646E+02  0.86658887618E+01  0.23109432183E+02  0.51100000000E-03 0. -1.
        -11    1    3    3    0    0 -0.23260154134E+02  0.19866368614E+01  0.36069017560E+01  0.23621838136E+02  0.51100000000E-03 0.  1.
         12    1    3    3    0    0  0.31982586865E+01  0.12902178177E+01  0.15899928564E+01  0.37975779027E+01  0.00000000000E+00 0. -1.
</event>
<event>
 7    1  0.5992960E-013  0.5052885E+02  0.7816164E-02  0.1300439E+00
        -11   -1    0    0    0    0  0.00000000000E+00  0.00000000000E+00  0.45593999997E+02  0.45594000000E+02  0.51100000000E-03 0. -1.
         11   -1    0    0    0    0 -0.00000000000E+00 -0.00000000000E+00 -0.45593999997E+02  0.45594000000E+02  0.51100000000E-03 0.  1.
    9900012    2    1    2    0    0 -0.12800860637E+02  0.32226885345E+02 -0.21230457569E+02  0.50528849731E+02  0.29999969241E+02 0.  0.
        -12    1    1    2    0    0  0.12800860637E+02 -0.32226885345E+02  0.21230457569E+02  0.40659150269E+02  0.00000000000E+00 0.  1.
         11    1    3    3    0    0 -0.13495692270E+02  0.94145574882E+01 -0.51048249448E+01  0.17228663341E+02  0.51100000000E-03 0. -1.
        -11    1    3    3    0    0  0.10157433439E+01 -0.30231300938E+01 -0.27223103329E+01  0.41930924047E+01  0.51100000000E-03 0.  1.
        -12    1    3    3    0    0 -0.32091171083E+00  0.25835457950E+02 -0.13403322291E+02  0.29107093985E+02  0.00000000000E+00 0.  1.
</event>
<event>
 7    1  0.5992960E-013  0.5052885E+02  0.7816164E-02  0.1300439E+00
        -11   -1    0    0    0    0  0.00000000000E+00  0.00000000000E+00  0.45593999997E+02  0.45594000000E+02  0.51100000000E-03 0.  1.
         11   -1    0    0    0    0 -0.00000000000E+00 -0.00000000000E+00 -0.45593999997E+02  0.45594000000E+02  0.51100000000E-03 0. -1.
    9900012    2    1    2    0    0  0.19545542439E+02 -0.25244197643E+02 -0.25176752618E+02  0.50528848308E+02  0.29999964918E+02 0.  0.
        -12    1    1    2    0    0 -0.19545542439E+02  0.25244197643E+02  0.25176752618E+02  0.40659151692E+02  0.00000000000E+00 0.  1.
         11    1    3    3    0    0  0.59970408175E+01  0.16238483004E+01 -0.18653926899E+01  0.64869925249E+01  0.51100000000E-03 0. -1.
        -11    1    3    3    0    0  0.58743326784E+01 -0.12539041867E+01  0.28365865823E+01  0.66427617619E+01  0.51100000000E-03 0.  1.
         12    1    3    3    0    0  0.76741689434E+01 -0.25614141757E+02 -0.26147946511E+02  0.37399094022E+02  0.00000000000E+00 0. -1.
</event>
<event>
 7    1  0.5992960E-013  0.5052885E+02  0.7816164E-02  0.1300439E+00
        -11   -1    0    0    0    0  0.00000000000E+00  0.00000000000E+00  0.45593999997E+02  0.45594000000E+02  0.51100000000E-03 0.  1.
         11   -1    0    0    0    0 -0.00000000000E+00 -0.00000000000E+00 -0.45593999997E+02  0.45594000000E+02  0.51100000000E-03 0. -1.
    9900012    2    1    2    0    0 -0.14549524190E+02 -0.35280826729E+02  0.14026437211E+02  0.50528851833E+02  0.29999975630E+02 0.  0.
        -12    1    1    2    0    0  0.14549524190E+02  0.35280826729E+02 -0.14026437211E+02  0.40659148167E+02  0.00000000000E+00 0.  1.
         11    1    3    3    0    0 -0.25927405491E+01 -0.16967197406E+02  0.10084092432E+02  0.19907210046E+02  0.51100000000E-03 0. -1.
        -11    1    3    3    0    0 -0.69262935387E+01 -0.82401240893E+01  0.12487394412E+02  0.16486606887E+02  0.51100000000E-03 0.  1.
         12    1    3    3    0    0 -0.50304901020E+01 -0.10073505234E+02 -0.85450496334E+01  0.14135034899E+02  0.00000000000E+00 0. -1.
</event>
<event>
 7    1  0.5992960E-013  0.5052886E+02  0.7816164E-02  0.1300439E+00
        -11   -1    0    0    0    0  0.00000000000E+00  0.00000000000E+00  0.45593999997E+02  0.45594000000E+02  0.51100000000E-03 0. -1.
         11   -1    0    0    0    0 -0.00000000000E+00 -0.00000000000E+00 -0.45593999997E+02  0.45594000000E+02  0.51100000000E-03 0.  1.
    9900012    2    1    2    0    0 -0.51256333682E+01  0.12802665681E+02  0.38248992851E+02  0.50528858100E+02  0.29999994680E+02 0.  0.
        -12    1    1    2    0    0  0.51256333682E+01 -0.12802665681E+02 -0.38248992851E+02  0.40659141900E+02  0.00000000000E+00 0.  1.
         11    1    3    3    0    0  0.20675949966E+01  0.36659979012E+01  0.18088816047E+02  0.18572015397E+02  0.51100000000E-03 0. -1.
        -11    1    3    3    0    0  0.48717750661E+01 -0.21206718349E+01 -0.69986744272E+00  0.53592215876E+01  0.51100000000E-03 0.  1.
        -12    1    3    3    0    0 -0.12065003431E+02  0.11257339615E+02  0.20860044247E+02  0.26597621115E+02  0.00000000000E+00 0.  1.
</event>
<event>
 7    1  0.5992960E-013  0.5052886E+02  0.7816164E-02  0.1300439E+00
        -11   -1    0    0    0    0  0.00000000000E+00  0.00000000000E+00  0.45593999997E+02  0.45594000000E+02  0.51100000000E-03 0. -1.
         11   -1    0    0    0    0 -0.00000000000E+00 -0.00000000000E+00 -0.45593999997E+02  0.45594000000E+02  0.51100000000E-03 0.  1.
    9900012    2    1    2    0    0  0.14651152436E+02 -0.33541583250E+02  0.17705119441E+02  0.50528864138E+02  0.30000013035E+02 0.  0.
        -12    1    1    2    0    0 -0.14651152436E+02  0.33541583250E+02 -0.17705119441E+02  0.40659135862E+02  0.00000000000E+00 0.  1.
         11    1    3    3    0    0  0.86928033855E+01 -0.64715515368E+01  0.60819102449E+01  0.12427205739E+02  0.51100000000E-03 0. -1.
        -11    1    3    3    0    0  0.12448032881E+02 -0.22513457992E+02  0.14661077111E+02  0.29610074226E+02  0.51100000000E-03 0.  1.
        -12    1    3    3    0    0 -0.64896838307E+01 -0.45565737216E+01 -0.30378679150E+01  0.84915841733E+01  0.00000000000E+00 0.  1.
</event>
<event>
 7    1  0.5992960E-013  0.5052886E+02  0.7816164E-02  0.1300439E+00
        -11   -1    0    0    0    0  0.00000000000E+00  0.00000000000E+00  0.45593999997E+02  0.45594000000E+02  0.51100000000E-03 0.  1.
         11   -1    0    0    0    0 -0.00000000000E+00 -0.00000000000E+00 -0.45593999997E+02  0.45594000000E+02  0.51100000000E-03 0. -1.
    9900012    2    1    2    0    0  0.18999225946E+02  0.35870750757E+02  0.23419426189E+01  0.50528855375E+02  0.29999986399E+02 0.  0.
        -12    1    1    2    0    0 -0.18999225946E+02 -0.35870750757E+02 -0.23419426189E+01  0.40659144625E+02  0.00000000000E+00 0.  1.
         11    1    3    3    0    0  0.22404353752E+01  0.19169425103E+02 -0.44008392840E+01  0.19795297323E+02  0.51100000000E-03 0. -1.
        -11    1    3    3    0    0  0.35100888379E+01  0.10012234845E+02 -0.50756457356E+01  0.11761281824E+02  0.51100000000E-03 0.  1.
        -12    1    3    3    0    0  0.13248701733E+02  0.66890908087E+01  0.11818427638E+02  0.18972276229E+02  0.00000000000E+00 0.  1.
</event>
<event>
 7    1  0.5992960E-013  0.5052886E+02  0.7816164E-02  0.1300439E+00
        -11   -1    0    0    0    0  0.00000000000E+00  0.00000000000E+00  0.45593999997E+02  0.45594000000E+02  0.51100000000E-03 0.  1.
         11   -1    0    0    0    0 -0.00000000000E+00 -0.00000000000E+00 -0.45593999997E+02  0.45594000000E+02  0.51100000000E-03 0. -1.
    9900012    2    1    2    0    0 -0.26491652978E+02 -0.11563442218E+02 -0.28594482120E+02  0.50528864727E+02  0.30000014824E+02 0.  0.
        -12    1    1    2    0    0  0.26491652978E+02  0.11563442218E+02  0.28594482120E+02  0.40659135273E+02  0.00000000000E+00 0.  1.
         11    1    3    3    0    0 -0.13211884079E+02 -0.14238227102E+01  0.75768881471E-01  0.13288600122E+02  0.51100000000E-03 0. -1.
        -11    1    3    3    0    0 -0.76110785260E+01  0.34905658451E+01 -0.64777080757E+01  0.10586466286E+02  0.51100000000E-03 0.  1.
         12    1    3    3    0    0 -0.56686903730E+01 -0.13630185353E+02 -0.22192542926E+02  0.26653798319E+02  0.00000000000E+00 0. -1.
</event>
<event>
 7    1  0.5992960E-013  0.5052886E+02  0.7816164E-02  0.1300439E+00
        -11   -1    0    0    0    0  0.00000000000E+00  0.00000000000E+00  0.45593999997E+02  0.45594000000E+02  0.51100000000E-03 0.  1.
         11   -1    0    0    0    0 -0.00000000000E+00 -0.00000000000E+00 -0.45593999997E+02  0.45594000000E+02  0.51100000000E-03 0. -1.
    9900012    2    1    2    0    0 -0.29232763691E+02 -0.28250381936E+02 -0.72600999409E+00  0.50528860277E+02  0.30000001297E+02 0.  0.
        -12    1    1    2    0    0  0.29232763691E+02  0.28250381936E+02  0.72600999409E+00  0.40659139723E+02  0.00000000000E+00 0.  1.
         11    1    3    3    0    0 -0.18212102907E+02 -0.22215230115E+02  0.51938706500E+01  0.29192009762E+02  0.51100000000E-03 0. -1.
        -11    1    3    3    0    0 -0.14858885746E+02 -0.45668697697E+01 -0.70587876208E+01  0.17072471059E+02  0.51100000000E-03 0.  1.
        -12    1    3    3    0    0  0.38382249624E+01 -0.14682820518E+01  0.11389069767E+01  0.42643794563E+01  0.00000000000E+00 0.  1.
</event>
<event>
 7    1  0.5992960E-013  0.5052887E+02  0.7816164E-02  0.1300439E+00
        -11   -1    0    0    0    0  0.00000000000E+00  0.00000000000E+00  0.45593999997E+02  0.45594000000E+02  0.51100000000E-03 0.  1.
         11   -1    0    0    0    0 -0.00000000000E+00 -0.00000000000E+00 -0.45593999997E+02  0.45594000000E+02  0.51100000000E-03 0. -1.
    9900012    2    1    2    0    0  0.57522877494E+00 -0.30431787813E+01 -0.40541008430E+02  0.50528865851E+02  0.30000018242E+02 0.  0.
        -12    1    1    2    0    0 -0.57522877494E+00  0.30431787813E+01  0.40541008430E+02  0.40659134149E+02  0.00000000000E+00 0.  1.
         11    1    3    3    0    0  0.21624641879E+01 -0.69869232140E+01 -0.90510150148E+01  0.11636761595E+02  0.51100000000E-03 0. -1.
        -11    1    3    3    0    0 -0.10861619331E+02  0.70206332203E-01 -0.84709851451E+01  0.13774516072E+02  0.51100000000E-03 0.  1.
         12    1    3    3    0    0  0.92743839182E+01  0.38735381005E+01 -0.23019008270E+02  0.25117588184E+02  0.00000000000E+00 0. -1.
</event>
<event>
 7    1  0.5992960E-013  0.5052885E+02  0.7816164E-02  0.1300439E+00
        -11   -1    0    0    0    0  0.00000000000E+00  0.00000000000E+00  0.45593999997E+02  0.45594000000E+02  0.51100000000E-03 0.  1.
         11   -1    0    0    0    0 -0.00000000000E+00 -0.00000000000E+00 -0.45593999997E+02  0.45594000000E+02  0.51100000000E-03 0. -1.
    9900012    2    1    2    0    0 -0.18237472943E+02 -0.36221521561E+02 -0.29261238263E+01  0.50528852884E+02  0.29999978827E+02 0.  0.
        -12    1    1    2    0    0  0.18237472943E+02  0.36221521561E+02  0.29261238263E+01  0.40659147116E+02  0.00000000000E+00 0.  1.
         11    1    3    3    0    0 -0.15964138261E+02 -0.33683319437E+02 -0.10662410659E+02  0.38769920300E+02  0.51100000000E-03 0. -1.
        -11    1    3    3    0    0 -0.31324259495E+01 -0.42504339663E+01  0.18920762317E+01  0.56087640313E+01  0.51100000000E-03 0.  1.
         12    1    3    3    0    0  0.85909126707E+00  0.17122318427E+01  0.58442106009E+01  0.61501685535E+01  0.00000000000E+00 0. -1.
</event>
<event>
 7    1  0.5992960E-013  0.5052886E+02  0.7816164E-02  0.1300439E+00
        -11   -1    0    0    0    0  0.00000000000E+00  0.00000000000E+00  0.45593999997E+02  0.45594000000E+02  0.51100000000E-03 0.  1.
         11   -1    0    0    0    0 -0.00000000000E+00 -0.00000000000E+00 -0.45593999997E+02  0.45594000000E+02  0.51100000000E-03 0. -1.
    9900012    2    1    2    0    0  0.28710657014E+02  0.57061836623E+01 -0.28218844319E+02  0.50528861632E+02  0.30000005416E+02 0.  0.
        -12    1    1    2    0    0 -0.28710657014E+02 -0.57061836623E+01  0.28218844319E+02  0.40659138368E+02  0.00000000000E+00 0.  1.
         11    1    3    3    0    0  0.46689423342E+01 -0.18925651581E+01 -0.12652623410E+02  0.13618726255E+02  0.51100000000E-03 0. -1.
        -11    1    3    3    0    0  0.12574897614E+01 -0.62002450506E+01 -0.56658173312E+01  0.84926912978E+01  0.51100000000E-03 0.  1.
        -12    1    3    3    0    0  0.22784224918E+02  0.13798993871E+02 -0.99004035783E+01  0.28417444079E+02  0.00000000000E+00 0.  1.
</event>
<event>
 7    1  0.5992960E-013  0.5052886E+02  0.7816164E-02  0.1300439E+00
        -11   -1    0    0    0    0  0.00000000000E+00  0.00000000000E+00  0.45593999997E+02  0.45594000000E+02  0.51100000000E-03 0.  1.
         11   -1    0    0    0    0 -0.00000000000E+00 -0.00000000000E+00 -0.45593999997E+02  0.45594000000E+02  0.51100000000E-03 0. -1.
    9900012    2    1    2    0    0  0.17938562825E+02  0.91492347375E+00 -0.36476518633E+02  0.50528861632E+02  0.30000005417E+02 0.  0.
        -12    1    1    2    0    0 -0.17938562825E+02 -0.91492347375E+00  0.36476518633E+02  0.40659138368E+02  0.00000000000E+00 0.  1.
         11    1    3    3    0    0  0.98171431218E+01  0.96543971109E-01 -0.14825179664E+02  0.17781214024E+02  0.51100000000E-03 0. -1.
        -11    1    3    3    0    0  0.12606209896E+02  0.57765151018E+01 -0.22052698480E+02  0.26050070349E+02  0.51100000000E-03 0.  1.
        -12    1    3    3    0    0 -0.44847901928E+01 -0.49581355992E+01  0.40135951107E+00  0.66975772597E+01  0.00000000000E+00 0.  1.
</event>
<event>
 7    1  0.5992960E-013  0.5052886E+02  0.7816164E-02  0.1300439E+00
        -11   -1    0    0    0    0  0.00000000000E+00  0.00000000000E+00  0.45593999997E+02  0.45594000000E+02  0.51100000000E-03 0.  1.
         11   -1    0    0    0    0 -0.00000000000E+00 -0.00000000000E+00 -0.45593999997E+02  0.45594000000E+02  0.51100000000E-03 0. -1.
    9900012    2    1    2    0    0 -0.94056870394E+01  0.33185318615E+02 -0.21527501954E+02  0.50528860060E+02  0.30000000639E+02 0.  0.
        -12    1    1    2    0    0  0.94056870394E+01 -0.33185318615E+02  0.21527501954E+02  0.40659139940E+02  0.00000000000E+00 0.  1.
         11    1    3    3    0    0 -0.14010108574E+02  0.13422533927E+02 -0.11042596301E+02  0.22324571499E+02  0.51100000000E-03 0. -1.
        -11    1    3    3    0    0 -0.39450774669E+01  0.28181898593E+01 -0.75887959685E+01  0.90053125884E+01  0.51100000000E-03 0.  1.
        -12    1    3    3    0    0  0.85494990018E+01  0.16944594829E+02 -0.28961096841E+01  0.19198975973E+02  0.00000000000E+00 0.  1.
</event>
<event>
 7    1  0.5992960E-013  0.5052879E+02  0.7816164E-02  0.1300439E+00
        -11   -1    0    0    0    0  0.00000000000E+00  0.00000000000E+00  0.45593999997E+02  0.45594000000E+02  0.51100000000E-03 0. -1.
         11   -1    0    0    0    0 -0.00000000000E+00 -0.00000000000E+00 -0.45593999997E+02  0.45594000000E+02  0.51100000000E-03 0.  1.
    9900012    2    1    2    0    0 -0.27859754174E+02 -0.26383236805E+02  0.13451045170E+02  0.50528785754E+02  0.29999774777E+02 0.  0.
        -12    1    1    2    0    0  0.27859754174E+02  0.26383236805E+02 -0.13451045170E+02  0.40659214246E+02  0.00000000000E+00 0.  1.
         11    1    3    3    0    0 -0.25306469225E+02 -0.16188241117E+02  0.13128625074E+02  0.32784711860E+02  0.51100000000E-03 0. -1.
        -11    1    3    3    0    0  0.80290675237E+00 -0.27469764213E+01  0.67614837539E+01  0.73422204767E+01  0.51100000000E-03 0.  1.
         12    1    3    3    0    0 -0.33561917010E+01 -0.74480192663E+01 -0.64390636579E+01  0.10401853417E+02  0.00000000000E+00 0. -1.
</event>
<event>
 7    1  0.5992960E-013  0.5052886E+02  0.7816164E-02  0.1300439E+00
        -11   -1    0    0    0    0  0.00000000000E+00  0.00000000000E+00  0.45593999997E+02  0.45594000000E+02  0.51100000000E-03 0.  1.
         11   -1    0    0    0    0 -0.00000000000E+00 -0.00000000000E+00 -0.45593999997E+02  0.45594000000E+02  0.51100000000E-03 0. -1.
    9900012    2    1    2    0    0  0.12916007480E+02 -0.37671072290E+02 -0.81995353256E+01  0.50528864295E+02  0.30000013511E+02 0.  0.
        -12    1    1    2    0    0 -0.12916007480E+02  0.37671072290E+02  0.81995353256E+01  0.40659135705E+02  0.00000000000E+00 0.  1.
         11    1    3    3    0    0  0.17969298574E+02 -0.20246486441E+02 -0.20295151652E+01  0.27146543731E+02  0.51100000000E-03 0. -1.
        -11    1    3    3    0    0  0.25704926032E+00 -0.11022419450E+02  0.25656601226E+01  0.11320000750E+02  0.51100000000E-03 0.  1.
        -12    1    3    3    0    0 -0.53103403549E+01 -0.64021663992E+01 -0.87356802830E+01  0.12062319814E+02  0.00000000000E+00 0.  1.
</event>
<event>
 7    1  0.5992960E-013  0.5052886E+02  0.7816164E-02  0.1300439E+00
        -11   -1    0    0    0    0  0.00000000000E+00  0.00000000000E+00  0.45593999997E+02  0.45594000000E+02  0.51100000000E-03 0.  1.
         11   -1    0    0    0    0 -0.00000000000E+00 -0.00000000000E+00 -0.45593999997E+02  0.45594000000E+02  0.51100000000E-03 0. -1.
    9900012    2    1    2    0    0  0.77545908577E+01 -0.37098974507E+02 -0.14720672497E+02  0.50528858499E+02  0.29999995894E+02 0.  0.
        -12    1    1    2    0    0 -0.77545908577E+01  0.37098974507E+02  0.14720672497E+02  0.40659141501E+02  0.00000000000E+00 0.  1.
         11    1    3    3    0    0  0.47273709758E+01 -0.16443624357E+01 -0.10185484454E+02  0.11348835093E+02  0.51100000000E-03 0. -1.
        -11    1    3    3    0    0 -0.41653752883E+01 -0.30903202596E+01 -0.29975925112E+01  0.59904917765E+01  0.51100000000E-03 0.  1.
         12    1    3    3    0    0  0.71925951703E+01 -0.32364291811E+02 -0.15375955325E+01  0.33189531629E+02  0.00000000000E+00 0. -1.
</event>
<event>
 7    1  0.5992960E-013  0.5052886E+02  0.7816164E-02  0.1300439E+00
        -11   -1    0    0    0    0  0.00000000000E+00  0.00000000000E+00  0.45593999997E+02  0.45594000000E+02  0.51100000000E-03 0.  1.
         11   -1    0    0    0    0 -0.00000000000E+00 -0.00000000000E+00 -0.45593999997E+02  0.45594000000E+02  0.51100000000E-03 0. -1.
    9900012    2    1    2    0    0 -0.33812661084E+02 -0.22288029927E+02 -0.36212782746E+01  0.50528856085E+02  0.29999988556E+02 0.  0.
        -12    1    1    2    0    0  0.33812661084E+02  0.22288029927E+02  0.36212782746E+01  0.40659143915E+02  0.00000000000E+00 0.  1.
         11    1    3    3    0    0  0.16279641053E+01 -0.20872318258E+01 -0.37981184396E+01  0.46295256523E+01  0.51100000000E-03 0.  1.
        -11    1    3    3    0    0 -0.21846422248E+02 -0.31991243388E+01 -0.66949714066E+01  0.23072130460E+02  0.51100000000E-03 0. -1.
         12    1    3    3    0    0 -0.13594202941E+02 -0.17001673762E+02  0.68718115716E+01  0.22827199972E+02  0.00000000000E+00 0. -1.
</event>
<event>
 7    1  0.5992960E-013  0.5052887E+02  0.7816164E-02  0.1300439E+00
        -11   -1    0    0    0    0  0.00000000000E+00  0.00000000000E+00  0.45593999997E+02  0.45594000000E+02  0.51100000000E-03 0.  1.
         11   -1    0    0    0    0 -0.00000000000E+00 -0.00000000000E+00 -0.45593999997E+02  0.45594000000E+02  0.51100000000E-03 0. -1.
    9900012    2    1    2    0    0 -0.36766106610E+02  0.15056656247E+02 -0.86438127589E+01  0.50528868288E+02  0.30000025647E+02 0.  0.
        -12    1    1    2    0    0  0.36766106610E+02 -0.15056656247E+02  0.86438127589E+01  0.40659131712E+02  0.00000000000E+00 0.  1.
         11    1    3    3    0    0 -0.21251498539E+02  0.88490963252E+01 -0.30632483271E+01  0.23223182092E+02  0.51100000000E-03 0. -1.
        -11    1    3    3    0    0 -0.98684587510E+01  0.75922245514E+01 -0.12919803003E+02  0.17942955767E+02  0.51100000000E-03 0.  1.
         12    1    3    3    0    0 -0.56461493200E+01 -0.13846646296E+01  0.73392385709E+01  0.93627304287E+01  0.00000000000E+00 0. -1.
</event>
<event>
 7    1  0.5992960E-013  0.5052883E+02  0.7816164E-02  0.1300439E+00
        -11   -1    0    0    0    0  0.00000000000E+00  0.00000000000E+00  0.45593999997E+02  0.45594000000E+02  0.51100000000E-03 0.  1.
         11   -1    0    0    0    0 -0.00000000000E+00 -0.00000000000E+00 -0.45593999997E+02  0.45594000000E+02  0.51100000000E-03 0. -1.
    9900012    2    1    2    0    0  0.58724644839E+01  0.16666056573E+01 -0.40198321266E+02  0.50528825806E+02  0.29999896521E+02 0.  0.
        -12    1    1    2    0    0 -0.58724644839E+01 -0.16666056573E+01  0.40198321266E+02  0.40659174194E+02  0.00000000000E+00 0.  1.
         11    1    3    3    0    0 -0.56949540287E+01  0.42512991865E+01 -0.33436351136E+01  0.78540398647E+01  0.51100000000E-03 0. -1.
        -11    1    3    3    0    0 -0.19918907350E+01 -0.43218320218E+01 -0.18679524424E+01  0.51122507091E+01  0.51100000000E-03 0.  1.
         12    1    3    3    0    0  0.13559309248E+02  0.17371384926E+01 -0.34986733710E+02  0.37562535232E+02  0.00000000000E+00 0. -1.
</event>
<event>
 7    1  0.5992960E-013  0.5052886E+02  0.7816164E-02  0.1300439E+00
        -11   -1    0    0    0    0  0.00000000000E+00  0.00000000000E+00  0.45593999997E+02  0.45594000000E+02  0.51100000000E-03 0.  1.
         11   -1    0    0    0    0 -0.00000000000E+00 -0.00000000000E+00 -0.45593999997E+02  0.45594000000E+02  0.51100000000E-03 0. -1.
    9900012    2    1    2    0    0  0.26034471114E+02  0.82960890583E+01 -0.30108920480E+02  0.50528857457E+02  0.29999992728E+02 0.  0.
        -12    1    1    2    0    0 -0.26034471114E+02 -0.82960890583E+01  0.30108920480E+02  0.40659142543E+02  0.00000000000E+00 0.  1.
         11    1    3    3    0    0  0.12534255020E+02 -0.64105512653E+01 -0.12936609924E+02  0.19119586634E+02  0.51100000000E-03 0. -1.
        -11    1    3    3    0    0  0.39450868748E+00  0.71204246324E+01 -0.14323574304E+02  0.16000652023E+02  0.51100000000E-03 0.  1.
        -12    1    3    3    0    0  0.13105707406E+02  0.75862156912E+01 -0.28487362510E+01  0.15408618801E+02  0.00000000000E+00 0.  1.
</event>
<event>
 7    1  0.5992960E-013  0.5052888E+02  0.7816164E-02  0.1300439E+00
        -11   -1    0    0    0    0  0.00000000000E+00  0.00000000000E+00  0.45593999997E+02  0.45594000000E+02  0.51100000000E-03 0.  1.
         11   -1    0    0    0    0 -0.00000000000E+00 -0.00000000000E+00 -0.45593999997E+02  0.45594000000E+02  0.51100000000E-03 0. -1.
    9900012    2    1    2    0    0 -0.10555862575E+02 -0.11170921033E+02 -0.37642373714E+02  0.50528880355E+02  0.30000062328E+02 0.  0.
        -12    1    1    2    0    0  0.10555862575E+02  0.11170921033E+02  0.37642373714E+02  0.40659119645E+02  0.00000000000E+00 0.  1.
         11    1    3    3    0    0 -0.73443605941E+01  0.34584654144E+01 -0.80172704599E+01  0.11409524155E+02  0.51100000000E-03 0. -1.
        -11    1    3    3    0    0 -0.21012286119E+01 -0.10393213136E+02 -0.32294460253E+02  0.33990678196E+02  0.51100000000E-03 0.  1.
         12    1    3    3    0    0 -0.11102733688E+01 -0.42361733119E+01  0.26693569984E+01  0.51286780038E+01  0.00000000000E+00 0. -1.
</event>
<event>
 7    1  0.5992960E-013  0.5052886E+02  0.7816164E-02  0.1300439E+00
        -11   -1    0    0    0    0  0.00000000000E+00  0.00000000000E+00  0.45593999997E+02  0.45594000000E+02  0.51100000000E-03 0. -1.
         11   -1    0    0    0    0 -0.00000000000E+00 -0.00000000000E+00 -0.45593999997E+02  0.45594000000E+02  0.51100000000E-03 0.  1.
    9900012    2    1    2    0    0 -0.23606210173E+02  0.32787678048E+02  0.45695733936E+01  0.50528855991E+02  0.29999988271E+02 0.  0.
        -12    1    1    2    0    0  0.23606210173E+02 -0.32787678048E+02 -0.45695733936E+01  0.40659144009E+02  0.00000000000E+00 0.  1.
         11    1    3    3    0    0 -0.40942597062E+01  0.69524379291E+01 -0.59442662892E+01  0.10021659427E+02  0.51100000000E-03 0. -1.
        -11    1    3    3    0    0 -0.21812443431E+02  0.13797693656E+02  0.26499070376E+01  0.25945732717E+02  0.51100000000E-03 0.  1.
        -12    1    3    3    0    0  0.23004929638E+01  0.12037546463E+02  0.78639326453E+01  0.14561463847E+02  0.00000000000E+00 0.  1.
</event>
<event>
 7    1  0.5992960E-013  0.5052886E+02  0.7816164E-02  0.1300439E+00
        -11   -1    0    0    0    0  0.00000000000E+00  0.00000000000E+00  0.45593999997E+02  0.45594000000E+02  0.51100000000E-03 0.  1.
         11   -1    0    0    0    0 -0.00000000000E+00 -0.00000000000E+00 -0.45593999997E+02  0.45594000000E+02  0.51100000000E-03 0. -1.
    9900012    2    1    2    0    0 -0.30658446162E+02 -0.25977243945E+02 -0.61974546059E+01  0.50528856285E+02  0.29999989165E+02 0.  0.
        -12    1    1    2    0    0  0.30658446162E+02  0.25977243945E+02  0.61974546059E+01  0.40659143715E+02  0.00000000000E+00 0.  1.
         11    1    3    3    0    0 -0.59819258487E+01 -0.12043594466E+02 -0.46552486392E+01  0.14230352935E+02  0.51100000000E-03 0. -1.
        -11    1    3    3    0    0 -0.10051893999E+01 -0.54584274483E+01 -0.85534767946E+01  0.10196411206E+02  0.51100000000E-03 0.  1.
         12    1    3    3    0    0 -0.23671330913E+02 -0.84752220309E+01  0.70112708279E+01  0.26102092144E+02  0.00000000000E+00 0. -1.
</event>
<event>
 7    1  0.5992960E-013  0.5052886E+02  0.7816164E-02  0.1300439E+00
        -11   -1    0    0    0    0  0.00000000000E+00  0.00000000000E+00  0.45593999997E+02  0.45594000000E+02  0.51100000000E-03 0.  1.
         11   -1    0    0    0    0 -0.00000000000E+00 -0.00000000000E+00 -0.45593999997E+02  0.45594000000E+02  0.51100000000E-03 0. -1.
    9900012    2    1    2    0    0  0.39159832027E+02 -0.10669729083E+02  0.24146428640E+01  0.50528855109E+02  0.29999985590E+02 0.  0.
        -12    1    1    2    0    0 -0.39159832027E+02  0.10669729083E+02 -0.24146428640E+01  0.40659144891E+02  0.00000000000E+00 0.  1.
         11    1    3    3    0    0  0.97198444468E+01  0.69351403839E+01  0.11859410696E+00  0.11940921783E+02  0.51100000000E-03 0. -1.
        -11    1    3    3    0    0  0.41361908026E+01  0.26059733097E+01 -0.30543003695E+01  0.57643665962E+01  0.51100000000E-03 0.  1.
        -12    1    3    3    0    0  0.25303796778E+02 -0.20210842776E+02  0.53503491266E+01  0.32823566730E+02  0.00000000000E+00 0.  1.
</event>
<event>
 7    1  0.5992960E-013  0.5052881E+02  0.7816164E-02  0.1300439E+00
        -11   -1    0    0    0    0  0.00000000000E+00  0.00000000000E+00  0.45593999997E+02  0.45594000000E+02  0.51100000000E-03 0.  1.
         11   -1    0    0    0    0 -0.00000000000E+00 -0.00000000000E+00 -0.45593999997E+02  0.45594000000E+02  0.51100000000E-03 0. -1.
    9900012    2    1    2    0    0  0.18968240656E+02 -0.35204564767E+02 -0.73494371576E+01  0.50528809642E+02  0.29999847387E+02 0.  0.
        -12    1    1    2    0    0 -0.18968240656E+02  0.35204564767E+02  0.73494371576E+01  0.40659190358E+02  0.00000000000E+00 0.  1.
         11    1    3    3    0    0  0.77756331785E+01 -0.17036482239E+02 -0.76138951478E+01  0.20215677035E+02  0.51100000000E-03 0. -1.
        -11    1    3    3    0    0  0.13831637336E+01 -0.18681017656E+02 -0.46917210257E+01  0.19310769250E+02  0.51100000000E-03 0.  1.
        -12    1    3    3    0    0  0.98094437434E+01  0.51293512765E+00  0.49561790159E+01  0.11002363357E+02  0.00000000000E+00 0.  1.
</event>
<event>
 7    1  0.5992960E-013  0.5052887E+02  0.7816164E-02  0.1300439E+00
        -11   -1    0    0    0    0  0.00000000000E+00  0.00000000000E+00  0.45593999997E+02  0.45594000000E+02  0.51100000000E-03 0. -1.
         11   -1    0    0    0    0 -0.00000000000E+00 -0.00000000000E+00 -0.45593999997E+02  0.45594000000E+02  0.51100000000E-03 0.  1.
    9900012    2    1    2    0    0  0.16270330364E+02  0.34760206910E+02  0.13422721977E+02  0.50528866956E+02  0.30000021601E+02 0.  0.
        -12    1    1    2    0    0 -0.16270330364E+02 -0.34760206910E+02 -0.13422721977E+02  0.40659133044E+02  0.00000000000E+00 0.  1.
         11    1    3    3    0    0  0.31348423893E+01  0.47478186466E+01 -0.35626537905E+01  0.67127878708E+01  0.51100000000E-03 0. -1.
        -11    1    3    3    0    0 -0.34330114076E+01  0.10380431187E+02 -0.29211235934E+01  0.11316884830E+02  0.51100000000E-03 0.  1.
         12    1    3    3    0    0  0.16568499382E+02  0.19631957076E+02  0.19906499361E+02  0.32499194255E+02  0.00000000000E+00 0. -1.
</event>
<event>
 7    1  0.5992960E-013  0.5052887E+02  0.7816164E-02  0.1300439E+00
        -11   -1    0    0    0    0  0.00000000000E+00  0.00000000000E+00  0.45593999997E+02  0.45594000000E+02  0.51100000000E-03 0.  1.
         11   -1    0    0    0    0 -0.00000000000E+00 -0.00000000000E+00 -0.45593999997E+02  0.45594000000E+02  0.51100000000E-03 0. -1.
    9900012    2    1    2    0    0  0.33779860666E+02  0.10370522730E+02 -0.20113124519E+02  0.50528874257E+02  0.30000043790E+02 0.  0.
        -12    1    1    2    0    0 -0.33779860666E+02 -0.10370522730E+02  0.20113124519E+02  0.40659125743E+02  0.00000000000E+00 0.  1.
         11    1    3    3    0    0  0.13510304182E+02  0.31792338395E+01 -0.22624946574E+01  0.14062529262E+02  0.51100000000E-03 0. -1.
        -11    1    3    3    0    0  0.13898343524E+02  0.14507527437E+02 -0.56329536605E+01  0.20865341412E+02  0.51100000000E-03 0.  1.
        -12    1    3    3    0    0  0.63712129597E+01 -0.73162385460E+01 -0.12217676201E+02  0.15601003583E+02  0.00000000000E+00 0.  1.
</event>
<event>
 7    1  0.5992960E-013  0.5052888E+02  0.7816164E-02  0.1300439E+00
        -11   -1    0    0    0    0  0.00000000000E+00  0.00000000000E+00  0.45593999997E+02  0.45594000000E+02  0.51100000000E-03 0. -1.
         11   -1    0    0    0    0 -0.00000000000E+00 -0.00000000000E+00 -0.45593999997E+02  0.45594000000E+02  0.51100000000E-03 0.  1.
    9900012    2    1    2    0    0  0.32680019628E+01  0.37069264279E+02 -0.16381520373E+02  0.50528875554E+02  0.30000047733E+02 0.  0.
        -12    1    1    2    0    0 -0.32680019628E+01 -0.37069264279E+02  0.16381520373E+02  0.40659124446E+02  0.00000000000E+00 0.  1.
         11    1    3    3    0    0 -0.16555407311E+01  0.39753732267E+00 -0.36921750828E+01  0.40658342488E+01  0.51100000000E-03 0. -1.
        -11    1    3    3    0    0  0.45033577212E+01  0.10557036312E+02 -0.16468023353E+02  0.20073042617E+02  0.51100000000E-03 0.  1.
         12    1    3    3    0    0  0.42018497276E+00  0.26114690644E+02  0.37786780636E+01  0.26389998688E+02  0.00000000000E+00 0. -1.
</event>
<event>
 7    1  0.5992960E-013  0.5052886E+02  0.7816164E-02  0.1300439E+00
        -11   -1    0    0    0    0  0.00000000000E+00  0.00000000000E+00  0.45593999997E+02  0.45594000000E+02  0.51100000000E-03 0. -1.
         11   -1    0    0    0    0 -0.00000000000E+00 -0.00000000000E+00 -0.45593999997E+02  0.45594000000E+02  0.51100000000E-03 0.  1.
    9900012    2    1    2    0    0  0.87510636670E+01 -0.63966593991E+01  0.39187590749E+02  0.50528860370E+02  0.30000001580E+02 0.  0.
        -12    1    1    2    0    0 -0.87510636670E+01  0.63966593991E+01 -0.39187590749E+02  0.40659139630E+02  0.00000000000E+00 0.  1.
         11    1    3    3    0    0 -0.19427502844E+01  0.28974667711E+01  0.26928073310E+01  0.44069041220E+01  0.51100000000E-03 0. -1.
        -11    1    3    3    0    0 -0.23514223517E+01  0.68378493596E+01  0.70215783302E+01  0.10079083959E+02  0.51100000000E-03 0.  1.
         12    1    3    3    0    0  0.13045236303E+02 -0.16131975530E+02  0.29473205088E+02  0.36042872289E+02  0.00000000000E+00 0. -1.
</event>
<event>
 7    1  0.5992960E-013  0.5052886E+02  0.7816164E-02  0.1300439E+00
        -11   -1    0    0    0    0  0.00000000000E+00  0.00000000000E+00  0.45593999997E+02  0.45594000000E+02  0.51100000000E-03 0.  1.
         11   -1    0    0    0    0 -0.00000000000E+00 -0.00000000000E+00 -0.45593999997E+02  0.45594000000E+02  0.51100000000E-03 0. -1.
    9900012    2    1    2    0    0  0.15429037586E+01  0.39999249244E+02  0.71305612082E+01  0.50528863324E+02  0.30000010560E+02 0.  0.
        -12    1    1    2    0    0 -0.15429037586E+01 -0.39999249244E+02 -0.71305612082E+01  0.40659136676E+02  0.00000000000E+00 0.  1.
         11    1    3    3    0    0  0.22731264980E+01  0.71942465146E+00  0.19664385561E+01  0.30905592958E+01  0.51100000000E-03 0. -1.
        -11    1    3    3    0    0  0.34438909974E+01  0.67459811127E+01  0.11753345997E+02  0.13982481495E+02  0.51100000000E-03 0.  1.
         12    1    3    3    0    0 -0.41741137368E+01  0.32533843480E+02 -0.65892233453E+01  0.33455822533E+02  0.00000000000E+00 0. -1.
</event>
<event>
 7    1  0.5992960E-013  0.5052895E+02  0.7816164E-02  0.1300438E+00
        -11   -1    0    0    0    0  0.00000000000E+00  0.00000000000E+00  0.45593999997E+02  0.45594000000E+02  0.51100000000E-03 0. -1.
         11   -1    0    0    0    0 -0.00000000000E+00 -0.00000000000E+00 -0.45593999997E+02  0.45594000000E+02  0.51100000000E-03 0.  1.
    9900012    2    1    2    0    0  0.78438978318E+01 -0.33597330714E+02 -0.21513973236E+02  0.50528949240E+02  0.30000271708E+02 0.  0.
        -12    1    1    2    0    0 -0.78438978318E+01  0.33597330714E+02  0.21513973236E+02  0.40659050760E+02  0.00000000000E+00 0.  1.
         11    1    3    3    0    0 -0.84479956383E+00  0.26170475239E+01 -0.35070576987E+01  0.44566891308E+01  0.51100000000E-03 0.  1.
        -11    1    3    3    0    0 -0.48527958524E+01 -0.41977343172E+01  0.93461366617E+00  0.64841424991E+01  0.51100000000E-03 0. -1.
         12    1    3    3    0    0  0.13541493248E+02 -0.32016643921E+02 -0.18941529204E+02  0.39588117610E+02  0.00000000000E+00 0. -1.
</event>
<event>
 7    1  0.5992960E-013  0.5052886E+02  0.7816164E-02  0.1300439E+00
        -11   -1    0    0    0    0  0.00000000000E+00  0.00000000000E+00  0.45593999997E+02  0.45594000000E+02  0.51100000000E-03 0.  1.
         11   -1    0    0    0    0 -0.00000000000E+00 -0.00000000000E+00 -0.45593999997E+02  0.45594000000E+02  0.51100000000E-03 0. -1.
    9900012    2    1    2    0    0 -0.17422731512E+02 -0.34231566179E+02 -0.13334690641E+02  0.50528859934E+02  0.30000000255E+02 0.  0.
        -12    1    1    2    0    0  0.17422731512E+02  0.34231566179E+02  0.13334690641E+02  0.40659140066E+02  0.00000000000E+00 0.  1.
         11    1    3    3    0    0  0.12624780077E+01 -0.98452021968E+01  0.46238092410E+01  0.10949952930E+02  0.51100000000E-03 0.  1.
        -11    1    3    3    0    0 -0.42133509855E+01 -0.17385045610E+01  0.30340587468E+01  0.54754212053E+01  0.51100000000E-03 0. -1.
         12    1    3    3    0    0 -0.14471858535E+02 -0.22647859421E+02 -0.20992558629E+02  0.34103485798E+02  0.00000000000E+00 0. -1.
</event>
<event>
 7    1  0.5992960E-013  0.5052886E+02  0.7816164E-02  0.1300439E+00
        -11   -1    0    0    0    0  0.00000000000E+00  0.00000000000E+00  0.45593999997E+02  0.45594000000E+02  0.51100000000E-03 0.  1.
         11   -1    0    0    0    0 -0.00000000000E+00 -0.00000000000E+00 -0.45593999997E+02  0.45594000000E+02  0.51100000000E-03 0. -1.
    9900012    2    1    2    0    0  0.27330122728E+02 -0.30810634976E+01 -0.29945563832E+02  0.50528863833E+02  0.30000012107E+02 0.  0.
        -12    1    1    2    0    0 -0.27330122728E+02  0.30810634976E+01  0.29945563832E+02  0.40659136167E+02  0.00000000000E+00 0.  1.
         11    1    3    3    0    0  0.11659309583E+01 -0.36218002335E+01 -0.47127480106E+01  0.60569650819E+01  0.51100000000E-03 0. -1.
        -11    1    3    3    0    0  0.17798672534E+02 -0.96104923779E+01 -0.23808448480E+02  0.31240943119E+02  0.51100000000E-03 0.  1.
         12    1    3    3    0    0  0.83655192358E+01  0.10151229114E+02 -0.14243673421E+01  0.13230955632E+02  0.00000000000E+00 0. -1.
</event>
<event>
 7    1  0.5992960E-013  0.5052888E+02  0.7816164E-02  0.1300439E+00
        -11   -1    0    0    0    0  0.00000000000E+00  0.00000000000E+00  0.45593999997E+02  0.45594000000E+02  0.51100000000E-03 0.  1.
         11   -1    0    0    0    0 -0.00000000000E+00 -0.00000000000E+00 -0.45593999997E+02  0.45594000000E+02  0.51100000000E-03 0. -1.
    9900012    2    1    2    0    0 -0.28961725773E+02 -0.25885574565E+02 -0.12013314328E+02  0.50528877389E+02  0.30000053313E+02 0.  0.
        -12    1    1    2    0    0  0.28961725773E+02  0.25885574565E+02  0.12013314328E+02  0.40659122611E+02  0.00000000000E+00 0.  1.
         11    1    3    3    0    0 -0.18118218063E+02 -0.29623905191E+02 -0.10687265386E+02  0.36332674361E+02  0.51100000000E-03 0. -1.
        -11    1    3    3    0    0 -0.49977624920E+01 -0.24669516753E+01 -0.33107227786E-01  0.55735605177E+01  0.51100000000E-03 0.  1.
        -12    1    3    3    0    0 -0.58457452184E+01  0.62052823011E+01 -0.12929417139E+01  0.86226425109E+01  0.00000000000E+00 0.  1.
</event>
<event>
 7    1  0.5992960E-013  0.5052886E+02  0.7816164E-02  0.1300439E+00
        -11   -1    0    0    0    0  0.00000000000E+00  0.00000000000E+00  0.45593999997E+02  0.45594000000E+02  0.51100000000E-03 0.  1.
         11   -1    0    0    0    0 -0.00000000000E+00 -0.00000000000E+00 -0.45593999997E+02  0.45594000000E+02  0.51100000000E-03 0. -1.
    9900012    2    1    2    0    0  0.21826025633E+02  0.10788260865E+02 -0.32563842041E+02  0.50528858643E+02  0.29999996331E+02 0.  0.
        -12    1    1    2    0    0 -0.21826025633E+02 -0.10788260865E+02  0.32563842041E+02  0.40659141357E+02  0.00000000000E+00 0.  1.
         11    1    3    3    0    0 -0.24865290333E+01  0.53986292912E+01 -0.98077452643E+01  0.11468212253E+02  0.51100000000E-03 0. -1.
        -11    1    3    3    0    0 -0.26504637307E+01  0.37823732708E+01 -0.45745786894E+01  0.65006212006E+01  0.51100000000E-03 0.  1.
         12    1    3    3    0    0  0.26963018397E+02  0.16072583034E+01 -0.18181518087E+02  0.32560025189E+02  0.00000000000E+00 0. -1.
</event>
<event>
 7    1  0.5992960E-013  0.5052886E+02  0.7816164E-02  0.1300439E+00
        -11   -1    0    0    0    0  0.00000000000E+00  0.00000000000E+00  0.45593999997E+02  0.45594000000E+02  0.51100000000E-03 0.  1.
         11   -1    0    0    0    0 -0.00000000000E+00 -0.00000000000E+00 -0.45593999997E+02  0.45594000000E+02  0.51100000000E-03 0. -1.
    9900012    2    1    2    0    0  0.31482682310E+01 -0.14280131283E+02 -0.37938524057E+02  0.50528863881E+02  0.30000012252E+02 0.  0.
        -12    1    1    2    0    0 -0.31482682310E+01  0.14280131283E+02  0.37938524057E+02  0.40659136119E+02  0.00000000000E+00 0.  1.
         11    1    3    3    0    0 -0.54904148355E+01 -0.95430883683E+01 -0.60472173707E+01  0.12561211282E+02  0.51100000000E-03 0. -1.
        -11    1    3    3    0    0  0.11139729403E+02 -0.61444756404E+01 -0.10817390320E+02  0.16699224103E+02  0.51100000000E-03 0.  1.
        -12    1    3    3    0    0 -0.25010463363E+01  0.14074327257E+01 -0.21073916367E+02  0.21268428496E+02  0.00000000000E+00 0.  1.
</event>
<event>
 7    1  0.5992960E-013  0.5052886E+02  0.7816164E-02  0.1300439E+00
        -11   -1    0    0    0    0  0.00000000000E+00  0.00000000000E+00  0.45593999997E+02  0.45594000000E+02  0.51100000000E-03 0. -1.
         11   -1    0    0    0    0 -0.00000000000E+00 -0.00000000000E+00 -0.45593999997E+02  0.45594000000E+02  0.51100000000E-03 0.  1.
    9900012    2    1    2    0    0 -0.32800964466E+02  0.21670331613E+02 -0.10375886279E+02  0.50528861320E+02  0.30000004468E+02 0.  0.
        -12    1    1    2    0    0  0.32800964466E+02 -0.21670331613E+02  0.10375886279E+02  0.40659138680E+02  0.00000000000E+00 0.  1.
         11    1    3    3    0    0 -0.18196793960E+02  0.23649816985E+01 -0.81997224042E+01  0.20098554590E+02  0.51100000000E-03 0. -1.
        -11    1    3    3    0    0 -0.73400419137E+01  0.26509530970E+01 -0.81692252140E+01  0.11297787769E+02  0.51100000000E-03 0.  1.
         12    1    3    3    0    0 -0.72641285929E+01  0.16654396817E+02  0.59930613396E+01  0.19132518961E+02  0.00000000000E+00 0. -1.
</event>
<event>
 7    1  0.5992960E-013  0.5052885E+02  0.7816164E-02  0.1300439E+00
        -11   -1    0    0    0    0  0.00000000000E+00  0.00000000000E+00  0.45593999997E+02  0.45594000000E+02  0.51100000000E-03 0.  1.
         11   -1    0    0    0    0 -0.00000000000E+00 -0.00000000000E+00 -0.45593999997E+02  0.45594000000E+02  0.51100000000E-03 0. -1.
    9900012    2    1    2    0    0  0.35671442101E+02  0.42936420943E+01 -0.19033627306E+02  0.50528854504E+02  0.29999983752E+02 0.  0.
        -12    1    1    2    0    0 -0.35671442101E+02 -0.42936420943E+01  0.19033627306E+02  0.40659145496E+02  0.00000000000E+00 0.  1.
         11    1    3    3    0    0  0.15675924878E+02  0.76375066403E+01 -0.12622189436E+02  0.21526397629E+02  0.51100000000E-03 0. -1.
        -11    1    3    3    0    0  0.17657006636E+02  0.49915862489E+01 -0.83042722221E+01  0.20140674120E+02  0.51100000000E-03 0.  1.
        -12    1    3    3    0    0  0.23385105868E+01 -0.83354507949E+01  0.18928343515E+01  0.88617827553E+01  0.00000000000E+00 0.  1.
</event>
<event>
 7    1  0.5992960E-013  0.5052885E+02  0.7816164E-02  0.1300439E+00
        -11   -1    0    0    0    0  0.00000000000E+00  0.00000000000E+00  0.45593999997E+02  0.45594000000E+02  0.51100000000E-03 0.  1.
         11   -1    0    0    0    0 -0.00000000000E+00 -0.00000000000E+00 -0.45593999997E+02  0.45594000000E+02  0.51100000000E-03 0. -1.
    9900012    2    1    2    0    0  0.15186647326E+02  0.16469422847E+02 -0.33930675394E+02  0.50528845082E+02  0.29999955112E+02 0.  0.
        -12    1    1    2    0    0 -0.15186647326E+02 -0.16469422847E+02  0.33930675394E+02  0.40659154918E+02  0.00000000000E+00 0.  1.
         11    1    3    3    0    0  0.55167756651E-01  0.52740932527E+01  0.27608566883E+01  0.59532707845E+01  0.51100000000E-03 0.  1.
        -11    1    3    3    0    0 -0.37053474527E+01  0.27308710930E+01 -0.55736718481E+01  0.72286288328E+01  0.51100000000E-03 0. -1.
         12    1    3    3    0    0  0.18836827022E+02  0.84644585012E+01 -0.31117860235E+02  0.37346945465E+02  0.00000000000E+00 0. -1.
</event>
<event>
 7    1  0.5992960E-013  0.5052883E+02  0.7816164E-02  0.1300439E+00
        -11   -1    0    0    0    0  0.00000000000E+00  0.00000000000E+00  0.45593999997E+02  0.45594000000E+02  0.51100000000E-03 0.  1.
         11   -1    0    0    0    0 -0.00000000000E+00 -0.00000000000E+00 -0.45593999997E+02  0.45594000000E+02  0.51100000000E-03 0. -1.
    9900012    2    1    2    0    0 -0.32277921950E+02 -0.14497512506E+02 -0.20028124151E+02  0.50528832875E+02  0.29999918008E+02 0.  0.
        -12    1    1    2    0    0  0.32277921950E+02  0.14497512506E+02  0.20028124151E+02  0.40659167125E+02  0.00000000000E+00 0.  1.
         11    1    3    3    0    0 -0.14385400752E+02 -0.21732537070E+02 -0.13712178758E+02  0.29449393353E+02  0.51100000000E-03 0.  1.
        -11    1    3    3    0    0 -0.12039144046E+02  0.31443855332E+01 -0.62806564108E+01  0.13938249351E+02  0.51100000000E-03 0. -1.
        -12    1    3    3    0    0 -0.58533771520E+01  0.40906390309E+01 -0.35288981810E-01  0.71411901723E+01  0.00000000000E+00 0.  1.
</event>
<event>
 7    1  0.5992960E-013  0.5052888E+02  0.7816164E-02  0.1300439E+00
        -11   -1    0    0    0    0  0.00000000000E+00  0.00000000000E+00  0.45593999997E+02  0.45594000000E+02  0.51100000000E-03 0. -1.
         11   -1    0    0    0    0 -0.00000000000E+00 -0.00000000000E+00 -0.45593999997E+02  0.45594000000E+02  0.51100000000E-03 0.  1.
    9900012    2    1    2    0    0  0.36685897644E+01  0.48319158584E+01  0.40203959356E+02  0.50528876674E+02  0.30000051138E+02 0.  0.
        -12    1    1    2    0    0 -0.36685897644E+01 -0.48319158584E+01 -0.40203959356E+02  0.40659123326E+02  0.00000000000E+00 0.  1.
         11    1    3    3    0    0 -0.18951884672E+01  0.80093880278E+00  0.38244999440E+01  0.43428150288E+01  0.51100000000E-03 0. -1.
        -11    1    3    3    0    0  0.54893853145E+01 -0.11198414720E+02  0.21729182843E+02  0.25053846624E+02  0.51100000000E-03 0.  1.
         12    1    3    3    0    0  0.74392917071E-01  0.15229391775E+02  0.14650276569E+02  0.21132215021E+02  0.00000000000E+00 0. -1.
</event>
<event>
 7    1  0.5992960E-013  0.5052886E+02  0.7816164E-02  0.1300439E+00
        -11   -1    0    0    0    0  0.00000000000E+00  0.00000000000E+00  0.45593999997E+02  0.45594000000E+02  0.51100000000E-03 0. -1.
         11   -1    0    0    0    0 -0.00000000000E+00 -0.00000000000E+00 -0.45593999997E+02  0.45594000000E+02  0.51100000000E-03 0.  1.
    9900012    2    1    2    0    0  0.30293272277E+02  0.19859166828E+01 -0.27046992881E+02  0.50528855467E+02  0.29999986676E+02 0.  0.
        -12    1    1    2    0    0 -0.30293272277E+02 -0.19859166828E+01  0.27046992881E+02  0.40659144533E+02  0.00000000000E+00 0.  1.
         11    1    3    3    0    0  0.17510809936E+02  0.14311966686E+02 -0.11962875744E+02  0.25584590115E+02  0.51100000000E-03 0. -1.
        -11    1    3    3    0    0  0.23208987680E+01  0.13193198266E+01 -0.18853392144E+01  0.32682839703E+01  0.51100000000E-03 0.  1.
        -12    1    3    3    0    0  0.10461563572E+02 -0.13645369830E+02 -0.13198777922E+02  0.21675981381E+02  0.00000000000E+00 0.  1.
</event>
<event>
 7    1  0.5992960E-013  0.5052887E+02  0.7816164E-02  0.1300439E+00
        -11   -1    0    0    0    0  0.00000000000E+00  0.00000000000E+00  0.45593999997E+02  0.45594000000E+02  0.51100000000E-03 0. -1.
         11   -1    0    0    0    0 -0.00000000000E+00 -0.00000000000E+00 -0.45593999997E+02  0.45594000000E+02  0.51100000000E-03 0.  1.
    9900012    2    1    2    0    0  0.20886575704E+02  0.33492227932E+02 -0.97563648603E+01  0.50528867793E+02  0.30000024144E+02 0.  0.
        -12    1    1    2    0    0 -0.20886575704E+02 -0.33492227932E+02  0.97563648603E+01  0.40659132207E+02  0.00000000000E+00 0.  1.
         11    1    3    3    0    0 -0.38496489008E+00  0.33901226190E+01 -0.42310826048E+00  0.34380445314E+01  0.51100000000E-03 0. -1.
        -11    1    3    3    0    0  0.22567234513E+02  0.33172071540E+02 -0.33728025575E+01  0.40262168361E+02  0.51100000000E-03 0.  1.
        -12    1    3    3    0    0 -0.12956939185E+01 -0.30699662263E+01 -0.59604540423E+01  0.68286549006E+01  0.00000000000E+00 0.  1.
</event>
<event>
 7    1  0.5992960E-013  0.5052885E+02  0.7816164E-02  0.1300439E+00
        -11   -1    0    0    0    0  0.00000000000E+00  0.00000000000E+00  0.45593999997E+02  0.45594000000E+02  0.51100000000E-03 0.  1.
         11   -1    0    0    0    0 -0.00000000000E+00 -0.00000000000E+00 -0.45593999997E+02  0.45594000000E+02  0.51100000000E-03 0. -1.
    9900012    2    1    2    0    0  0.25565300895E+01 -0.40578682455E+02 -0.29471187148E-01  0.50528853619E+02  0.29999981060E+02 0.  0.
        -12    1    1    2    0    0 -0.25565300895E+01  0.40578682455E+02  0.29471187148E-01  0.40659146381E+02  0.00000000000E+00 0.  1.
         11    1    3    3    0    0 -0.12562478717E+01 -0.50247679989E+01 -0.77934539216E+01  0.93575839001E+01  0.51100000000E-03 0. -1.
        -11    1    3    3    0    0 -0.66401636726E+01 -0.16021131205E+02  0.78033352127E+01  0.19017372568E+02  0.51100000000E-03 0.  1.
        -12    1    3    3    0    0  0.10452941634E+02 -0.19532783252E+02 -0.39352478209E-01  0.22153897151E+02  0.00000000000E+00 0.  1.
</event>
<event>
 7    1  0.5992960E-013  0.5052886E+02  0.7816164E-02  0.1300439E+00
        -11   -1    0    0    0    0  0.00000000000E+00  0.00000000000E+00  0.45593999997E+02  0.45594000000E+02  0.51100000000E-03 0. -1.
         11   -1    0    0    0    0 -0.00000000000E+00 -0.00000000000E+00 -0.45593999997E+02  0.45594000000E+02  0.51100000000E-03 0.  1.
    9900012    2    1    2    0    0  0.20035082619E+02  0.16513492906E+02  0.31290028218E+02  0.50528857740E+02  0.29999993586E+02 0.  0.
        -12    1    1    2    0    0 -0.20035082619E+02 -0.16513492906E+02 -0.31290028218E+02  0.40659142260E+02  0.00000000000E+00 0.  1.
         11    1    3    3    0    0  0.12937858676E+02  0.12155736325E+02  0.52780070766E+00  0.17760312120E+02  0.51100000000E-03 0.  1.
        -11    1    3    3    0    0  0.10517274514E+01  0.32441669959E+01  0.37634972324E+01  0.50788445348E+01  0.51100000000E-03 0. -1.
        -12    1    3    3    0    0  0.60454964908E+01  0.11135895845E+01  0.26998730278E+02  0.27689701085E+02  0.00000000000E+00 0.  1.
</event>
<event>
 7    1  0.5992960E-013  0.5052886E+02  0.7816164E-02  0.1300439E+00
        -11   -1    0    0    0    0  0.00000000000E+00  0.00000000000E+00  0.45593999997E+02  0.45594000000E+02  0.51100000000E-03 0.  1.
         11   -1    0    0    0    0 -0.00000000000E+00 -0.00000000000E+00 -0.45593999997E+02  0.45594000000E+02  0.51100000000E-03 0. -1.
    9900012    2    1    2    0    0 -0.31889261457E+02 -0.15599466073E+02 -0.19821632187E+02  0.50528862766E+02  0.30000008863E+02 0.  0.
        -12    1    1    2    0    0  0.31889261457E+02  0.15599466073E+02  0.19821632187E+02  0.40659137234E+02  0.00000000000E+00 0.  1.
         11    1    3    3    0    0 -0.21236973163E+02 -0.44713350186E+01 -0.11773994702E+02  0.24690662556E+02  0.51100000000E-03 0. -1.
        -11    1    3    3    0    0 -0.10821586857E+02 -0.14062650539E+02 -0.11621056158E+02  0.21211172263E+02  0.51100000000E-03 0.  1.
         12    1    3    3    0    0  0.16929856291E+00  0.29345194843E+01  0.35734186726E+01  0.46270279464E+01  0.00000000000E+00 0. -1.
</event>
<event>
 7    1  0.5992960E-013  0.5052886E+02  0.7816164E-02  0.1300439E+00
        -11   -1    0    0    0    0  0.00000000000E+00  0.00000000000E+00  0.45593999997E+02  0.45594000000E+02  0.51100000000E-03 0.  1.
         11   -1    0    0    0    0 -0.00000000000E+00 -0.00000000000E+00 -0.45593999997E+02  0.45594000000E+02  0.51100000000E-03 0. -1.
    9900012    2    1    2    0    0  0.45660111270E+01 -0.56702936022E+01 -0.40002061033E+02  0.50528861125E+02  0.30000003876E+02 0.  0.
        -12    1    1    2    0    0 -0.45660111270E+01  0.56702936022E+01  0.40002061033E+02  0.40659138875E+02  0.00000000000E+00 0.  1.
         11    1    3    3    0    0  0.28201557442E+01  0.20339348306E+01  0.13667120027E+00  0.34797770898E+01  0.51100000000E-03 0. -1.
        -11    1    3    3    0    0 -0.49410584457E+01 -0.96904650550E+01 -0.64506012304E+01  0.12646320731E+02  0.51100000000E-03 0.  1.
         12    1    3    3    0    0  0.66869138284E+01  0.19862366222E+01 -0.33688131003E+02  0.34402763304E+02  0.00000000000E+00 0. -1.
</event>
<event>
 7    1  0.5992960E-013  0.5052886E+02  0.7816164E-02  0.1300439E+00
        -11   -1    0    0    0    0  0.00000000000E+00  0.00000000000E+00  0.45593999997E+02  0.45594000000E+02  0.51100000000E-03 0.  1.
         11   -1    0    0    0    0 -0.00000000000E+00 -0.00000000000E+00 -0.45593999997E+02  0.45594000000E+02  0.51100000000E-03 0. -1.
    9900012    2    1    2    0    0 -0.10060555869E+02 -0.21761506155E+02 -0.32838811488E+02  0.50528862350E+02  0.30000007598E+02 0.  0.
        -12    1    1    2    0    0  0.10060555869E+02  0.21761506155E+02  0.32838811488E+02  0.40659137650E+02  0.00000000000E+00 0.  1.
         11    1    3    3    0    0  0.27978841083E+01 -0.66122856318E+01 -0.11693461455E+02  0.13721789891E+02  0.51100000000E-03 0. -1.
        -11    1    3    3    0    0  0.16087023142E+01 -0.81198929891E+00 -0.15591750062E+02  0.15695538220E+02  0.51100000000E-03 0.  1.
         12    1    3    3    0    0 -0.14467142291E+02 -0.14337231224E+02 -0.55535999708E+01  0.21111534238E+02  0.00000000000E+00 0. -1.
</event>
<event>
 7    1  0.5992960E-013  0.5052885E+02  0.7816164E-02  0.1300439E+00
        -11   -1    0    0    0    0  0.00000000000E+00  0.00000000000E+00  0.45593999997E+02  0.45594000000E+02  0.51100000000E-03 0.  1.
         11   -1    0    0    0    0 -0.00000000000E+00 -0.00000000000E+00 -0.45593999997E+02  0.45594000000E+02  0.51100000000E-03 0. -1.
    9900012    2    1    2    0    0  0.37643332886E+02 -0.15284021747E+02  0.15950734041E+01  0.50528854771E+02  0.29999984563E+02 0.  0.
        -12    1    1    2    0    0 -0.37643332886E+02  0.15284021747E+02 -0.15950734041E+01  0.40659145229E+02  0.00000000000E+00 0.  1.
         11    1    3    3    0    0  0.16784907576E+02 -0.69951538920E+01  0.10024132762E+02  0.20764116600E+02  0.51100000000E-03 0. -1.
        -11    1    3    3    0    0  0.61597511448E+01 -0.10348214997E+02  0.11535254817E+01  0.12097880355E+02  0.51100000000E-03 0.  1.
         12    1    3    3    0    0  0.14698674166E+02  0.20593471420E+01 -0.95825848392E+01  0.17666857816E+02  0.00000000000E+00 0. -1.
</event>
<event>
 7    1  0.5992960E-013  0.5052886E+02  0.7816164E-02  0.1300439E+00
        -11   -1    0    0    0    0  0.00000000000E+00  0.00000000000E+00  0.45593999997E+02  0.45594000000E+02  0.51100000000E-03 0. -1.
         11   -1    0    0    0    0 -0.00000000000E+00 -0.00000000000E+00 -0.45593999997E+02  0.45594000000E+02  0.51100000000E-03 0.  1.
    9900012    2    1    2    0    0 -0.24814427214E+00  0.30636540068E+01  0.40542793412E+02  0.50528860202E+02  0.30000001071E+02 0.  0.
        -12    1    1    2    0    0  0.24814427214E+00 -0.30636540068E+01 -0.40542793412E+02  0.40659139798E+02  0.00000000000E+00 0.  1.
         11    1    3    3    0    0 -0.54771756048E+01  0.99960915701E+01  0.19766126909E+02  0.22817122354E+02  0.51100000000E-03 0. -1.
        -11    1    3    3    0    0 -0.29352448658E+01 -0.25493624639E+01 -0.10265936825E+01  0.40210454169E+01  0.51100000000E-03 0.  1.
        -12    1    3    3    0    0  0.81642761985E+01 -0.43830750994E+01  0.21803260185E+02  0.23690692432E+02  0.00000000000E+00 0.  1.
</event>
<event>
 7    1  0.5992960E-013  0.5052886E+02  0.7816164E-02  0.1300439E+00
        -11   -1    0    0    0    0  0.00000000000E+00  0.00000000000E+00  0.45593999997E+02  0.45594000000E+02  0.51100000000E-03 0. -1.
         11   -1    0    0    0    0 -0.00000000000E+00 -0.00000000000E+00 -0.45593999997E+02  0.45594000000E+02  0.51100000000E-03 0.  1.
    9900012    2    1    2    0    0  0.46805368564E+01 -0.29657417680E+02  0.27417078523E+02  0.50528855353E+02  0.29999986330E+02 0.  0.
        -12    1    1    2    0    0 -0.46805368564E+01  0.29657417680E+02 -0.27417078523E+02  0.40659144647E+02  0.00000000000E+00 0.  1.
         11    1    3    3    0    0  0.77737879832E+01  0.16012018932E+01  0.83456489757E+00  0.79807346742E+01  0.51100000000E-03 0. -1.
        -11    1    3    3    0    0  0.29030410089E+01 -0.19697541095E+02  0.13286898137E+02  0.23936633737E+02  0.51100000000E-03 0.  1.
         12    1    3    3    0    0 -0.59962921358E+01 -0.11561078478E+02  0.13295615488E+02  0.18611486942E+02  0.00000000000E+00 0. -1.
</event>
<event>
 7    1  0.5992960E-013  0.5052887E+02  0.7816164E-02  0.1300439E+00
        -11   -1    0    0    0    0  0.00000000000E+00  0.00000000000E+00  0.45593999997E+02  0.45594000000E+02  0.51100000000E-03 0. -1.
         11   -1    0    0    0    0 -0.00000000000E+00 -0.00000000000E+00 -0.45593999997E+02  0.45594000000E+02  0.51100000000E-03 0.  1.
    9900012    2    1    2    0    0 -0.34911469602E+02  0.10244523471E+02  0.18149485366E+02  0.50528870767E+02  0.30000033185E+02 0.  0.
        -12    1    1    2    0    0  0.34911469602E+02 -0.10244523471E+02 -0.18149485366E+02  0.40659129233E+02  0.00000000000E+00 0.  1.
         11    1    3    3    0    0 -0.22787202502E+02  0.43076437633E+00  0.65185721624E+01  0.23705145836E+02  0.51100000000E-03 0. -1.
        -11    1    3    3    0    0 -0.16844568826E+02  0.62661214270E+01  0.68771958953E+01  0.19243170225E+02  0.51100000000E-03 0.  1.
        -12    1    3    3    0    0  0.47203017261E+01  0.35476376676E+01  0.47537173085E+01  0.75805547063E+01  0.00000000000E+00 0.  1.
</event>
<event>
 7    1  0.5992960E-013  0.5052886E+02  0.7816164E-02  0.1300439E+00
        -11   -1    0    0    0    0  0.00000000000E+00  0.00000000000E+00  0.45593999997E+02  0.45594000000E+02  0.51100000000E-03 0.  1.
         11   -1    0    0    0    0 -0.00000000000E+00 -0.00000000000E+00 -0.45593999997E+02  0.45594000000E+02  0.51100000000E-03 0. -1.
    9900012    2    1    2    0    0 -0.22881574618E+02  0.60190224345E+01 -0.33066160292E+02  0.50528855340E+02  0.29999986290E+02 0.  0.
        -12    1    1    2    0    0  0.22881574618E+02 -0.60190224345E+01  0.33066160292E+02  0.40659144660E+02  0.00000000000E+00 0.  1.
         11    1    3    3    0    0 -0.20399865200E+02  0.89840091149E+00 -0.12077009541E+02  0.23723738831E+02  0.51100000000E-03 0. -1.
        -11    1    3    3    0    0 -0.97031992942E+00  0.45986029563E+01  0.96074897219E+00  0.47970520910E+01  0.51100000000E-03 0.  1.
         12    1    3    3    0    0 -0.15113894882E+01  0.52201856663E+00 -0.21949899723E+02  0.22008064418E+02  0.00000000000E+00 0. -1.
</event>
<event>
 7    1  0.5992960E-013  0.5052887E+02  0.7816164E-02  0.1300439E+00
        -11   -1    0    0    0    0  0.00000000000E+00  0.00000000000E+00  0.45593999997E+02  0.45594000000E+02  0.51100000000E-03 0. -1.
         11   -1    0    0    0    0 -0.00000000000E+00 -0.00000000000E+00 -0.45593999997E+02  0.45594000000E+02  0.51100000000E-03 0.  1.
    9900012    2    1    2    0    0  0.62065866584E+01 -0.12559443616E+02  0.38169410105E+02  0.50528865607E+02  0.30000017498E+02 0.  0.
        -12    1    1    2    0    0 -0.62065866584E+01  0.12559443616E+02 -0.38169410105E+02  0.40659134393E+02  0.00000000000E+00 0.  1.
         11    1    3    3    0    0  0.10131116384E+01  0.23399829209E+01  0.18416475571E+02  0.18592162004E+02  0.51100000000E-03 0. -1.
        -11    1    3    3    0    0 -0.10183080197E+01  0.31903473061E+01 -0.12087018185E+01  0.35603690123E+01  0.51100000000E-03 0.  1.
        -12    1    3    3    0    0  0.62117830396E+01 -0.18089773843E+02  0.20961636352E+02  0.28376334590E+02  0.00000000000E+00 0.  1.
</event>
<event>
 7    1  0.5992960E-013  0.5052885E+02  0.7816164E-02  0.1300439E+00
        -11   -1    0    0    0    0  0.00000000000E+00  0.00000000000E+00  0.45593999997E+02  0.45594000000E+02  0.51100000000E-03 0. -1.
         11   -1    0    0    0    0 -0.00000000000E+00 -0.00000000000E+00 -0.45593999997E+02  0.45594000000E+02  0.51100000000E-03 0.  1.
    9900012    2    1    2    0    0 -0.17252474546E+02 -0.20340951750E+02  0.30688173533E+02  0.50528853540E+02  0.29999980819E+02 0.  0.
        -12    1    1    2    0    0  0.17252474546E+02  0.20340951750E+02 -0.30688173533E+02  0.40659146460E+02  0.00000000000E+00 0.  1.
         11    1    3    3    0    0  0.21867082852E+01 -0.11988642702E+01  0.98428152297E+00  0.26810033645E+01  0.51100000000E-03 0. -1.
        -11    1    3    3    0    0 -0.14926359481E+01  0.57583338304E+01  0.91288111001E+01  0.10895942499E+02  0.51100000000E-03 0.  1.
        -12    1    3    3    0    0 -0.17946546883E+02 -0.24900421311E+02  0.20575080910E+02  0.36951907676E+02  0.00000000000E+00 0.  1.
</event>
<event>
 7    1  0.5992960E-013  0.5052886E+02  0.7816164E-02  0.1300439E+00
        -11   -1    0    0    0    0  0.00000000000E+00  0.00000000000E+00  0.45593999997E+02  0.45594000000E+02  0.51100000000E-03 0.  1.
         11   -1    0    0    0    0 -0.00000000000E+00 -0.00000000000E+00 -0.45593999997E+02  0.45594000000E+02  0.51100000000E-03 0. -1.
    9900012    2    1    2    0    0 -0.31907466160E+01  0.59610932310E+01 -0.40093014414E+02  0.50528864480E+02  0.30000014072E+02 0.  0.
        -12    1    1    2    0    0  0.31907466160E+01 -0.59610932310E+01  0.40093014414E+02  0.40659135520E+02  0.00000000000E+00 0.  1.
         11    1    3    3    0    0 -0.39649695020E+00 -0.26768394353E+01  0.27736527178E+01  0.38750263036E+01  0.51100000000E-03 0. -1.
        -11    1    3    3    0    0  0.12994834739E+01 -0.18859901646E+00  0.10443740290E+01  0.16777795628E+01  0.51100000000E-03 0.  1.
         12    1    3    3    0    0 -0.40937331398E+01  0.88265316827E+01 -0.43911041161E+02  0.44976058613E+02  0.00000000000E+00 0. -1.
</event>
<event>
 7    1  0.5992960E-013  0.5052887E+02  0.7816164E-02  0.1300439E+00
        -11   -1    0    0    0    0  0.00000000000E+00  0.00000000000E+00  0.45593999997E+02  0.45594000000E+02  0.51100000000E-03 0. -1.
         11   -1    0    0    0    0 -0.00000000000E+00 -0.00000000000E+00 -0.45593999997E+02  0.45594000000E+02  0.51100000000E-03 0.  1.
    9900012    2    1    2    0    0 -0.33879143952E+02  0.62481812600E+01  0.21594640836E+02  0.50528872159E+02  0.30000037413E+02 0.  0.
        -12    1    1    2    0    0  0.33879143952E+02 -0.62481812600E+01 -0.21594640836E+02  0.40659127841E+02  0.00000000000E+00 0.  1.
         11    1    3    3    0    0  0.14768963768E+01  0.40825038416E+00  0.37021962006E+01  0.40067628146E+01  0.51100000000E-03 0. -1.
        -11    1    3    3    0    0  0.34563979589E+01  0.14160751054E+01  0.52620861419E+00  0.37721149666E+01  0.51100000000E-03 0.  1.
         12    1    3    3    0    0 -0.38812438288E+02  0.44238557704E+01  0.17366236021E+02  0.42749994377E+02  0.00000000000E+00 0. -1.
</event>
<event>
 7    1  0.5992960E-013  0.5052885E+02  0.7816164E-02  0.1300439E+00
        -11   -1    0    0    0    0  0.00000000000E+00  0.00000000000E+00  0.45593999997E+02  0.45594000000E+02  0.51100000000E-03 0. -1.
         11   -1    0    0    0    0 -0.00000000000E+00 -0.00000000000E+00 -0.45593999997E+02  0.45594000000E+02  0.51100000000E-03 0.  1.
    9900012    2    1    2    0    0 -0.19880398632E+02  0.14459598817E+02  0.32386052766E+02  0.50528847752E+02  0.29999963228E+02 0.  0.
        -12    1    1    2    0    0  0.19880398632E+02 -0.14459598817E+02 -0.32386052766E+02  0.40659152248E+02  0.00000000000E+00 0.  1.
         11    1    3    3    0    0 -0.12815546001E+02  0.12028618550E+02  0.14447509719E+02  0.22752064101E+02  0.51100000000E-03 0. -1.
        -11    1    3    3    0    0 -0.41020718358E+01  0.10223563702E+02  0.43684272621E+01  0.11850375737E+02  0.51100000000E-03 0.  1.
         12    1    3    3    0    0 -0.29627807950E+01 -0.77925834342E+01  0.13570115785E+02  0.15926407914E+02  0.00000000000E+00 0. -1.
</event>
