<event>
 7    1  0.4963616E-011  0.5052886E+02  0.7816164E-02  0.1300439E+00
        -11   -1    0    0    0    0  0.00000000000E+00  0.00000000000E+00  0.45593999997E+02  0.45594000000E+02  0.51100000000E-03 0.  1.
         11   -1    0    0    0    0 -0.00000000000E+00 -0.00000000000E+00 -0.45593999997E+02  0.45594000000E+02  0.51100000000E-03 0. -1.
    9900012    2    1    2    0    0 -0.83160776382E+01 -0.38087327827E+02 -0.11548347825E+02  0.50528855571E+02  0.29999986992E+02 0.  0.
        -12    1    1    2    0    0  0.83160776382E+01  0.38087327827E+02  0.11548347825E+02  0.40659144429E+02  0.00000000000E+00 0.  1.
         11    1    3    3    0    0 -0.46428882933E+01 -0.12522666724E+02 -0.62816152927E+00  0.13370421862E+02  0.51100000000E-03 0. -1.
        -11    1    3    3    0    0 -0.89100608626E+01 -0.35766497546E+01 -0.10939725785E+02  0.14555384178E+02  0.51100000000E-03 0.  1.
        -12    1    3    3    0    0  0.52368715176E+01 -0.21988011348E+02  0.19539489971E-01  0.22603049531E+02  0.00000000000E+00 0.  1.
</event>
<event>
 7    1  0.4963616E-011  0.5052886E+02  0.7816164E-02  0.1300439E+00
        -11   -1    0    0    0    0  0.00000000000E+00  0.00000000000E+00  0.45593999997E+02  0.45594000000E+02  0.51100000000E-03 0.  1.
         11   -1    0    0    0    0 -0.00000000000E+00 -0.00000000000E+00 -0.45593999997E+02  0.45594000000E+02  0.51100000000E-03 0. -1.
    9900012    2    1    2    0    0 -0.24388674454E+02 -0.29756225885E+02 -0.13150111787E+02  0.50528857602E+02  0.29999993168E+02 0.  0.
        -12    1    1    2    0    0  0.24388674454E+02  0.29756225885E+02  0.13150111787E+02  0.40659142398E+02  0.00000000000E+00 0.  1.
         11    1    3    3    0    0 -0.15137847113E+02 -0.44096851054E+01 -0.75235448186E+01  0.17470073407E+02  0.51100000000E-03 0. -1.
        -11    1    3    3    0    0 -0.61696268464E+00 -0.23548716920E+02 -0.24448330366E+01  0.23683325788E+02  0.51100000000E-03 0.  1.
        -12    1    3    3    0    0 -0.86338646569E+01 -0.17978238589E+01 -0.31817339315E+01  0.93754584076E+01  0.00000000000E+00 0.  1.
</event>
<event>
 7    1  0.4963616E-011  0.5052887E+02  0.7816164E-02  0.1300439E+00
        -11   -1    0    0    0    0  0.00000000000E+00  0.00000000000E+00  0.45593999997E+02  0.45594000000E+02  0.51100000000E-03 0.  1.
         11   -1    0    0    0    0 -0.00000000000E+00 -0.00000000000E+00 -0.45593999997E+02  0.45594000000E+02  0.51100000000E-03 0. -1.
    9900012    2    1    2    0    0  0.12668670583E+02  0.17049117924E+02 -0.34669836480E+02  0.50528865751E+02  0.30000017937E+02 0.  0.
        -12    1    1    2    0    0 -0.12668670583E+02 -0.17049117924E+02  0.34669836480E+02  0.40659134249E+02  0.00000000000E+00 0.  1.
         11    1    3    3    0    0  0.16871428234E+01  0.81127601487E+00 -0.14022097012E+02  0.14146512805E+02  0.51100000000E-03 0. -1.
        -11    1    3    3    0    0 -0.32180373366E+00  0.35337348410E+00  0.45209470966E+01  0.45461404921E+01  0.51100000000E-03 0.  1.
        -12    1    3    3    0    0  0.11303331493E+02  0.15884468425E+02 -0.25168686565E+02  0.31836212454E+02  0.00000000000E+00 0.  1.
</event>
<event>
 7    1  0.4963616E-011  0.5052885E+02  0.7816164E-02  0.1300439E+00
        -11   -1    0    0    0    0  0.00000000000E+00  0.00000000000E+00  0.45593999997E+02  0.45594000000E+02  0.51100000000E-03 0.  1.
         11   -1    0    0    0    0 -0.00000000000E+00 -0.00000000000E+00 -0.45593999997E+02  0.45594000000E+02  0.51100000000E-03 0. -1.
    9900012    2    1    2    0    0 -0.30882865010E+02  0.26401054765E+02  0.15489410714E+01  0.50528852661E+02  0.29999978148E+02 0.  0.
        -12    1    1    2    0    0  0.30882865010E+02 -0.26401054765E+02 -0.15489410714E+01  0.40659147339E+02  0.00000000000E+00 0.  1.
         11    1    3    3    0    0 -0.77608286918E+01  0.13807621837E+02 -0.27725535022E+01  0.16080047760E+02  0.51100000000E-03 0. -1.
        -11    1    3    3    0    0 -0.21499685496E+02  0.95948682962E+01  0.11722363510E+02  0.26300414076E+02  0.51100000000E-03 0.  1.
        -12    1    3    3    0    0 -0.16223508223E+01  0.29985646316E+01 -0.74008689359E+01  0.81483908257E+01  0.00000000000E+00 0.  1.
</event>
<event>
 7    1  0.4963616E-011  0.5052887E+02  0.7816164E-02  0.1300439E+00
        -11   -1    0    0    0    0  0.00000000000E+00  0.00000000000E+00  0.45593999997E+02  0.45594000000E+02  0.51100000000E-03 0. -1.
         11   -1    0    0    0    0 -0.00000000000E+00 -0.00000000000E+00 -0.45593999997E+02  0.45594000000E+02  0.51100000000E-03 0.  1.
    9900012    2    1    2    0    0  0.38693890602E+02  0.19149191336E+01 -0.12340224465E+02  0.50528865417E+02  0.30000016921E+02 0.  0.
        -12    1    1    2    0    0 -0.38693890602E+02 -0.19149191336E+01  0.12340224465E+02  0.40659134583E+02  0.00000000000E+00 0.  1.
         11    1    3    3    0    0  0.16260506034E+01 -0.23242221926E+01  0.73995663554E+01  0.79246218758E+01  0.51100000000E-03 0. -1.
        -11    1    3    3    0    0  0.24762135920E+02  0.31213279275E+01 -0.16185372936E+02  0.29746804210E+02  0.51100000000E-03 0.  1.
         12    1    3    3    0    0  0.12305704078E+02  0.11178133988E+01 -0.35544178852E+01  0.12857439331E+02  0.00000000000E+00 0. -1.
</event>
<event>
 7    1  0.4963616E-011  0.5052886E+02  0.7816164E-02  0.1300439E+00
        -11   -1    0    0    0    0  0.00000000000E+00  0.00000000000E+00  0.45593999997E+02  0.45594000000E+02  0.51100000000E-03 0.  1.
         11   -1    0    0    0    0 -0.00000000000E+00 -0.00000000000E+00 -0.45593999997E+02  0.45594000000E+02  0.51100000000E-03 0. -1.
    9900012    2    1    2    0    0 -0.11928363587E+02  0.35186587021E+02 -0.16516168444E+02  0.50528861001E+02  0.30000003498E+02 0.  0.
        -12    1    1    2    0    0  0.11928363587E+02 -0.35186587021E+02  0.16516168444E+02  0.40659138999E+02  0.00000000000E+00 0.  1.
         11    1    3    3    0    0 -0.39273114054E+01  0.31793838011E+02 -0.66247440205E+01  0.32713286963E+02  0.51100000000E-03 0. -1.
        -11    1    3    3    0    0 -0.98027429932E+01  0.27633453467E+01 -0.11469757832E+02  0.15339008856E+02  0.51100000000E-03 0.  1.
         12    1    3    3    0    0  0.18016908112E+01  0.62940366359E+00  0.15783334084E+01  0.24765651816E+01  0.00000000000E+00 0. -1.
</event>
<event>
 7    1  0.4963616E-011  0.5052886E+02  0.7816164E-02  0.1300439E+00
        -11   -1    0    0    0    0  0.00000000000E+00  0.00000000000E+00  0.45593999997E+02  0.45594000000E+02  0.51100000000E-03 0.  1.
         11   -1    0    0    0    0 -0.00000000000E+00 -0.00000000000E+00 -0.45593999997E+02  0.45594000000E+02  0.51100000000E-03 0. -1.
    9900012    2    1    2    0    0 -0.27072003152E+02 -0.70714500803E+01 -0.29500291563E+02  0.50528856339E+02  0.29999989329E+02 0.  0.
        -12    1    1    2    0    0  0.27072003152E+02  0.70714500803E+01  0.29500291563E+02  0.40659143661E+02  0.00000000000E+00 0.  1.
         11    1    3    3    0    0 -0.11690345941E+02 -0.97091071239E+01 -0.16279994279E+02  0.22270365138E+02  0.51100000000E-03 0. -1.
        -11    1    3    3    0    0 -0.25324774614E+01 -0.82194791128E-02  0.51183380260E+01  0.57105948956E+01  0.51100000000E-03 0.  1.
        -12    1    3    3    0    0 -0.12849179750E+02  0.26458765227E+01 -0.18338635309E+02  0.22547896306E+02  0.00000000000E+00 0.  1.
</event>
<event>
 7    1  0.4963616E-011  0.5052887E+02  0.7816164E-02  0.1300439E+00
        -11   -1    0    0    0    0  0.00000000000E+00  0.00000000000E+00  0.45593999997E+02  0.45594000000E+02  0.51100000000E-03 0. -1.
         11   -1    0    0    0    0 -0.00000000000E+00 -0.00000000000E+00 -0.45593999997E+02  0.45594000000E+02  0.51100000000E-03 0.  1.
    9900012    2    1    2    0    0  0.14375408451E+02 -0.10214692877E+02  0.36635672110E+02  0.50528870771E+02  0.30000033196E+02 0.  0.
        -12    1    1    2    0    0 -0.14375408451E+02  0.10214692877E+02 -0.36635672110E+02  0.40659129229E+02  0.00000000000E+00 0.  1.
         11    1    3    3    0    0 -0.37155985626E+01  0.30203148541E+01  0.20813636383E+02  0.21357327413E+02  0.51100000000E-03 0. -1.
        -11    1    3    3    0    0  0.25446593663E+01 -0.75264638093E+01  0.52914119115E+01  0.95457838359E+01  0.51100000000E-03 0.  1.
         12    1    3    3    0    0  0.15546347648E+02 -0.57085439219E+01  0.10530623815E+02  0.19625759522E+02  0.00000000000E+00 0. -1.
</event>
<event>
 7    1  0.4963616E-011  0.5052879E+02  0.7816164E-02  0.1300439E+00
        -11   -1    0    0    0    0  0.00000000000E+00  0.00000000000E+00  0.45593999997E+02  0.45594000000E+02  0.51100000000E-03 0. -1.
         11   -1    0    0    0    0 -0.00000000000E+00 -0.00000000000E+00 -0.45593999997E+02  0.45594000000E+02  0.51100000000E-03 0.  1.
    9900012    2    1    2    0    0  0.17843603388E+02 -0.28018364995E+02  0.23446711818E+02  0.50528791277E+02  0.29999791566E+02 0.  0.
        -12    1    1    2    0    0 -0.17843603388E+02  0.28018364995E+02 -0.23446711818E+02  0.40659208723E+02  0.00000000000E+00 0.  1.
         11    1    3    3    0    0  0.13384715121E+02 -0.17288063422E+02  0.20164406948E+02  0.29742747748E+02  0.51100000000E-03 0. -1.
        -11    1    3    3    0    0 -0.28273505101E+01  0.29792535578E+01 -0.17511069788E+01  0.44650015208E+01  0.51100000000E-03 0.  1.
        -12    1    3    3    0    0  0.72862387773E+01 -0.13709555131E+02  0.50334118487E+01  0.16321042009E+02  0.00000000000E+00 0.  1.
</event>
<event>
 7    1  0.4963616E-011  0.5052885E+02  0.7816164E-02  0.1300439E+00
        -11   -1    0    0    0    0  0.00000000000E+00  0.00000000000E+00  0.45593999997E+02  0.45594000000E+02  0.51100000000E-03 0.  1.
         11   -1    0    0    0    0 -0.00000000000E+00 -0.00000000000E+00 -0.45593999997E+02  0.45594000000E+02  0.51100000000E-03 0. -1.
    9900012    2    1    2    0    0 -0.31704455385E+02  0.25249775060E+02 -0.32315972270E+01  0.50528845404E+02  0.29999956090E+02 0.  0.
        -12    1    1    2    0    0  0.31704455385E+02 -0.25249775060E+02  0.32315972270E+01  0.40659154596E+02  0.00000000000E+00 0.  1.
         11    1    3    3    0    0 -0.12563935730E+02 -0.48693115198E+00 -0.23529498122E+01  0.12791636175E+02  0.51100000000E-03 0. -1.
        -11    1    3    3    0    0 -0.17896324377E+02  0.27371017978E+02 -0.50476029797E+01  0.33089716642E+02  0.51100000000E-03 0.  1.
        -12    1    3    3    0    0 -0.12441952777E+01 -0.16343117660E+01  0.41689555648E+01  0.46474925862E+01  0.00000000000E+00 0.  1.
</event>
<event>
 7    1  0.4963616E-011  0.5052886E+02  0.7816164E-02  0.1300439E+00
        -11   -1    0    0    0    0  0.00000000000E+00  0.00000000000E+00  0.45593999997E+02  0.45594000000E+02  0.51100000000E-03 0.  1.
         11   -1    0    0    0    0 -0.00000000000E+00 -0.00000000000E+00 -0.45593999997E+02  0.45594000000E+02  0.51100000000E-03 0. -1.
    9900012    2    1    2    0    0 -0.92405592662E+00 -0.21715084456E+02 -0.34362286470E+02  0.50528861990E+02  0.30000006504E+02 0.  0.
        -12    1    1    2    0    0  0.92405592662E+00  0.21715084456E+02  0.34362286470E+02  0.40659138010E+02  0.00000000000E+00 0.  1.
         11    1    3    3    0    0  0.13369459008E+02 -0.10268918125E+02 -0.22752410989E+02  0.28317226554E+02  0.51100000000E-03 0. -1.
        -11    1    3    3    0    0 -0.12044590236E+02 -0.76681465225E+01 -0.10359341633E+02  0.17640538098E+02  0.51100000000E-03 0.  1.
         12    1    3    3    0    0 -0.22489246983E+01 -0.37780198079E+01 -0.12505338479E+01  0.45710973378E+01  0.00000000000E+00 0. -1.
</event>
<event>
 7    1  0.4963616E-011  0.5052885E+02  0.7816164E-02  0.1300439E+00
        -11   -1    0    0    0    0  0.00000000000E+00  0.00000000000E+00  0.45593999997E+02  0.45594000000E+02  0.51100000000E-03 0.  1.
         11   -1    0    0    0    0 -0.00000000000E+00 -0.00000000000E+00 -0.45593999997E+02  0.45594000000E+02  0.51100000000E-03 0. -1.
    9900012    2    1    2    0    0 -0.20147051901E+02  0.87460185785E+01 -0.34216510884E+02  0.50528853939E+02  0.29999982034E+02 0.  0.
        -12    1    1    2    0    0  0.20147051901E+02 -0.87460185785E+01  0.34216510884E+02  0.40659146061E+02  0.00000000000E+00 0.  1.
         11    1    3    3    0    0 -0.19386492656E+02  0.16176840640E+02 -0.22669259670E+02  0.33932603861E+02  0.51100000000E-03 0. -1.
        -11    1    3    3    0    0  0.18344581506E+01 -0.35153171520E+01 -0.11205601372E+02  0.11886471039E+02  0.51100000000E-03 0.  1.
         12    1    3    3    0    0 -0.25950173957E+01 -0.39155049097E+01 -0.34164984262E+00  0.47097790391E+01  0.00000000000E+00 0. -1.
</event>
<event>
 7    1  0.4963616E-011  0.5052885E+02  0.7816164E-02  0.1300439E+00
        -11   -1    0    0    0    0  0.00000000000E+00  0.00000000000E+00  0.45593999997E+02  0.45594000000E+02  0.51100000000E-03 0. -1.
         11   -1    0    0    0    0 -0.00000000000E+00 -0.00000000000E+00 -0.45593999997E+02  0.45594000000E+02  0.51100000000E-03 0.  1.
    9900012    2    1    2    0    0  0.15781497028E+02 -0.21009250074E+01  0.37412519099E+02  0.50528854416E+02  0.29999983482E+02 0.  0.
        -12    1    1    2    0    0 -0.15781497028E+02  0.21009250074E+01 -0.37412519099E+02  0.40659145584E+02  0.00000000000E+00 0.  1.
         11    1    3    3    0    0  0.76964166034E+01  0.10142563680E+02  0.24888846580E+02  0.27956414485E+02  0.51100000000E-03 0. -1.
        -11    1    3    3    0    0  0.93933666764E+01 -0.48053966198E+01  0.42631027147E+01  0.11379860245E+02  0.51100000000E-03 0.  1.
         12    1    3    3    0    0 -0.13082862519E+01 -0.74380920673E+01  0.82605698040E+01  0.11192579685E+02  0.00000000000E+00 0. -1.
</event>
<event>
 7    1  0.4963616E-011  0.5052887E+02  0.7816164E-02  0.1300439E+00
        -11   -1    0    0    0    0  0.00000000000E+00  0.00000000000E+00  0.45593999997E+02  0.45594000000E+02  0.51100000000E-03 0. -1.
         11   -1    0    0    0    0 -0.00000000000E+00 -0.00000000000E+00 -0.45593999997E+02  0.45594000000E+02  0.51100000000E-03 0.  1.
    9900012    2    1    2    0    0  0.25904550874E+02  0.31104299954E+02 -0.38264859047E+01  0.50528865405E+02  0.30000016887E+02 0.  0.
        -12    1    1    2    0    0 -0.25904550874E+02 -0.31104299954E+02  0.38264859047E+01  0.40659134595E+02  0.00000000000E+00 0.  1.
         11    1    3    3    0    0  0.13779839873E+02  0.22043767546E+02  0.84573906187E+01  0.27337504109E+02  0.51100000000E-03 0. -1.
        -11    1    3    3    0    0  0.11057461574E+01 -0.30812462204E+01 -0.19605258052E+01  0.38158111234E+01  0.51100000000E-03 0.  1.
         12    1    3    3    0    0  0.11018964843E+02  0.12141778628E+02 -0.10323350718E+02  0.19375550173E+02  0.00000000000E+00 0. -1.
</event>
<event>
 7    1  0.4963616E-011  0.5052886E+02  0.7816164E-02  0.1300439E+00
        -11   -1    0    0    0    0  0.00000000000E+00  0.00000000000E+00  0.45593999997E+02  0.45594000000E+02  0.51100000000E-03 0.  1.
         11   -1    0    0    0    0 -0.00000000000E+00 -0.00000000000E+00 -0.45593999997E+02  0.45594000000E+02  0.51100000000E-03 0. -1.
    9900012    2    1    2    0    0 -0.35122978122E+02 -0.18202165021E+02 -0.93927075264E+01  0.50528863778E+02  0.30000011940E+02 0.  0.
        -12    1    1    2    0    0  0.35122978122E+02  0.18202165021E+02  0.93927075264E+01  0.40659136222E+02  0.00000000000E+00 0.  1.
         11    1    3    3    0    0 -0.78756499844E+01 -0.46108425435E+01 -0.15952108676E+02  0.18378125670E+02  0.51100000000E-03 0. -1.
        -11    1    3    3    0    0 -0.14260470536E+02 -0.27755073792E+01  0.21707642228E+01  0.14689338947E+02  0.51100000000E-03 0.  1.
         12    1    3    3    0    0 -0.12986857602E+02 -0.10815815098E+02  0.43886369273E+01  0.17461399162E+02  0.00000000000E+00 0. -1.
</event>
<event>
 7    1  0.4963616E-011  0.5052886E+02  0.7816164E-02  0.1300439E+00
        -11   -1    0    0    0    0  0.00000000000E+00  0.00000000000E+00  0.45593999997E+02  0.45594000000E+02  0.51100000000E-03 0. -1.
         11   -1    0    0    0    0 -0.00000000000E+00 -0.00000000000E+00 -0.45593999997E+02  0.45594000000E+02  0.51100000000E-03 0.  1.
    9900012    2    1    2    0    0  0.18374714466E+02 -0.36015645239E+02 -0.42905967188E+01  0.50528855225E+02  0.29999985941E+02 0.  0.
        -12    1    1    2    0    0 -0.18374714466E+02  0.36015645239E+02  0.42905967188E+01  0.40659144775E+02  0.00000000000E+00 0.  1.
         11    1    3    3    0    0  0.11426478644E+02 -0.33108097402E+02 -0.13449904538E+02  0.37518135083E+02  0.51100000000E-03 0. -1.
        -11    1    3    3    0    0  0.64172446710E+01 -0.43037631218E+01  0.79769745027E+01  0.11105653004E+02  0.51100000000E-03 0.  1.
         12    1    3    3    0    0  0.53099115091E+00  0.13962152853E+01  0.11823333161E+01  0.19050671368E+01  0.00000000000E+00 0. -1.
</event>
<event>
 7    1  0.4963616E-011  0.5052886E+02  0.7816164E-02  0.1300439E+00
        -11   -1    0    0    0    0  0.00000000000E+00  0.00000000000E+00  0.45593999997E+02  0.45594000000E+02  0.51100000000E-03 0.  1.
         11   -1    0    0    0    0 -0.00000000000E+00 -0.00000000000E+00 -0.45593999997E+02  0.45594000000E+02  0.51100000000E-03 0. -1.
    9900012    2    1    2    0    0  0.35956465740E+02 -0.18787675590E+02 -0.27057644469E+01  0.50528863956E+02  0.30000012482E+02 0.  0.
        -12    1    1    2    0    0 -0.35956465740E+02  0.18787675590E+02  0.27057644469E+01  0.40659136044E+02  0.00000000000E+00 0.  1.
         11    1    3    3    0    0  0.11241354769E+02  0.30400380278E+01 -0.80465969324E+01  0.14154773425E+02  0.51100000000E-03 0. -1.
        -11    1    3    3    0    0  0.65021350750E+01 -0.12848060983E+02  0.69790430568E+01  0.16001795956E+02  0.51100000000E-03 0.  1.
         12    1    3    3    0    0  0.18212975896E+02 -0.89796526344E+01 -0.16382105713E+01  0.20372294576E+02  0.00000000000E+00 0. -1.
</event>
<event>
 7    1  0.4963616E-011  0.5052886E+02  0.7816164E-02  0.1300439E+00
        -11   -1    0    0    0    0  0.00000000000E+00  0.00000000000E+00  0.45593999997E+02  0.45594000000E+02  0.51100000000E-03 0. -1.
         11   -1    0    0    0    0 -0.00000000000E+00 -0.00000000000E+00 -0.45593999997E+02  0.45594000000E+02  0.51100000000E-03 0.  1.
    9900012    2    1    2    0    0 -0.20466801847E+02  0.34520613535E+02 -0.65271097329E+01  0.50528857140E+02  0.29999991762E+02 0.  0.
        -12    1    1    2    0    0  0.20466801847E+02 -0.34520613535E+02  0.65271097329E+01  0.40659142860E+02  0.00000000000E+00 0.  1.
         11    1    3    3    0    0 -0.77182761381E+01  0.29456205948E+02  0.31052705717E+01  0.30608537387E+02  0.51100000000E-03 0. -1.
        -11    1    3    3    0    0 -0.68356374269E+01  0.16105275143E+01 -0.10889974623E+02  0.12958058708E+02  0.51100000000E-03 0.  1.
         12    1    3    3    0    0 -0.59128882818E+01  0.34538800724E+01  0.12575943188E+01  0.69622610450E+01  0.00000000000E+00 0. -1.
</event>
<event>
 7    1  0.4963616E-011  0.5052886E+02  0.7816164E-02  0.1300439E+00
        -11   -1    0    0    0    0  0.00000000000E+00  0.00000000000E+00  0.45593999997E+02  0.45594000000E+02  0.51100000000E-03 0.  1.
         11   -1    0    0    0    0 -0.00000000000E+00 -0.00000000000E+00 -0.45593999997E+02  0.45594000000E+02  0.51100000000E-03 0. -1.
    9900012    2    1    2    0    0  0.15097431551E+02  0.37532904508E+02 -0.40638201761E+01  0.50528855953E+02  0.29999988155E+02 0.  0.
        -12    1    1    2    0    0 -0.15097431551E+02 -0.37532904508E+02  0.40638201761E+01  0.40659144047E+02  0.00000000000E+00 0.  1.
         11    1    3    3    0    0  0.93507316472E+01  0.29986885342E+02 -0.95205281155E+01  0.32822095160E+02  0.51100000000E-03 0. -1.
        -11    1    3    3    0    0 -0.19674189085E+00  0.92385075601E+01  0.66862492727E+01  0.11405904563E+02  0.51100000000E-03 0.  1.
         12    1    3    3    0    0  0.59434417945E+01 -0.16924883947E+01 -0.12295413334E+01  0.63008562292E+01  0.00000000000E+00 0. -1.
</event>
<event>
 7    1  0.4963616E-011  0.5052887E+02  0.7816164E-02  0.1300439E+00
        -11   -1    0    0    0    0  0.00000000000E+00  0.00000000000E+00  0.45593999997E+02  0.45594000000E+02  0.51100000000E-03 0.  1.
         11   -1    0    0    0    0 -0.00000000000E+00 -0.00000000000E+00 -0.45593999997E+02  0.45594000000E+02  0.51100000000E-03 0. -1.
    9900012    2    1    2    0    0  0.36985547037E+02  0.65049786709E+01 -0.15585876280E+02  0.50528868473E+02  0.30000026210E+02 0.  0.
        -12    1    1    2    0    0 -0.36985547037E+02 -0.65049786709E+01  0.15585876280E+02  0.40659131527E+02  0.00000000000E+00 0.  1.
         11    1    3    3    0    0  0.33008136484E+02 -0.13026263506E+01 -0.17868759303E+02  0.37556976300E+02  0.51100000000E-03 0. -1.
        -11    1    3    3    0    0 -0.29176472707E+01  0.37387223047E+01  0.12087727842E+01  0.48940619093E+01  0.51100000000E-03 0.  1.
         12    1    3    3    0    0  0.68950578238E+01  0.40688827168E+01  0.10741102382E+01  0.80778302631E+01  0.00000000000E+00 0. -1.
</event>
<event>
 7    1  0.4963616E-011  0.5052887E+02  0.7816164E-02  0.1300439E+00
        -11   -1    0    0    0    0  0.00000000000E+00  0.00000000000E+00  0.45593999997E+02  0.45594000000E+02  0.51100000000E-03 0. -1.
         11   -1    0    0    0    0 -0.00000000000E+00 -0.00000000000E+00 -0.45593999997E+02  0.45594000000E+02  0.51100000000E-03 0.  1.
    9900012    2    1    2    0    0  0.25385379289E+02  0.35229706015E+01  0.31564794711E+02  0.50528867340E+02  0.30000022767E+02 0.  0.
        -12    1    1    2    0    0 -0.25385379289E+02 -0.35229706015E+01 -0.31564794711E+02  0.40659132660E+02  0.00000000000E+00 0.  1.
         11    1    3    3    0    0  0.10579644503E+02  0.22099286006E+01  0.10036298396E+02  0.14749235505E+02  0.51100000000E-03 0. -1.
        -11    1    3    3    0    0 -0.45829630975E+01  0.14051777204E+01 -0.20837982725E+01  0.52268815446E+01  0.51100000000E-03 0.  1.
        -12    1    3    3    0    0  0.19388697884E+02 -0.92135719405E-01  0.23612294587E+02  0.30552750290E+02  0.00000000000E+00 0.  1.
</event>
<event>
 7    1  0.4963616E-011  0.5052886E+02  0.7816164E-02  0.1300439E+00
        -11   -1    0    0    0    0  0.00000000000E+00  0.00000000000E+00  0.45593999997E+02  0.45594000000E+02  0.51100000000E-03 0. -1.
         11   -1    0    0    0    0 -0.00000000000E+00 -0.00000000000E+00 -0.45593999997E+02  0.45594000000E+02  0.51100000000E-03 0.  1.
    9900012    2    1    2    0    0  0.25954756732E+01 -0.32072205053E+02  0.24855636253E+02  0.50528862227E+02  0.30000007225E+02 0.  0.
        -12    1    1    2    0    0 -0.25954756732E+01  0.32072205053E+02 -0.24855636253E+02  0.40659137773E+02  0.00000000000E+00 0.  1.
         11    1    3    3    0    0  0.23485589422E+01 -0.32018319973E+02  0.13588058891E+02  0.34861495775E+02  0.51100000000E-03 0. -1.
        -11    1    3    3    0    0  0.12078916786E+01  0.52635759621E+01  0.65927183013E+01  0.85222162069E+01  0.51100000000E-03 0.  1.
        -12    1    3    3    0    0 -0.96097494752E+00 -0.53174610418E+01  0.46748590610E+01  0.71451502448E+01  0.00000000000E+00 0.  1.
</event>
<event>
 7    1  0.4963616E-011  0.5052886E+02  0.7816164E-02  0.1300439E+00
        -11   -1    0    0    0    0  0.00000000000E+00  0.00000000000E+00  0.45593999997E+02  0.45594000000E+02  0.51100000000E-03 0.  1.
         11   -1    0    0    0    0 -0.00000000000E+00 -0.00000000000E+00 -0.45593999997E+02  0.45594000000E+02  0.51100000000E-03 0. -1.
    9900012    2    1    2    0    0 -0.33692270590E+02 -0.21687190153E+02 -0.69038125240E+01  0.50528856605E+02  0.29999990135E+02 0.  0.
        -12    1    1    2    0    0  0.33692270590E+02  0.21687190153E+02  0.69038125240E+01  0.40659143395E+02  0.00000000000E+00 0.  1.
         11    1    3    3    0    0 -0.33758384133E+02 -0.10671251612E+02 -0.98986414863E+01  0.36762578987E+02  0.51100000000E-03 0. -1.
        -11    1    3    3    0    0 -0.20446295596E+01 -0.90378250506E+01  0.47190054217E+01  0.10398644340E+02  0.51100000000E-03 0.  1.
         12    1    3    3    0    0  0.21107431025E+01 -0.19781134907E+01 -0.17241764594E+01  0.33676332773E+01  0.00000000000E+00 0. -1.
</event>
<event>
 7    1  0.4963616E-011  0.5052875E+02  0.7816164E-02  0.1300439E+00
        -11   -1    0    0    0    0  0.00000000000E+00  0.00000000000E+00  0.45593999997E+02  0.45594000000E+02  0.51100000000E-03 0.  1.
         11   -1    0    0    0    0 -0.00000000000E+00 -0.00000000000E+00 -0.45593999997E+02  0.45594000000E+02  0.51100000000E-03 0. -1.
    9900012    2    1    2    0    0  0.14786236666E+02  0.35215740963E+02 -0.13942511462E+02  0.50528747275E+02  0.29999657814E+02 0.  0.
        -12    1    1    2    0    0 -0.14786236666E+02 -0.35215740963E+02  0.13942511462E+02  0.40659252725E+02  0.00000000000E+00 0.  1.
         11    1    3    3    0    0  0.33450832578E+01  0.60031704087E+01 -0.16405941256E+02  0.17787145519E+02  0.51100000000E-03 0. -1.
        -11    1    3    3    0    0  0.19814331928E+01  0.11828785908E+02  0.45788161522E+01  0.12837905248E+02  0.51100000000E-03 0.  1.
         12    1    3    3    0    0  0.94597202158E+01  0.17383784646E+02 -0.21153863579E+01  0.19903696507E+02  0.00000000000E+00 0. -1.
</event>
<event>
 7    1  0.4963616E-011  0.5052886E+02  0.7816164E-02  0.1300439E+00
        -11   -1    0    0    0    0  0.00000000000E+00  0.00000000000E+00  0.45593999997E+02  0.45594000000E+02  0.51100000000E-03 0.  1.
         11   -1    0    0    0    0 -0.00000000000E+00 -0.00000000000E+00 -0.45593999997E+02  0.45594000000E+02  0.51100000000E-03 0. -1.
    9900012    2    1    2    0    0  0.41535672064E+01 -0.17049536481E+02 -0.36677329556E+02  0.50528864272E+02  0.30000013442E+02 0.  0.
        -12    1    1    2    0    0 -0.41535672064E+01  0.17049536481E+02  0.36677329556E+02  0.40659135728E+02  0.00000000000E+00 0.  1.
         11    1    3    3    0    0  0.83947342470E+01  0.27092236350E+01 -0.14436624308E+02  0.16918261656E+02  0.51100000000E-03 0. -1.
        -11    1    3    3    0    0  0.16311429165E+01 -0.15062751860E+02 -0.71559425748E+01  0.16755734397E+02  0.51100000000E-03 0.  1.
         12    1    3    3    0    0 -0.58723099571E+01 -0.46960082559E+01 -0.15084762673E+02  0.16854868219E+02  0.00000000000E+00 0. -1.
</event>
<event>
 7    1  0.4963616E-011  0.5052886E+02  0.7816164E-02  0.1300439E+00
        -11   -1    0    0    0    0  0.00000000000E+00  0.00000000000E+00  0.45593999997E+02  0.45594000000E+02  0.51100000000E-03 0.  1.
         11   -1    0    0    0    0 -0.00000000000E+00 -0.00000000000E+00 -0.45593999997E+02  0.45594000000E+02  0.51100000000E-03 0. -1.
    9900012    2    1    2    0    0 -0.37131234813E+02  0.32885035557E+01 -0.16236465943E+02  0.50528859813E+02  0.29999999888E+02 0.  0.
        -12    1    1    2    0    0  0.37131234813E+02 -0.32885035557E+01  0.16236465943E+02  0.40659140187E+02  0.00000000000E+00 0.  1.
         11    1    3    3    0    0 -0.33076806529E+02 -0.29622871986E+01 -0.15477724782E+02  0.36638917018E+02  0.51100000000E-03 0. -1.
        -11    1    3    3    0    0 -0.25178486843E+01  0.42354081999E+01  0.53518464019E+01  0.72746480868E+01  0.51100000000E-03 0.  1.
         12    1    3    3    0    0 -0.15365796003E+01  0.20153825545E+01 -0.61105875628E+01  0.66152947079E+01  0.00000000000E+00 0. -1.
</event>
<event>
 7    1  0.4963616E-011  0.5052883E+02  0.7816164E-02  0.1300439E+00
        -11   -1    0    0    0    0  0.00000000000E+00  0.00000000000E+00  0.45593999997E+02  0.45594000000E+02  0.51100000000E-03 0.  1.
         11   -1    0    0    0    0 -0.00000000000E+00 -0.00000000000E+00 -0.45593999997E+02  0.45594000000E+02  0.51100000000E-03 0. -1.
    9900012    2    1    2    0    0 -0.12098939551E+02  0.29437054898E+02 -0.25303032556E+02  0.50528831343E+02  0.29999913350E+02 0.  0.
        -12    1    1    2    0    0  0.12098939551E+02 -0.29437054898E+02  0.25303032556E+02  0.40659168657E+02  0.00000000000E+00 0.  1.
         11    1    3    3    0    0 -0.58184912362E+01  0.16683222394E+02 -0.23961704648E+02  0.29771597868E+02  0.51100000000E-03 0. -1.
        -11    1    3    3    0    0  0.13441843476E+01  0.13001507479E+02 -0.47357336454E+00  0.13079384553E+02  0.51100000000E-03 0.  1.
         12    1    3    3    0    0 -0.76246326624E+01 -0.24767497434E+00 -0.86775454333E+00  0.76778489226E+01  0.00000000000E+00 0. -1.
</event>
<event>
 7    1  0.4963616E-011  0.5052887E+02  0.7816164E-02  0.1300439E+00
        -11   -1    0    0    0    0  0.00000000000E+00  0.00000000000E+00  0.45593999997E+02  0.45594000000E+02  0.51100000000E-03 0.  1.
         11   -1    0    0    0    0 -0.00000000000E+00 -0.00000000000E+00 -0.45593999997E+02  0.45594000000E+02  0.51100000000E-03 0. -1.
    9900012    2    1    2    0    0 -0.62790827303E+01  0.27448733825E+01 -0.40077469440E+02  0.50528871056E+02  0.30000034061E+02 0.  0.
        -12    1    1    2    0    0  0.62790827303E+01 -0.27448733825E+01  0.40077469440E+02  0.40659128944E+02  0.00000000000E+00 0.  1.
         11    1    3    3    0    0 -0.89140166882E+00  0.84581575295E+00 -0.15914163003E+02  0.15961534562E+02  0.51100000000E-03 0. -1.
        -11    1    3    3    0    0  0.55659989334E+01  0.29265642504E+01  0.16550628079E+01  0.65026422013E+01  0.51100000000E-03 0.  1.
        -12    1    3    3    0    0 -0.10953679995E+02 -0.10275066209E+01 -0.25818369245E+02  0.28064694293E+02  0.00000000000E+00 0.  1.
</event>
<event>
 7    1  0.4963616E-011  0.5052887E+02  0.7816164E-02  0.1300439E+00
        -11   -1    0    0    0    0  0.00000000000E+00  0.00000000000E+00  0.45593999997E+02  0.45594000000E+02  0.51100000000E-03 0.  1.
         11   -1    0    0    0    0 -0.00000000000E+00 -0.00000000000E+00 -0.45593999997E+02  0.45594000000E+02  0.51100000000E-03 0. -1.
    9900012    2    1    2    0    0  0.32783303313E+02 -0.23789376317E+02  0.35335036015E+01  0.50528867577E+02  0.30000023488E+02 0.  0.
        -12    1    1    2    0    0 -0.32783303313E+02  0.23789376317E+02 -0.35335036015E+01  0.40659132423E+02  0.00000000000E+00 0.  1.
         11    1    3    3    0    0  0.12798177523E+02 -0.28997336965E+01 -0.99921185651E+01  0.16493763582E+02  0.51100000000E-03 0. -1.
        -11    1    3    3    0    0  0.14378846985E+02 -0.13229504935E+02  0.14726197793E+02  0.24466956148E+02  0.51100000000E-03 0.  1.
        -12    1    3    3    0    0  0.56062788049E+01 -0.76601376860E+01 -0.12005756259E+01  0.95681478480E+01  0.00000000000E+00 0.  1.
</event>
<event>
 7    1  0.4963616E-011  0.5052886E+02  0.7816164E-02  0.1300439E+00
        -11   -1    0    0    0    0  0.00000000000E+00  0.00000000000E+00  0.45593999997E+02  0.45594000000E+02  0.51100000000E-03 0.  1.
         11   -1    0    0    0    0 -0.00000000000E+00 -0.00000000000E+00 -0.45593999997E+02  0.45594000000E+02  0.51100000000E-03 0. -1.
    9900012    2    1    2    0    0 -0.38511029669E+02  0.12642272858E+02 -0.31999129125E+01  0.50528856971E+02  0.29999991250E+02 0.  0.
        -12    1    1    2    0    0  0.38511029669E+02 -0.12642272858E+02  0.31999129125E+01  0.40659143029E+02  0.00000000000E+00 0.  1.
         11    1    3    3    0    0 -0.27311613057E+02 -0.15281910000E+00 -0.62015471754E+01  0.28007262434E+02  0.51100000000E-03 0. -1.
        -11    1    3    3    0    0  0.16992054752E+01  0.33935722897E+01 -0.36167161437E+01  0.52425440444E+01  0.51100000000E-03 0.  1.
        -12    1    3    3    0    0 -0.12898622087E+02  0.94015196680E+01  0.66183504066E+01  0.17279050493E+02  0.00000000000E+00 0.  1.
</event>
<event>
 7    1  0.4963616E-011  0.5052887E+02  0.7816164E-02  0.1300439E+00
        -11   -1    0    0    0    0  0.00000000000E+00  0.00000000000E+00  0.45593999997E+02  0.45594000000E+02  0.51100000000E-03 0.  1.
         11   -1    0    0    0    0 -0.00000000000E+00 -0.00000000000E+00 -0.45593999997E+02  0.45594000000E+02  0.51100000000E-03 0. -1.
    9900012    2    1    2    0    0  0.38499315934E+02  0.42101127021E+00 -0.13068685632E+02  0.50528866683E+02  0.30000020771E+02 0.  0.
        -12    1    1    2    0    0 -0.38499315934E+02 -0.42101127021E+00  0.13068685632E+02  0.40659133317E+02  0.00000000000E+00 0.  1.
         11    1    3    3    0    0  0.12663308714E+01  0.54170946138E+01  0.22211394013E+01  0.59901559606E+01  0.51100000000E-03 0.  1.
        -11    1    3    3    0    0  0.29091670040E+02 -0.79569041554E+01 -0.18405224856E+02  0.35332561352E+02  0.51100000000E-03 0. -1.
         12    1    3    3    0    0  0.81413150232E+01  0.29608208117E+01  0.31153998224E+01  0.92061493709E+01  0.00000000000E+00 0. -1.
</event>
<event>
 7    1  0.4963616E-011  0.5052886E+02  0.7816164E-02  0.1300439E+00
        -11   -1    0    0    0    0  0.00000000000E+00  0.00000000000E+00  0.45593999997E+02  0.45594000000E+02  0.51100000000E-03 0.  1.
         11   -1    0    0    0    0 -0.00000000000E+00 -0.00000000000E+00 -0.45593999997E+02  0.45594000000E+02  0.51100000000E-03 0. -1.
    9900012    2    1    2    0    0  0.36417865149E+02 -0.28496013683E+01 -0.17854539268E+02  0.50528859546E+02  0.29999999076E+02 0.  0.
        -12    1    1    2    0    0 -0.36417865149E+02  0.28496013683E+01  0.17854539268E+02  0.40659140454E+02  0.00000000000E+00 0.  1.
         11    1    3    3    0    0  0.20861959213E+02 -0.46215634684E+00 -0.15682689761E+02  0.26103288856E+02  0.51100000000E-03 0. -1.
        -11    1    3    3    0    0  0.13932304422E+02 -0.28832153947E+01  0.64621195285E+01  0.15626292797E+02  0.51100000000E-03 0.  1.
        -12    1    3    3    0    0  0.16236015146E+01  0.49577037331E+00 -0.86339690353E+01  0.87992778933E+01  0.00000000000E+00 0.  1.
</event>
<event>
 7    1  0.4963616E-011  0.5052885E+02  0.7816164E-02  0.1300439E+00
        -11   -1    0    0    0    0  0.00000000000E+00  0.00000000000E+00  0.45593999997E+02  0.45594000000E+02  0.51100000000E-03 0.  1.
         11   -1    0    0    0    0 -0.00000000000E+00 -0.00000000000E+00 -0.45593999997E+02  0.45594000000E+02  0.51100000000E-03 0. -1.
    9900012    2    1    2    0    0  0.91133425407E+01 -0.34371032163E+01 -0.39475302893E+02  0.50528853068E+02  0.29999979385E+02 0.  0.
        -12    1    1    2    0    0 -0.91133425407E+01  0.34371032163E+01  0.39475302893E+02  0.40659146932E+02  0.00000000000E+00 0.  1.
         11    1    3    3    0    0  0.71664335525E+01 -0.24743994201E+01 -0.33690356666E+01  0.82964344110E+01  0.51100000000E-03 0. -1.
        -11    1    3    3    0    0 -0.88132403878E+01 -0.77567831509E+00 -0.26019584077E+02  0.27482606113E+02  0.51100000000E-03 0.  1.
        -12    1    3    3    0    0  0.10760149376E+02 -0.18702548117E+00 -0.10086683149E+02  0.14749812544E+02  0.00000000000E+00 0.  1.
</event>
<event>
 7    1  0.4963616E-011  0.5052886E+02  0.7816164E-02  0.1300439E+00
        -11   -1    0    0    0    0  0.00000000000E+00  0.00000000000E+00  0.45593999997E+02  0.45594000000E+02  0.51100000000E-03 0. -1.
         11   -1    0    0    0    0 -0.00000000000E+00 -0.00000000000E+00 -0.45593999997E+02  0.45594000000E+02  0.51100000000E-03 0.  1.
    9900012    2    1    2    0    0 -0.33138851819E+02  0.22224587149E+02 -0.78134407504E+01  0.50528860435E+02  0.30000001777E+02 0.  0.
        -12    1    1    2    0    0  0.33138851819E+02 -0.22224587149E+02  0.78134407504E+01  0.40659139565E+02  0.00000000000E+00 0.  1.
         11    1    3    3    0    0  0.19797381735E+01  0.81349342662E-01  0.67977432534E+00  0.20947731012E+01  0.51100000000E-03 0. -1.
        -11    1    3    3    0    0 -0.35525850512E+02  0.25856390261E+02 -0.75713278482E+01  0.44586589660E+02  0.51100000000E-03 0.  1.
        -12    1    3    3    0    0  0.40726051862E+00 -0.37131524549E+01 -0.92188722752E+00  0.38474976730E+01  0.00000000000E+00 0.  1.
</event>
<event>
 7    1  0.4963616E-011  0.5052891E+02  0.7816164E-02  0.1300439E+00
        -11   -1    0    0    0    0  0.00000000000E+00  0.00000000000E+00  0.45593999997E+02  0.45594000000E+02  0.51100000000E-03 0.  1.
         11   -1    0    0    0    0 -0.00000000000E+00 -0.00000000000E+00 -0.45593999997E+02  0.45594000000E+02  0.51100000000E-03 0. -1.
    9900012    2    1    2    0    0 -0.16231342985E+02  0.24285423581E+02 -0.28282913384E+02  0.50528911433E+02  0.30000156792E+02 0.  0.
        -12    1    1    2    0    0  0.16231342985E+02 -0.24285423581E+02  0.28282913384E+02  0.40659088567E+02  0.00000000000E+00 0.  1.
         11    1    3    3    0    0 -0.66873280625E+01  0.11476027133E+01 -0.10970108451E+02  0.12898861511E+02  0.51100000000E-03 0. -1.
        -11    1    3    3    0    0  0.57709817850E+00  0.10153611823E+02  0.38005379612E+01  0.10856931630E+02  0.51100000000E-03 0.  1.
        -12    1    3    3    0    0 -0.10121113101E+02  0.12984209045E+02 -0.21113342894E+02  0.26773118292E+02  0.00000000000E+00 0.  1.
</event>
<event>
 7    1  0.4963616E-011  0.5052886E+02  0.7816164E-02  0.1300439E+00
        -11   -1    0    0    0    0  0.00000000000E+00  0.00000000000E+00  0.45593999997E+02  0.45594000000E+02  0.51100000000E-03 0. -1.
         11   -1    0    0    0    0 -0.00000000000E+00 -0.00000000000E+00 -0.45593999997E+02  0.45594000000E+02  0.51100000000E-03 0.  1.
    9900012    2    1    2    0    0  0.10806850821E+02 -0.37032686329E+02  0.12843579406E+02  0.50528863101E+02  0.30000009881E+02 0.  0.
        -12    1    1    2    0    0 -0.10806850821E+02  0.37032686329E+02 -0.12843579406E+02  0.40659136899E+02  0.00000000000E+00 0.  1.
         11    1    3    3    0    0  0.11394101492E+01 -0.30537640292E+01  0.25687728881E+01  0.41499788729E+01  0.51100000000E-03 0. -1.
        -11    1    3    3    0    0 -0.93150125612E+01 -0.16572128187E+02  0.76432045976E+01  0.20489594150E+02  0.51100000000E-03 0.  1.
        -12    1    3    3    0    0  0.18982453233E+02 -0.17406794113E+02  0.26316019204E+01  0.25889290078E+02  0.00000000000E+00 0.  1.
</event>
<event>
 7    1  0.4963616E-011  0.5052886E+02  0.7816164E-02  0.1300439E+00
        -11   -1    0    0    0    0  0.00000000000E+00  0.00000000000E+00  0.45593999997E+02  0.45594000000E+02  0.51100000000E-03 0.  1.
         11   -1    0    0    0    0 -0.00000000000E+00 -0.00000000000E+00 -0.45593999997E+02  0.45594000000E+02  0.51100000000E-03 0. -1.
    9900012    2    1    2    0    0 -0.63393784097E+01  0.14392104858E+02 -0.37494599566E+02  0.50528863296E+02  0.30000010476E+02 0.  0.
        -12    1    1    2    0    0  0.63393784097E+01 -0.14392104858E+02  0.37494599566E+02  0.40659136704E+02  0.00000000000E+00 0.  1.
         11    1    3    3    0    0 -0.78579146147E+01  0.17839018895E+02 -0.34832571755E+02  0.39915980165E+02  0.51100000000E-03 0. -1.
        -11    1    3    3    0    0 -0.17669905218E+01  0.27060792951E+01 -0.14103889404E+01  0.35262328170E+01  0.51100000000E-03 0.  1.
         12    1    3    3    0    0  0.32855267268E+01 -0.61529933316E+01 -0.12516388704E+01  0.70866503141E+01  0.00000000000E+00 0. -1.
</event>
<event>
 7    1  0.4963616E-011  0.5052885E+02  0.7816164E-02  0.1300439E+00
        -11   -1    0    0    0    0  0.00000000000E+00  0.00000000000E+00  0.45593999997E+02  0.45594000000E+02  0.51100000000E-03 0.  1.
         11   -1    0    0    0    0 -0.00000000000E+00 -0.00000000000E+00 -0.45593999997E+02  0.45594000000E+02  0.51100000000E-03 0. -1.
    9900012    2    1    2    0    0 -0.91228247020E+01  0.20394138115E+02 -0.33970863539E+02  0.50528851343E+02  0.29999974141E+02 0.  0.
        -12    1    1    2    0    0  0.91228247020E+01 -0.20394138115E+02  0.33970863539E+02  0.40659148657E+02  0.00000000000E+00 0.  1.
         11    1    3    3    0    0 -0.87882784587E+01  0.56878155960E+01 -0.31897650297E+02  0.33571493551E+02  0.51100000000E-03 0. -1.
        -11    1    3    3    0    0 -0.11246019819E+01  0.13822815863E+02 -0.42275383856E+01  0.14498518857E+02  0.51100000000E-03 0.  1.
        -12    1    3    3    0    0  0.79005573864E+00  0.88350665604E+00  0.21543251436E+01  0.24588389345E+01  0.00000000000E+00 0.  1.
</event>
<event>
 7    1  0.4963616E-011  0.5052887E+02  0.7816164E-02  0.1300439E+00
        -11   -1    0    0    0    0  0.00000000000E+00  0.00000000000E+00  0.45593999997E+02  0.45594000000E+02  0.51100000000E-03 0.  1.
         11   -1    0    0    0    0 -0.00000000000E+00 -0.00000000000E+00 -0.45593999997E+02  0.45594000000E+02  0.51100000000E-03 0. -1.
    9900012    2    1    2    0    0  0.18809543274E+02  0.10467695146E+02 -0.34493381463E+02  0.50528869112E+02  0.30000028152E+02 0.  0.
        -12    1    1    2    0    0 -0.18809543274E+02 -0.10467695146E+02  0.34493381463E+02  0.40659130888E+02  0.00000000000E+00 0.  1.
         11    1    3    3    0    0  0.10866371309E+02  0.17463814627E+02 -0.30514601627E+02  0.36799507598E+02  0.51100000000E-03 0.  1.
        -11    1    3    3    0    0  0.12644862127E+00 -0.46878177132E+01 -0.69833356505E-01  0.46900427637E+01  0.51100000000E-03 0. -1.
        -12    1    3    3    0    0  0.78167233438E+01 -0.23083017679E+01 -0.39089464791E+01  0.90393187499E+01  0.00000000000E+00 0.  1.
</event>
<event>
 7    1  0.4963616E-011  0.5052887E+02  0.7816164E-02  0.1300439E+00
        -11   -1    0    0    0    0  0.00000000000E+00  0.00000000000E+00  0.45593999997E+02  0.45594000000E+02  0.51100000000E-03 0. -1.
         11   -1    0    0    0    0 -0.00000000000E+00 -0.00000000000E+00 -0.45593999997E+02  0.45594000000E+02  0.51100000000E-03 0.  1.
    9900012    2    1    2    0    0 -0.15992004028E+02  0.36387887653E+02  0.85640336027E+01  0.50528865329E+02  0.30000016654E+02 0.  0.
        -12    1    1    2    0    0  0.15992004028E+02 -0.36387887653E+02 -0.85640336027E+01  0.40659134671E+02  0.00000000000E+00 0.  1.
         11    1    3    3    0    0  0.68274840512E+01  0.20078255437E+01  0.29909804925E+01  0.77195768310E+01  0.51100000000E-03 0. -1.
        -11    1    3    3    0    0 -0.37489997874E+01  0.83741947552E+01 -0.26087008187E+01  0.95387345821E+01  0.51100000000E-03 0.  1.
         12    1    3    3    0    0 -0.19070488292E+02  0.26005867354E+02  0.81817539290E+01  0.33270553916E+02  0.00000000000E+00 0. -1.
</event>
<event>
 7    1  0.4963616E-011  0.5052886E+02  0.7816164E-02  0.1300439E+00
        -11   -1    0    0    0    0  0.00000000000E+00  0.00000000000E+00  0.45593999997E+02  0.45594000000E+02  0.51100000000E-03 0. -1.
         11   -1    0    0    0    0 -0.00000000000E+00 -0.00000000000E+00 -0.45593999997E+02  0.45594000000E+02  0.51100000000E-03 0.  1.
    9900012    2    1    2    0    0  0.12104130188E+02  0.21015980729E+02  0.32634101256E+02  0.50528856152E+02  0.29999988761E+02 0.  0.
        -12    1    1    2    0    0 -0.12104130188E+02 -0.21015980729E+02 -0.32634101256E+02  0.40659143848E+02  0.00000000000E+00 0.  1.
         11    1    3    3    0    0  0.55069958174E+01  0.12891464023E+02  0.26491177703E+02  0.29971642330E+02  0.51100000000E-03 0. -1.
        -11    1    3    3    0    0 -0.15412958931E+01  0.26120787424E+01 -0.49065791434E+01  0.57682811598E+01  0.51100000000E-03 0.  1.
         12    1    3    3    0    0  0.81384302641E+01  0.55124379631E+01  0.11049502697E+02  0.14788932663E+02  0.00000000000E+00 0. -1.
</event>
<event>
 7    1  0.4963616E-011  0.5052886E+02  0.7816164E-02  0.1300439E+00
        -11   -1    0    0    0    0  0.00000000000E+00  0.00000000000E+00  0.45593999997E+02  0.45594000000E+02  0.51100000000E-03 0. -1.
         11   -1    0    0    0    0 -0.00000000000E+00 -0.00000000000E+00 -0.45593999997E+02  0.45594000000E+02  0.51100000000E-03 0.  1.
    9900012    2    1    2    0    0  0.16211312793E+02  0.40313856192E+00  0.37285341947E+02  0.50528857028E+02  0.29999991421E+02 0.  0.
        -12    1    1    2    0    0 -0.16211312793E+02 -0.40313856192E+00 -0.37285341947E+02  0.40659142972E+02  0.00000000000E+00 0.  1.
         11    1    3    3    0    0  0.10766292262E+02 -0.77064475182E+01  0.12352377949E+02  0.18107557087E+02  0.51100000000E-03 0. -1.
        -11    1    3    3    0    0  0.61428047484E+01  0.12999461222E+02  0.12531834154E+02  0.19072674427E+02  0.51100000000E-03 0.  1.
        -12    1    3    3    0    0 -0.69778421708E+00 -0.48898751422E+01  0.12401129843E+02  0.13348625514E+02  0.00000000000E+00 0.  1.
</event>
<event>
 7    1  0.4963616E-011  0.5052886E+02  0.7816164E-02  0.1300439E+00
        -11   -1    0    0    0    0  0.00000000000E+00  0.00000000000E+00  0.45593999997E+02  0.45594000000E+02  0.51100000000E-03 0.  1.
         11   -1    0    0    0    0 -0.00000000000E+00 -0.00000000000E+00 -0.45593999997E+02  0.45594000000E+02  0.51100000000E-03 0. -1.
    9900012    2    1    2    0    0 -0.16657881273E+02  0.35181918333E+02 -0.11743644889E+02  0.50528861035E+02  0.30000003601E+02 0.  0.
        -12    1    1    2    0    0  0.16657881273E+02 -0.35181918333E+02  0.11743644889E+02  0.40659138965E+02  0.00000000000E+00 0.  1.
         11    1    3    3    0    0 -0.17794022866E+02  0.18928798292E+02 -0.64824480890E+01  0.26775899388E+02  0.51100000000E-03 0. -1.
        -11    1    3    3    0    0  0.14875791258E+01  0.15418405186E+01  0.52491007650E+01  0.56694993556E+01  0.51100000000E-03 0.  1.
         12    1    3    3    0    0 -0.35143753320E+00  0.14711279523E+02 -0.10510297565E+02  0.18083462291E+02  0.00000000000E+00 0. -1.
</event>
<event>
 7    1  0.4963616E-011  0.5052886E+02  0.7816164E-02  0.1300439E+00
        -11   -1    0    0    0    0  0.00000000000E+00  0.00000000000E+00  0.45593999997E+02  0.45594000000E+02  0.51100000000E-03 0. -1.
         11   -1    0    0    0    0 -0.00000000000E+00 -0.00000000000E+00 -0.45593999997E+02  0.45594000000E+02  0.51100000000E-03 0.  1.
    9900012    2    1    2    0    0  0.36719654409E+02 -0.45774756434E+00  0.17453444801E+02  0.50528864641E+02  0.30000014562E+02 0.  0.
        -12    1    1    2    0    0 -0.36719654409E+02  0.45774756434E+00 -0.17453444801E+02  0.40659135359E+02  0.00000000000E+00 0.  1.
         11    1    3    3    0    0  0.14704843448E+02 -0.14367768767E+02  0.11010558084E+02  0.23321612075E+02  0.51100000000E-03 0. -1.
        -11    1    3    3    0    0  0.18021811363E+02  0.91406784282E+01  0.46831820957E+01  0.20742947759E+02  0.51100000000E-03 0.  1.
         12    1    3    3    0    0  0.39929995969E+01  0.47693427745E+01  0.17597046217E+01  0.64643048069E+01  0.00000000000E+00 0. -1.
</event>
<event>
 7    1  0.4963616E-011  0.5052886E+02  0.7816164E-02  0.1300439E+00
        -11   -1    0    0    0    0  0.00000000000E+00  0.00000000000E+00  0.45593999997E+02  0.45594000000E+02  0.51100000000E-03 0.  1.
         11   -1    0    0    0    0 -0.00000000000E+00 -0.00000000000E+00 -0.45593999997E+02  0.45594000000E+02  0.51100000000E-03 0. -1.
    9900012    2    1    2    0    0 -0.36468340612E+02  0.17824524979E+02 -0.23477777052E+01  0.50528860586E+02  0.30000002238E+02 0.  0.
        -12    1    1    2    0    0  0.36468340612E+02 -0.17824524979E+02  0.23477777052E+01  0.40659139414E+02  0.00000000000E+00 0.  1.
         11    1    3    3    0    0 -0.11963265412E+02  0.16549211045E+02 -0.75735132199E+01  0.21779674201E+02  0.51100000000E-03 0. -1.
        -11    1    3    3    0    0 -0.18517648437E+02  0.30302963605E+01  0.96504567408E+01  0.21100173346E+02  0.51100000000E-03 0.  1.
         12    1    3    3    0    0 -0.59874267624E+01 -0.17549824262E+01 -0.44247212260E+01  0.76490130396E+01  0.00000000000E+00 0. -1.
</event>
<event>
 7    1  0.4963616E-011  0.5052874E+02  0.7816164E-02  0.1300439E+00
        -11   -1    0    0    0    0  0.00000000000E+00  0.00000000000E+00  0.45593999997E+02  0.45594000000E+02  0.51100000000E-03 0.  1.
         11   -1    0    0    0    0 -0.00000000000E+00 -0.00000000000E+00 -0.45593999997E+02  0.45594000000E+02  0.51100000000E-03 0. -1.
    9900012    2    1    2    0    0  0.25688521717E+02  0.87889501373E+01 -0.30265975485E+02  0.50528744417E+02  0.29999649128E+02 0.  0.
        -12    1    1    2    0    0 -0.25688521717E+02 -0.87889501373E+01  0.30265975485E+02  0.40659255583E+02  0.00000000000E+00 0.  1.
         11    1    3    3    0    0  0.25081213692E+02  0.27626928050E+01 -0.34056184433E+02  0.42385415537E+02  0.51100000000E-03 0. -1.
        -11    1    3    3    0    0  0.11445992372E+01  0.52930359278E+01  0.14107051990E+01  0.55961081267E+01  0.51100000000E-03 0.  1.
         12    1    3    3    0    0 -0.53729121196E+00  0.73322140449E+00  0.23795037495E+01  0.25472207537E+01  0.00000000000E+00 0. -1.
</event>
<event>
 7    1  0.4963616E-011  0.5052886E+02  0.7816164E-02  0.1300439E+00
        -11   -1    0    0    0    0  0.00000000000E+00  0.00000000000E+00  0.45593999997E+02  0.45594000000E+02  0.51100000000E-03 0.  1.
         11   -1    0    0    0    0 -0.00000000000E+00 -0.00000000000E+00 -0.45593999997E+02  0.45594000000E+02  0.51100000000E-03 0. -1.
    9900012    2    1    2    0    0  0.20280702382E+02  0.32646034782E+02 -0.13270081895E+02  0.50528861426E+02  0.30000004790E+02 0.  0.
        -12    1    1    2    0    0 -0.20280702382E+02 -0.32646034782E+02  0.13270081895E+02  0.40659138574E+02  0.00000000000E+00 0.  1.
         11    1    3    3    0    0  0.83311096275E+01  0.12691762743E+02 -0.19932934759E+02  0.25056139318E+02  0.51100000000E-03 0. -1.
        -11    1    3    3    0    0  0.56541730263E+01  0.16275849892E+02  0.38307729349E+01  0.17650716242E+02  0.51100000000E-03 0.  1.
         12    1    3    3    0    0  0.62954197284E+01  0.36784221473E+01  0.28320799288E+01  0.78220058663E+01  0.00000000000E+00 0. -1.
</event>
<event>
 7    1  0.4963616E-011  0.5052886E+02  0.7816164E-02  0.1300439E+00
        -11   -1    0    0    0    0  0.00000000000E+00  0.00000000000E+00  0.45593999997E+02  0.45594000000E+02  0.51100000000E-03 0.  1.
         11   -1    0    0    0    0 -0.00000000000E+00 -0.00000000000E+00 -0.45593999997E+02  0.45594000000E+02  0.51100000000E-03 0. -1.
    9900012    2    1    2    0    0  0.19810341753E+02  0.21373500608E+02 -0.28352945556E+02  0.50528859695E+02  0.29999999530E+02 0.  0.
        -12    1    1    2    0    0 -0.19810341753E+02 -0.21373500608E+02  0.28352945556E+02  0.40659140305E+02  0.00000000000E+00 0.  1.
         11    1    3    3    0    0  0.23837116775E+02  0.72059157064E+01 -0.22354328414E+02  0.33464150316E+02  0.51100000000E-03 0. -1.
        -11    1    3    3    0    0 -0.52106405331E+01  0.71587687222E+01 -0.29817694771E+01  0.93428953681E+01  0.51100000000E-03 0.  1.
         12    1    3    3    0    0  0.11838655115E+01  0.70088161795E+01 -0.30168476652E+01  0.77218140111E+01  0.00000000000E+00 0. -1.
</event>
<event>
 7    1  0.4963616E-011  0.5052886E+02  0.7816164E-02  0.1300439E+00
        -11   -1    0    0    0    0  0.00000000000E+00  0.00000000000E+00  0.45593999997E+02  0.45594000000E+02  0.51100000000E-03 0. -1.
         11   -1    0    0    0    0 -0.00000000000E+00 -0.00000000000E+00 -0.45593999997E+02  0.45594000000E+02  0.51100000000E-03 0.  1.
    9900012    2    1    2    0    0 -0.11164329752E+02  0.30266707144E+02  0.24747723056E+02  0.50528860601E+02  0.30000002283E+02 0.  0.
        -12    1    1    2    0    0  0.11164329752E+02 -0.30266707144E+02 -0.24747723056E+02  0.40659139399E+02  0.00000000000E+00 0.  1.
         11    1    3    3    0    0 -0.43597017885E+01 -0.22851429283E+01  0.11992086700E+02  0.12962986600E+02  0.51100000000E-03 0. -1.
        -11    1    3    3    0    0  0.23941265402E+01  0.16904982701E+02  0.47053877566E+01  0.17710193568E+02  0.51100000000E-03 0.  1.
        -12    1    3    3    0    0 -0.91987545041E+01  0.15646867372E+02  0.80502485994E+01  0.19855680434E+02  0.00000000000E+00 0.  1.
</event>
<event>
 7    1  0.4963616E-011  0.5052886E+02  0.7816164E-02  0.1300439E+00
        -11   -1    0    0    0    0  0.00000000000E+00  0.00000000000E+00  0.45593999997E+02  0.45594000000E+02  0.51100000000E-03 0.  1.
         11   -1    0    0    0    0 -0.00000000000E+00 -0.00000000000E+00 -0.45593999997E+02  0.45594000000E+02  0.51100000000E-03 0. -1.
    9900012    2    1    2    0    0  0.71945534637E+01  0.15954379037E+02 -0.36699619522E+02  0.50528857325E+02  0.29999992324E+02 0.  0.
        -12    1    1    2    0    0 -0.71945534637E+01 -0.15954379037E+02  0.36699619522E+02  0.40659142675E+02  0.00000000000E+00 0.  1.
         11    1    3    3    0    0  0.46838339490E+01  0.23079917840E+02 -0.30329063847E+02  0.38398867458E+02  0.51100000000E-03 0. -1.
        -11    1    3    3    0    0 -0.35878000925E+00 -0.23684029295E+01 -0.61162461957E+01  0.65686013214E+01  0.51100000000E-03 0.  1.
         12    1    3    3    0    0  0.28694995240E+01 -0.47571358732E+01 -0.25430947931E+00  0.55613885447E+01  0.00000000000E+00 0. -1.
</event>
<event>
 7    1  0.4963616E-011  0.5052886E+02  0.7816164E-02  0.1300439E+00
        -11   -1    0    0    0    0  0.00000000000E+00  0.00000000000E+00  0.45593999997E+02  0.45594000000E+02  0.51100000000E-03 0.  1.
         11   -1    0    0    0    0 -0.00000000000E+00 -0.00000000000E+00 -0.45593999997E+02  0.45594000000E+02  0.51100000000E-03 0. -1.
    9900012    2    1    2    0    0  0.24476848529E+02  0.30977859431E+02  0.97170736690E+01  0.50528863148E+02  0.30000010025E+02 0.  0.
        -12    1    1    2    0    0 -0.24476848529E+02 -0.30977859431E+02 -0.97170736690E+01  0.40659136852E+02  0.00000000000E+00 0.  1.
         11    1    3    3    0    0  0.74052408993E+01 -0.37147092759E+01  0.85279304364E+00  0.83285001061E+01  0.51100000000E-03 0.  1.
        -11    1    3    3    0    0  0.18011610090E+02  0.26081517740E+02  0.32156174408E+01  0.31859125246E+02  0.51100000000E-03 0. -1.
         12    1    3    3    0    0 -0.94000246033E+00  0.86110509671E+01  0.56486631845E+01  0.10341237796E+02  0.00000000000E+00 0. -1.
</event>
<event>
 7    1  0.4963616E-011  0.5052886E+02  0.7816164E-02  0.1300439E+00
        -11   -1    0    0    0    0  0.00000000000E+00  0.00000000000E+00  0.45593999997E+02  0.45594000000E+02  0.51100000000E-03 0.  1.
         11   -1    0    0    0    0 -0.00000000000E+00 -0.00000000000E+00 -0.45593999997E+02  0.45594000000E+02  0.51100000000E-03 0. -1.
    9900012    2    1    2    0    0  0.32735232569E+02  0.15623403000E+02 -0.18370611022E+02  0.50528861765E+02  0.30000005822E+02 0.  0.
        -12    1    1    2    0    0 -0.32735232569E+02 -0.15623403000E+02  0.18370611022E+02  0.40659138235E+02  0.00000000000E+00 0.  1.
         11    1    3    3    0    0  0.29053937574E+02  0.19328860130E+02 -0.10726552335E+02  0.36507465644E+02  0.51100000000E-03 0. -1.
        -11    1    3    3    0    0  0.52130970456E+00 -0.77354264512E+00  0.26777802235E+01  0.28356020910E+01  0.51100000000E-03 0.  1.
         12    1    3    3    0    0  0.31599852905E+01 -0.29319144854E+01 -0.10321838911E+02  0.11185794030E+02  0.00000000000E+00 0. -1.
</event>
<event>
 7    1  0.4963616E-011  0.5052884E+02  0.7816164E-02  0.1300439E+00
        -11   -1    0    0    0    0  0.00000000000E+00  0.00000000000E+00  0.45593999997E+02  0.45594000000E+02  0.51100000000E-03 0.  1.
         11   -1    0    0    0    0 -0.00000000000E+00 -0.00000000000E+00 -0.45593999997E+02  0.45594000000E+02  0.51100000000E-03 0. -1.
    9900012    2    1    2    0    0 -0.62083944311E+01 -0.39721448106E+02 -0.60687213415E+01  0.50528843838E+02  0.29999951330E+02 0.  0.
        -12    1    1    2    0    0  0.62083944311E+01  0.39721448106E+02  0.60687213415E+01  0.40659156162E+02  0.00000000000E+00 0.  1.
         11    1    3    3    0    0  0.61237337010E+01 -0.10891438773E+02  0.20777260496E+01  0.12666510916E+02  0.51100000000E-03 0. -1.
        -11    1    3    3    0    0 -0.16361356637E+02 -0.16639084635E+02 -0.89608718097E+01  0.24997006868E+02  0.51100000000E-03 0.  1.
        -12    1    3    3    0    0  0.40292285054E+01 -0.12190924698E+02  0.81442441864E+00  0.12865326054E+02  0.00000000000E+00 0.  1.
</event>
<event>
 7    1  0.4963616E-011  0.5052886E+02  0.7816164E-02  0.1300439E+00
        -11   -1    0    0    0    0  0.00000000000E+00  0.00000000000E+00  0.45593999997E+02  0.45594000000E+02  0.51100000000E-03 0. -1.
         11   -1    0    0    0    0 -0.00000000000E+00 -0.00000000000E+00 -0.45593999997E+02  0.45594000000E+02  0.51100000000E-03 0.  1.
    9900012    2    1    2    0    0 -0.22965878202E+02  0.43555117218E+01 -0.33268057935E+02  0.50528859297E+02  0.29999998319E+02 0.  0.
        -12    1    1    2    0    0  0.22965878202E+02 -0.43555117218E+01  0.33268057935E+02  0.40659140703E+02  0.00000000000E+00 0.  1.
         11    1    3    3    0    0 -0.43523945928E+01  0.74696775293E+00  0.51052416467E+01  0.67501697792E+01  0.51100000000E-03 0. -1.
        -11    1    3    3    0    0  0.49005372409E+00  0.12091985103E+00 -0.60465778485E+01  0.60676089361E+01  0.51100000000E-03 0.  1.
         12    1    3    3    0    0 -0.19103537333E+02  0.34876241178E+01 -0.32326721733E+02  0.37711080582E+02  0.00000000000E+00 0. -1.
</event>
<event>
 7    1  0.4963616E-011  0.5052886E+02  0.7816164E-02  0.1300439E+00
        -11   -1    0    0    0    0  0.00000000000E+00  0.00000000000E+00  0.45593999997E+02  0.45594000000E+02  0.51100000000E-03 0.  1.
         11   -1    0    0    0    0 -0.00000000000E+00 -0.00000000000E+00 -0.45593999997E+02  0.45594000000E+02  0.51100000000E-03 0. -1.
    9900012    2    1    2    0    0 -0.71516522257E+01  0.15847716295E+02 -0.36754173187E+02  0.50528862184E+02  0.30000007094E+02 0.  0.
        -12    1    1    2    0    0  0.71516522257E+01 -0.15847716295E+02  0.36754173187E+02  0.40659137816E+02  0.00000000000E+00 0.  1.
         11    1    3    3    0    0 -0.11558170387E+01  0.21173176492E+02 -0.17520245788E+02  0.27506332517E+02  0.51100000000E-03 0. -1.
        -11    1    3    3    0    0 -0.24822734806E+01 -0.17255165618E+01  0.12007553092E+00  0.30254763975E+01  0.51100000000E-03 0.  1.
         12    1    3    3    0    0 -0.35135617063E+01 -0.35999436358E+01 -0.19354002930E+02  0.19997053269E+02  0.00000000000E+00 0. -1.
</event>
<event>
 7    1  0.4963616E-011  0.5052886E+02  0.7816164E-02  0.1300439E+00
        -11   -1    0    0    0    0  0.00000000000E+00  0.00000000000E+00  0.45593999997E+02  0.45594000000E+02  0.51100000000E-03 0.  1.
         11   -1    0    0    0    0 -0.00000000000E+00 -0.00000000000E+00 -0.45593999997E+02  0.45594000000E+02  0.51100000000E-03 0. -1.
    9900012    2    1    2    0    0  0.25765934273E+02  0.23173363302E+02 -0.21266815895E+02  0.50528860880E+02  0.30000003131E+02 0.  0.
        -12    1    1    2    0    0 -0.25765934273E+02 -0.23173363302E+02  0.21266815895E+02  0.40659139120E+02  0.00000000000E+00 0.  1.
         11    1    3    3    0    0  0.10841309915E+02  0.95152939176E+01 -0.78221814338E+01  0.16409184674E+02  0.51100000000E-03 0. -1.
        -11    1    3    3    0    0  0.81299974945E+01 -0.55163970956E+01 -0.16515916919E+00  0.98262288793E+01  0.51100000000E-03 0.  1.
        -12    1    3    3    0    0  0.67946268635E+01  0.19174466480E+02 -0.13279475292E+02  0.24293447327E+02  0.00000000000E+00 0.  1.
</event>
<event>
 7    1  0.4963616E-011  0.5052886E+02  0.7816164E-02  0.1300439E+00
        -11   -1    0    0    0    0  0.00000000000E+00  0.00000000000E+00  0.45593999997E+02  0.45594000000E+02  0.51100000000E-03 0.  1.
         11   -1    0    0    0    0 -0.00000000000E+00 -0.00000000000E+00 -0.45593999997E+02  0.45594000000E+02  0.51100000000E-03 0. -1.
    9900012    2    1    2    0    0 -0.13306483647E+02  0.34159941769E+02 -0.17584125116E+02  0.50528860993E+02  0.30000003474E+02 0.  0.
        -12    1    1    2    0    0  0.13306483647E+02 -0.34159941769E+02  0.17584125116E+02  0.40659139007E+02  0.00000000000E+00 0.  1.
         11    1    3    3    0    0  0.24542902827E+01  0.47097344352E+01 -0.77182624501E+01  0.93689228170E+01  0.51100000000E-03 0. -1.
        -11    1    3    3    0    0 -0.20261574583E+02  0.16336641464E+02 -0.52856366652E+01  0.26558524322E+02  0.51100000000E-03 0.  1.
        -12    1    3    3    0    0  0.45008006533E+01  0.13113565869E+02 -0.45802260007E+01  0.14601413854E+02  0.00000000000E+00 0.  1.
</event>
<event>
 7    1  0.4963616E-011  0.5052883E+02  0.7816164E-02  0.1300439E+00
        -11   -1    0    0    0    0  0.00000000000E+00  0.00000000000E+00  0.45593999997E+02  0.45594000000E+02  0.51100000000E-03 0.  1.
         11   -1    0    0    0    0 -0.00000000000E+00 -0.00000000000E+00 -0.45593999997E+02  0.45594000000E+02  0.51100000000E-03 0. -1.
    9900012    2    1    2    0    0 -0.29144674364E+01  0.38598215160E+02 -0.12443939540E+02  0.50528831719E+02  0.29999914494E+02 0.  0.
        -12    1    1    2    0    0  0.29144674364E+01 -0.38598215160E+02  0.12443939540E+02  0.40659168281E+02  0.00000000000E+00 0.  1.
         11    1    3    3    0    0  0.17248695185E+01  0.32506218732E+02 -0.68375498682E+00  0.32559130091E+02  0.51100000000E-03 0. -1.
        -11    1    3    3    0    0 -0.95239933996E+00  0.15871452468E+00  0.21761006224E+01  0.23806866621E+01  0.51100000000E-03 0.  1.
         12    1    3    3    0    0 -0.36869376150E+01  0.59332819036E+01 -0.13936285176E+02  0.15589014967E+02  0.00000000000E+00 0. -1.
</event>
<event>
 7    1  0.4963616E-011  0.5052886E+02  0.7816164E-02  0.1300439E+00
        -11   -1    0    0    0    0  0.00000000000E+00  0.00000000000E+00  0.45593999997E+02  0.45594000000E+02  0.51100000000E-03 0.  1.
         11   -1    0    0    0    0 -0.00000000000E+00 -0.00000000000E+00 -0.45593999997E+02  0.45594000000E+02  0.51100000000E-03 0. -1.
    9900012    2    1    2    0    0 -0.12564739870E+02  0.21117840958E+02 -0.32393363872E+02  0.50528856900E+02  0.29999991032E+02 0.  0.
        -12    1    1    2    0    0  0.12564739870E+02 -0.21117840958E+02  0.32393363872E+02  0.40659143100E+02  0.00000000000E+00 0.  1.
         11    1    3    3    0    0 -0.83351823966E+01  0.13409392603E+02 -0.12550799859E+02  0.20169522873E+02  0.51100000000E-03 0. -1.
        -11    1    3    3    0    0 -0.24110274153E+01 -0.56687518598E+01  0.23540865217E+00  0.61646750393E+01  0.51100000000E-03 0.  1.
        -12    1    3    3    0    0 -0.18185300576E+01  0.13377200214E+02 -0.20077972666E+02  0.24194658987E+02  0.00000000000E+00 0.  1.
</event>
<event>
 7    1  0.4963616E-011  0.5052886E+02  0.7816164E-02  0.1300439E+00
        -11   -1    0    0    0    0  0.00000000000E+00  0.00000000000E+00  0.45593999997E+02  0.45594000000E+02  0.51100000000E-03 0.  1.
         11   -1    0    0    0    0 -0.00000000000E+00 -0.00000000000E+00 -0.45593999997E+02  0.45594000000E+02  0.51100000000E-03 0. -1.
    9900012    2    1    2    0    0 -0.22259196396E+02  0.33254099190E+02 -0.72012917669E+01  0.50528861541E+02  0.30000005139E+02 0.  0.
        -12    1    1    2    0    0  0.22259196396E+02 -0.33254099190E+02  0.72012917669E+01  0.40659138459E+02  0.00000000000E+00 0.  1.
         11    1    3    3    0    0 -0.61509872801E+01  0.96326687463E+01 -0.20879376713E+01  0.11618194166E+02  0.51100000000E-03 0. -1.
        -11    1    3    3    0    0 -0.15757767205E+02  0.57290202670E+01  0.60424321746E+01  0.17822454582E+02  0.51100000000E-03 0.  1.
        -12    1    3    3    0    0 -0.35044191137E+00  0.17892410177E+02 -0.11155786270E+02  0.21088212792E+02  0.00000000000E+00 0.  1.
</event>
<event>
 7    1  0.4963616E-011  0.5052886E+02  0.7816164E-02  0.1300439E+00
        -11   -1    0    0    0    0  0.00000000000E+00  0.00000000000E+00  0.45593999997E+02  0.45594000000E+02  0.51100000000E-03 0.  1.
         11   -1    0    0    0    0 -0.00000000000E+00 -0.00000000000E+00 -0.45593999997E+02  0.45594000000E+02  0.51100000000E-03 0. -1.
    9900012    2    1    2    0    0 -0.64262874992E+01  0.72550652327E+01 -0.39487118515E+02  0.50528859931E+02  0.30000000245E+02 0.  0.
        -12    1    1    2    0    0  0.64262874992E+01 -0.72550652327E+01  0.39487118515E+02  0.40659140069E+02  0.00000000000E+00 0.  1.
         11    1    3    3    0    0 -0.11141178306E+02  0.10502177923E+02 -0.39183876350E+02  0.42068964347E+02  0.51100000000E-03 0. -1.
        -11    1    3    3    0    0 -0.32522328973E+00 -0.29381316244E+00  0.20985118937E+01  0.21437930851E+01  0.51100000000E-03 0.  1.
         12    1    3    3    0    0  0.50401140969E+01 -0.29532995279E+01 -0.24017540591E+01  0.63161024985E+01  0.00000000000E+00 0. -1.
</event>
<event>
 7    1  0.4963616E-011  0.5052886E+02  0.7816164E-02  0.1300439E+00
        -11   -1    0    0    0    0  0.00000000000E+00  0.00000000000E+00  0.45593999997E+02  0.45594000000E+02  0.51100000000E-03 0.  1.
         11   -1    0    0    0    0 -0.00000000000E+00 -0.00000000000E+00 -0.45593999997E+02  0.45594000000E+02  0.51100000000E-03 0. -1.
    9900012    2    1    2    0    0 -0.21087830960E+02 -0.65282851927E+01 -0.34144553953E+02  0.50528859739E+02  0.29999999662E+02 0.  0.
        -12    1    1    2    0    0  0.21087830960E+02  0.65282851927E+01  0.34144553953E+02  0.40659140261E+02  0.00000000000E+00 0.  1.
         11    1    3    3    0    0  0.49169840354E+01 -0.49328342827E+01 -0.11897184268E+02  0.13785955891E+02  0.51100000000E-03 0. -1.
        -11    1    3    3    0    0 -0.24719948944E+02 -0.52486556332E+01 -0.18209779040E+02  0.31148359744E+02  0.51100000000E-03 0.  1.
         12    1    3    3    0    0 -0.12848660509E+01  0.36532047233E+01 -0.40375906446E+01  0.55945441041E+01  0.00000000000E+00 0. -1.
</event>
<event>
 7    1  0.4963616E-011  0.5052886E+02  0.7816164E-02  0.1300439E+00
        -11   -1    0    0    0    0  0.00000000000E+00  0.00000000000E+00  0.45593999997E+02  0.45594000000E+02  0.51100000000E-03 0.  1.
         11   -1    0    0    0    0 -0.00000000000E+00 -0.00000000000E+00 -0.45593999997E+02  0.45594000000E+02  0.51100000000E-03 0. -1.
    9900012    2    1    2    0    0  0.24026917687E+02 -0.11156778670E+02 -0.30844761435E+02  0.50528858447E+02  0.29999995735E+02 0.  0.
        -12    1    1    2    0    0 -0.24026917687E+02  0.11156778670E+02  0.30844761435E+02  0.40659141553E+02  0.00000000000E+00 0.  1.
         11    1    3    3    0    0  0.30291766377E+01 -0.92984236732E+00  0.27718096128E+01  0.42099224127E+01  0.51100000000E-03 0. -1.
        -11    1    3    3    0    0  0.23953615195E+02 -0.81721174211E+01 -0.34327991604E+02  0.42649386770E+02  0.51100000000E-03 0.  1.
        -12    1    3    3    0    0 -0.29558741452E+01 -0.20548188813E+01  0.71142055558E+00  0.36695492644E+01  0.00000000000E+00 0.  1.
</event>
<event>
 7    1  0.4963616E-011  0.5052885E+02  0.7816164E-02  0.1300439E+00
        -11   -1    0    0    0    0  0.00000000000E+00  0.00000000000E+00  0.45593999997E+02  0.45594000000E+02  0.51100000000E-03 0.  1.
         11   -1    0    0    0    0 -0.00000000000E+00 -0.00000000000E+00 -0.45593999997E+02  0.45594000000E+02  0.51100000000E-03 0. -1.
    9900012    2    1    2    0    0  0.30026737667E+02 -0.82312512417E+01 -0.26149717613E+02  0.50528853389E+02  0.29999980360E+02 0.  0.
        -12    1    1    2    0    0 -0.30026737667E+02  0.82312512417E+01  0.26149717613E+02  0.40659146611E+02  0.00000000000E+00 0.  1.
         11    1    3    3    0    0  0.21907784372E+02 -0.32996009324E+01 -0.25575141522E+02  0.33836758807E+02  0.51100000000E-03 0. -1.
        -11    1    3    3    0    0  0.14553162829E+01 -0.74774825345E+01  0.36014641633E+01  0.84262230517E+01  0.51100000000E-03 0.  1.
         12    1    3    3    0    0  0.66636370120E+01  0.25458322252E+01 -0.41760402536E+01  0.82658715297E+01  0.00000000000E+00 0. -1.
</event>
<event>
 7    1  0.4963616E-011  0.5052886E+02  0.7816164E-02  0.1300439E+00
        -11   -1    0    0    0    0  0.00000000000E+00  0.00000000000E+00  0.45593999997E+02  0.45594000000E+02  0.51100000000E-03 0.  1.
         11   -1    0    0    0    0 -0.00000000000E+00 -0.00000000000E+00 -0.45593999997E+02  0.45594000000E+02  0.51100000000E-03 0. -1.
    9900012    2    1    2    0    0  0.34766979102E+02 -0.10200089717E+02 -0.18449424075E+02  0.50528856935E+02  0.29999991139E+02 0.  0.
        -12    1    1    2    0    0 -0.34766979102E+02  0.10200089717E+02  0.18449424075E+02  0.40659143065E+02  0.00000000000E+00 0.  1.
         11    1    3    3    0    0  0.88043652329E+01 -0.69842046018E+01 -0.35912531808E+01  0.11798010881E+02  0.51100000000E-03 0. -1.
        -11    1    3    3    0    0  0.16163919333E+02  0.91932929961E+01 -0.27108611990E+01  0.18791958201E+02  0.51100000000E-03 0.  1.
        -12    1    3    3    0    0  0.97986945361E+01 -0.12409178111E+02 -0.12147309695E+02  0.19938887853E+02  0.00000000000E+00 0.  1.
</event>
<event>
 7    1  0.4963616E-011  0.5052886E+02  0.7816164E-02  0.1300439E+00
        -11   -1    0    0    0    0  0.00000000000E+00  0.00000000000E+00  0.45593999997E+02  0.45594000000E+02  0.51100000000E-03 0.  1.
         11   -1    0    0    0    0 -0.00000000000E+00 -0.00000000000E+00 -0.45593999997E+02  0.45594000000E+02  0.51100000000E-03 0. -1.
    9900012    2    1    2    0    0 -0.63967450797E+01 -0.64733184801E+01 -0.39627554619E+02  0.50528864681E+02  0.30000014686E+02 0.  0.
        -12    1    1    2    0    0  0.63967450797E+01  0.64733184801E+01  0.39627554619E+02  0.40659135319E+02  0.00000000000E+00 0.  1.
         11    1    3    3    0    0 -0.67342786675E+01 -0.19160477593E+01 -0.31812193468E+02  0.32573569066E+02  0.51100000000E-03 0. -1.
        -11    1    3    3    0    0  0.76742305843E+01 -0.28543785932E+01 -0.19703531035E+01  0.84216140868E+01  0.51100000000E-03 0.  1.
        -12    1    3    3    0    0 -0.73366969965E+01 -0.17028921276E+01 -0.58450080480E+01  0.95336815291E+01  0.00000000000E+00 0.  1.
</event>
<event>
 7    1  0.4963616E-011  0.5052884E+02  0.7816164E-02  0.1300439E+00
        -11   -1    0    0    0    0  0.00000000000E+00  0.00000000000E+00  0.45593999997E+02  0.45594000000E+02  0.51100000000E-03 0.  1.
         11   -1    0    0    0    0 -0.00000000000E+00 -0.00000000000E+00 -0.45593999997E+02  0.45594000000E+02  0.51100000000E-03 0. -1.
    9900012    2    1    2    0    0  0.23687656829E+02 -0.13915676658E+01 -0.33017048053E+02  0.50528843482E+02  0.29999950249E+02 0.  0.
        -12    1    1    2    0    0 -0.23687656829E+02  0.13915676658E+01  0.33017048053E+02  0.40659156518E+02  0.00000000000E+00 0.  1.
         11    1    3    3    0    0  0.17192398906E+02 -0.30440777955E+01 -0.12962002224E+02  0.21745309647E+02  0.51100000000E-03 0. -1.
        -11    1    3    3    0    0 -0.11525285627E+01 -0.55979308810E+01 -0.16812774937E+02  0.17757661828E+02  0.51100000000E-03 0.  1.
        -12    1    3    3    0    0  0.76477864861E+01  0.72504410107E+01 -0.32422708916E+01  0.11025872007E+02  0.00000000000E+00 0.  1.
</event>
<event>
 7    1  0.4963616E-011  0.5052886E+02  0.7816164E-02  0.1300439E+00
        -11   -1    0    0    0    0  0.00000000000E+00  0.00000000000E+00  0.45593999997E+02  0.45594000000E+02  0.51100000000E-03 0.  1.
         11   -1    0    0    0    0 -0.00000000000E+00 -0.00000000000E+00 -0.45593999997E+02  0.45594000000E+02  0.51100000000E-03 0. -1.
    9900012    2    1    2    0    0  0.85500758991E+01 -0.54449942946E+01 -0.39375300415E+02  0.50528855352E+02  0.29999986328E+02 0.  0.
        -12    1    1    2    0    0 -0.85500758991E+01  0.54449942946E+01  0.39375300415E+02  0.40659144648E+02  0.00000000000E+00 0.  1.
         11    1    3    3    0    0 -0.11257025462E+01 -0.24524576128E+01 -0.22055528596E+02  0.22219993170E+02  0.51100000000E-03 0. -1.
        -11    1    3    3    0    0  0.14524801485E+01  0.70293450699E+01 -0.67249427538E+00  0.72092745478E+01  0.51100000000E-03 0.  1.
        -12    1    3    3    0    0  0.82232982968E+01 -0.10021881752E+02 -0.16647277544E+02  0.21099587635E+02  0.00000000000E+00 0.  1.
</event>
<event>
 7    1  0.4963616E-011  0.5052886E+02  0.7816164E-02  0.1300439E+00
        -11   -1    0    0    0    0  0.00000000000E+00  0.00000000000E+00  0.45593999997E+02  0.45594000000E+02  0.51100000000E-03 0.  1.
         11   -1    0    0    0    0 -0.00000000000E+00 -0.00000000000E+00 -0.45593999997E+02  0.45594000000E+02  0.51100000000E-03 0. -1.
    9900012    2    1    2    0    0 -0.14122037772E+02  0.60746695886E+01 -0.37640830726E+02  0.50528859586E+02  0.29999999198E+02 0.  0.
        -12    1    1    2    0    0  0.14122037772E+02 -0.60746695886E+01  0.37640830726E+02  0.40659140414E+02  0.00000000000E+00 0.  1.
         11    1    3    3    0    0  0.53769769228E+01  0.66566332281E+01 -0.18513426423E+02  0.20395332920E+02  0.51100000000E-03 0. -1.
        -11    1    3    3    0    0 -0.11992106446E+02 -0.13479399132E+01 -0.31624880333E+01  0.12475130855E+02  0.51100000000E-03 0.  1.
        -12    1    3    3    0    0 -0.75069082491E+01  0.76597627373E+00 -0.15964916270E+02  0.17658395811E+02  0.00000000000E+00 0.  1.
</event>
<event>
 7    1  0.4963616E-011  0.5052886E+02  0.7816164E-02  0.1300439E+00
        -11   -1    0    0    0    0  0.00000000000E+00  0.00000000000E+00  0.45593999997E+02  0.45594000000E+02  0.51100000000E-03 0.  1.
         11   -1    0    0    0    0 -0.00000000000E+00 -0.00000000000E+00 -0.45593999997E+02  0.45594000000E+02  0.51100000000E-03 0. -1.
    9900012    2    1    2    0    0  0.36093708320E+02  0.14428492185E+02 -0.11925962505E+02  0.50528858978E+02  0.29999997348E+02 0.  0.
        -12    1    1    2    0    0 -0.36093708320E+02 -0.14428492185E+02  0.11925962505E+02  0.40659141022E+02  0.00000000000E+00 0.  1.
         11    1    3    3    0    0  0.33471740346E+02  0.15163699602E+02 -0.11351166517E+02  0.38459643380E+02  0.51100000000E-03 0. -1.
        -11    1    3    3    0    0  0.50492688016E+00 -0.38249732169E+01 -0.49718211649E+01  0.62932008724E+01  0.51100000000E-03 0.  1.
         12    1    3    3    0    0  0.21170410943E+01  0.30897657997E+01  0.43970251773E+01  0.57760147249E+01  0.00000000000E+00 0. -1.
</event>
<event>
 7    1  0.4963616E-011  0.5052888E+02  0.7816164E-02  0.1300439E+00
        -11   -1    0    0    0    0  0.00000000000E+00  0.00000000000E+00  0.45593999997E+02  0.45594000000E+02  0.51100000000E-03 0.  1.
         11   -1    0    0    0    0 -0.00000000000E+00 -0.00000000000E+00 -0.45593999997E+02  0.45594000000E+02  0.51100000000E-03 0. -1.
    9900012    2    1    2    0    0 -0.26661642481E+02 -0.30448608545E+02 -0.38991434396E+01  0.50528877264E+02  0.30000052930E+02 0.  0.
        -12    1    1    2    0    0  0.26661642481E+02  0.30448608545E+02  0.38991434396E+01  0.40659122736E+02  0.00000000000E+00 0.  1.
         11    1    3    3    0    0 -0.49341397967E+01 -0.40007594280E+00 -0.10498512623E+02  0.11607091102E+02  0.51100000000E-03 0. -1.
        -11    1    3    3    0    0 -0.18804143628E+02 -0.23373579737E+02  0.88814085901E+01  0.31285770985E+02  0.51100000000E-03 0.  1.
         12    1    3    3    0    0 -0.29233590563E+01 -0.66749528648E+01 -0.22820394066E+01  0.76360151763E+01  0.00000000000E+00 0. -1.
</event>
<event>
 7    1  0.4963616E-011  0.5052887E+02  0.7816164E-02  0.1300439E+00
        -11   -1    0    0    0    0  0.00000000000E+00  0.00000000000E+00  0.45593999997E+02  0.45594000000E+02  0.51100000000E-03 0.  1.
         11   -1    0    0    0    0 -0.00000000000E+00 -0.00000000000E+00 -0.45593999997E+02  0.45594000000E+02  0.51100000000E-03 0. -1.
    9900012    2    1    2    0    0  0.22435041616E+02  0.26803499694E+02 -0.20770319878E+02  0.50528869710E+02  0.30000029969E+02 0.  0.
        -12    1    1    2    0    0 -0.22435041616E+02 -0.26803499694E+02  0.20770319878E+02  0.40659130290E+02  0.00000000000E+00 0.  1.
         11    1    3    3    0    0  0.12540548305E+02 -0.17988072858E+01 -0.13617966197E+02  0.18599732876E+02  0.51100000000E-03 0. -1.
        -11    1    3    3    0    0  0.59957360996E+01  0.13170577399E+02 -0.68479744852E+01  0.16009613212E+02  0.51100000000E-03 0.  1.
         12    1    3    3    0    0  0.38987572117E+01  0.15431729580E+02 -0.30437919534E+00  0.15919523621E+02  0.00000000000E+00 0. -1.
</event>
<event>
 7    1  0.4963616E-011  0.5052886E+02  0.7816164E-02  0.1300439E+00
        -11   -1    0    0    0    0  0.00000000000E+00  0.00000000000E+00  0.45593999997E+02  0.45594000000E+02  0.51100000000E-03 0.  1.
         11   -1    0    0    0    0 -0.00000000000E+00 -0.00000000000E+00 -0.45593999997E+02  0.45594000000E+02  0.51100000000E-03 0. -1.
    9900012    2    1    2    0    0  0.17936972802E+02  0.56739746303E+01 -0.36044929415E+02  0.50528856896E+02  0.29999991022E+02 0.  0.
        -12    1    1    2    0    0 -0.17936972802E+02 -0.56739746303E+01  0.36044929415E+02  0.40659143104E+02  0.00000000000E+00 0.  1.
         11    1    3    3    0    0 -0.31124886608E+01 -0.45484577277E+01 -0.16090912923E+02  0.17008631113E+02  0.51100000000E-03 0. -1.
        -11    1    3    3    0    0  0.22157101936E+02  0.66438786838E+01 -0.17894415391E+02  0.29245314028E+02  0.51100000000E-03 0.  1.
        -12    1    3    3    0    0 -0.11076404736E+01  0.35785536743E+01 -0.20596011013E+01  0.42749117552E+01  0.00000000000E+00 0.  1.
</event>
<event>
 7    1  0.4963616E-011  0.5052886E+02  0.7816164E-02  0.1300439E+00
        -11   -1    0    0    0    0  0.00000000000E+00  0.00000000000E+00  0.45593999997E+02  0.45594000000E+02  0.51100000000E-03 0.  1.
         11   -1    0    0    0    0 -0.00000000000E+00 -0.00000000000E+00 -0.45593999997E+02  0.45594000000E+02  0.51100000000E-03 0. -1.
    9900012    2    1    2    0    0  0.26894474166E+02  0.15621416417E+02 -0.26188249308E+02  0.50528858428E+02  0.29999995678E+02 0.  0.
        -12    1    1    2    0    0 -0.26894474166E+02 -0.15621416417E+02  0.26188249308E+02  0.40659141572E+02  0.00000000000E+00 0.  1.
         11    1    3    3    0    0  0.26971931446E+01 -0.57109303531E+01 -0.99547917027E+01  0.11789294061E+02  0.51100000000E-03 0.  1.
        -11    1    3    3    0    0  0.25233161602E+02  0.16466314049E+02 -0.13065035783E+02  0.32841240888E+02  0.51100000000E-03 0. -1.
         12    1    3    3    0    0 -0.10358805803E+01  0.48660327206E+01 -0.31684218224E+01  0.58983234787E+01  0.00000000000E+00 0. -1.
</event>
<event>
 7    1  0.4963616E-011  0.5052886E+02  0.7816164E-02  0.1300439E+00
        -11   -1    0    0    0    0  0.00000000000E+00  0.00000000000E+00  0.45593999997E+02  0.45594000000E+02  0.51100000000E-03 0.  1.
         11   -1    0    0    0    0 -0.00000000000E+00 -0.00000000000E+00 -0.45593999997E+02  0.45594000000E+02  0.51100000000E-03 0. -1.
    9900012    2    1    2    0    0  0.14309149491E+02  0.65554473380E+01 -0.37489197598E+02  0.50528860984E+02  0.30000003448E+02 0.  0.
        -12    1    1    2    0    0 -0.14309149491E+02 -0.65554473380E+01  0.37489197598E+02  0.40659139016E+02  0.00000000000E+00 0.  1.
         11    1    3    3    0    0  0.13430872977E+02  0.14725226710E+02 -0.19247500253E+02  0.27707163638E+02  0.51100000000E-03 0. -1.
        -11    1    3    3    0    0 -0.43696615939E+01 -0.59096562073E+00 -0.71375155575E+01  0.83897146200E+01  0.51100000000E-03 0.  1.
         12    1    3    3    0    0  0.52479381077E+01 -0.75788137513E+01 -0.11104181787E+02  0.14431982727E+02  0.00000000000E+00 0. -1.
</event>
<event>
 7    1  0.4963616E-011  0.5052886E+02  0.7816164E-02  0.1300439E+00
        -11   -1    0    0    0    0  0.00000000000E+00  0.00000000000E+00  0.45593999997E+02  0.45594000000E+02  0.51100000000E-03 0.  1.
         11   -1    0    0    0    0 -0.00000000000E+00 -0.00000000000E+00 -0.45593999997E+02  0.45594000000E+02  0.51100000000E-03 0. -1.
    9900012    2    1    2    0    0 -0.14150367197E+02 -0.38084158757E+02 -0.15903794205E+01  0.50528863921E+02  0.30000012373E+02 0.  0.
        -12    1    1    2    0    0  0.14150367197E+02  0.38084158757E+02  0.15903794205E+01  0.40659136079E+02  0.00000000000E+00 0.  1.
         11    1    3    3    0    0  0.11955655444E+01  0.32413340838E+01 -0.29420110521E+00  0.34673012799E+01  0.51100000000E-03 0. -1.
        -11    1    3    3    0    0 -0.63417835378E+01 -0.35282041579E+02  0.14437249058E+01  0.35876524613E+02  0.51100000000E-03 0.  1.
         12    1    3    3    0    0 -0.90041492033E+01 -0.60434512618E+01 -0.27399032211E+01  0.11185038028E+02  0.00000000000E+00 0. -1.
</event>
<event>
 7    1  0.4963616E-011  0.5052886E+02  0.7816164E-02  0.1300439E+00
        -11   -1    0    0    0    0  0.00000000000E+00  0.00000000000E+00  0.45593999997E+02  0.45594000000E+02  0.51100000000E-03 0.  1.
         11   -1    0    0    0    0 -0.00000000000E+00 -0.00000000000E+00 -0.45593999997E+02  0.45594000000E+02  0.51100000000E-03 0. -1.
    9900012    2    1    2    0    0  0.33538691166E+02 -0.80879654210E+01 -0.21515269277E+02  0.50528858324E+02  0.29999995362E+02 0.  0.
        -12    1    1    2    0    0 -0.33538691166E+02  0.80879654210E+01  0.21515269277E+02  0.40659141676E+02  0.00000000000E+00 0.  1.
         11    1    3    3    0    0  0.14690603761E+02 -0.21084331041E+01 -0.11691767014E+02  0.18893298949E+02  0.51100000000E-03 0. -1.
        -11    1    3    3    0    0 -0.21874185839E+00  0.28561728364E+01  0.51080327499E+01  0.58564127337E+01  0.51100000000E-03 0.  1.
        -12    1    3    3    0    0  0.19066829263E+02 -0.88357051533E+01 -0.14931535013E+02  0.25779146641E+02  0.00000000000E+00 0.  1.
</event>
<event>
 7    1  0.4963616E-011  0.5052886E+02  0.7816164E-02  0.1300439E+00
        -11   -1    0    0    0    0  0.00000000000E+00  0.00000000000E+00  0.45593999997E+02  0.45594000000E+02  0.51100000000E-03 0.  1.
         11   -1    0    0    0    0 -0.00000000000E+00 -0.00000000000E+00 -0.45593999997E+02  0.45594000000E+02  0.51100000000E-03 0. -1.
    9900012    2    1    2    0    0  0.62698928350E+01  0.25340162609E+01 -0.40092801099E+02  0.50528862102E+02  0.30000006847E+02 0.  0.
        -12    1    1    2    0    0 -0.62698928350E+01 -0.25340162609E+01  0.40092801099E+02  0.40659137898E+02  0.00000000000E+00 0.  1.
         11    1    3    3    0    0 -0.16183365057E+01  0.18012273750E+01 -0.21940362944E+02  0.22073580577E+02  0.51100000000E-03 0. -1.
        -11    1    3    3    0    0  0.47905524675E+01 -0.71576562996E+00  0.38507848656E+01  0.61879122265E+01  0.51100000000E-03 0.  1.
        -12    1    3    3    0    0  0.30976768733E+01  0.14485545159E+01 -0.22003223021E+02  0.22267369299E+02  0.00000000000E+00 0.  1.
</event>
<event>
 7    1  0.4963616E-011  0.5052886E+02  0.7816164E-02  0.1300439E+00
        -11   -1    0    0    0    0  0.00000000000E+00  0.00000000000E+00  0.45593999997E+02  0.45594000000E+02  0.51100000000E-03 0.  1.
         11   -1    0    0    0    0 -0.00000000000E+00 -0.00000000000E+00 -0.45593999997E+02  0.45594000000E+02  0.51100000000E-03 0. -1.
    9900012    2    1    2    0    0  0.26602748019E+01 -0.11740193685E+01 -0.40555027671E+02  0.50528860155E+02  0.30000000927E+02 0.  0.
        -12    1    1    2    0    0 -0.26602748019E+01  0.11740193685E+01  0.40555027671E+02  0.40659139845E+02  0.00000000000E+00 0.  1.
         11    1    3    3    0    0 -0.11151819506E+02  0.93957112447E+00 -0.24031852699E+02  0.26509919211E+02  0.51100000000E-03 0. -1.
        -11    1    3    3    0    0  0.40127030561E+01 -0.46452609113E+01 -0.22847777096E+01  0.65498430664E+01  0.51100000000E-03 0.  1.
         12    1    3    3    0    0  0.97993912523E+01  0.25316704184E+01 -0.14238397263E+02  0.17469097877E+02  0.00000000000E+00 0. -1.
</event>
<event>
 7    1  0.4963616E-011  0.5052886E+02  0.7816164E-02  0.1300439E+00
        -11   -1    0    0    0    0  0.00000000000E+00  0.00000000000E+00  0.45593999997E+02  0.45594000000E+02  0.51100000000E-03 0. -1.
         11   -1    0    0    0    0 -0.00000000000E+00 -0.00000000000E+00 -0.45593999997E+02  0.45594000000E+02  0.51100000000E-03 0.  1.
    9900012    2    1    2    0    0 -0.35113758041E+02 -0.18177857036E+02 -0.94739155403E+01  0.50528861226E+02  0.30000004184E+02 0.  0.
        -12    1    1    2    0    0  0.35113758041E+02  0.18177857036E+02  0.94739155403E+01  0.40659138774E+02  0.00000000000E+00 0.  1.
         11    1    3    3    0    0 -0.21767469440E+02 -0.64094638924E+01  0.16662126463E+01  0.22752587063E+02  0.51100000000E-03 0. -1.
        -11    1    3    3    0    0 -0.14739425518E+02 -0.15203984286E+02 -0.11419218844E+02  0.24058477966E+02  0.51100000000E-03 0.  1.
        -12    1    3    3    0    0  0.13931369168E+01  0.34355911431E+01  0.27909065719E+00  0.37177961976E+01  0.00000000000E+00 0.  1.
</event>
<event>
 7    1  0.4963616E-011  0.5052880E+02  0.7816164E-02  0.1300439E+00
        -11   -1    0    0    0    0  0.00000000000E+00  0.00000000000E+00  0.45593999997E+02  0.45594000000E+02  0.51100000000E-03 0. -1.
         11   -1    0    0    0    0 -0.00000000000E+00 -0.00000000000E+00 -0.45593999997E+02  0.45594000000E+02  0.51100000000E-03 0.  1.
    9900012    2    1    2    0    0 -0.20676067895E+02 -0.32636611919E+02  0.12669741505E+02  0.50528799676E+02  0.29999817095E+02 0.  0.
        -12    1    1    2    0    0  0.20676067895E+02  0.32636611919E+02 -0.12669741505E+02  0.40659200324E+02  0.00000000000E+00 0.  1.
         11    1    3    3    0    0 -0.19807443044E+01 -0.21196543288E+01  0.51184437041E+01  0.58834300103E+01  0.51100000000E-03 0. -1.
        -11    1    3    3    0    0 -0.19065693374E+02 -0.33396802225E+02  0.21533125222E+01  0.38516020274E+02  0.51100000000E-03 0.  1.
        -12    1    3    3    0    0  0.37036978320E+00  0.28798446349E+01  0.53979852785E+01  0.61293493916E+01  0.00000000000E+00 0.  1.
</event>
<event>
 7    1  0.4963616E-011  0.5052887E+02  0.7816164E-02  0.1300439E+00
        -11   -1    0    0    0    0  0.00000000000E+00  0.00000000000E+00  0.45593999997E+02  0.45594000000E+02  0.51100000000E-03 0.  1.
         11   -1    0    0    0    0 -0.00000000000E+00 -0.00000000000E+00 -0.45593999997E+02  0.45594000000E+02  0.51100000000E-03 0. -1.
    9900012    2    1    2    0    0 -0.14754285484E+02 -0.31314047282E+02 -0.21328539909E+02  0.50528866807E+02  0.30000021148E+02 0.  0.
        -12    1    1    2    0    0  0.14754285484E+02  0.31314047282E+02  0.21328539909E+02  0.40659133193E+02  0.00000000000E+00 0.  1.
         11    1    3    3    0    0 -0.76806599080E+00 -0.13186340060E+02 -0.19865194757E+02  0.23855721590E+02  0.51100000000E-03 0. -1.
        -11    1    3    3    0    0 -0.72181903892E+01 -0.18496208046E+02 -0.10521998079E+01  0.19882633359E+02  0.51100000000E-03 0.  1.
         12    1    3    3    0    0 -0.67680291040E+01  0.36850082464E+00 -0.41114534367E+00  0.67905118587E+01  0.00000000000E+00 0. -1.
</event>
<event>
 7    1  0.4963616E-011  0.5052886E+02  0.7816164E-02  0.1300439E+00
        -11   -1    0    0    0    0  0.00000000000E+00  0.00000000000E+00  0.45593999997E+02  0.45594000000E+02  0.51100000000E-03 0.  1.
         11   -1    0    0    0    0 -0.00000000000E+00 -0.00000000000E+00 -0.45593999997E+02  0.45594000000E+02  0.51100000000E-03 0. -1.
    9900012    2    1    2    0    0  0.39578420048E+02 -0.92715558156E+01 -0.86763752677E+00  0.50528857416E+02  0.29999992602E+02 0.  0.
        -12    1    1    2    0    0 -0.39578420048E+02  0.92715558156E+01  0.86763752677E+00  0.40659142584E+02  0.00000000000E+00 0.  1.
         11    1    3    3    0    0  0.36477382824E+02  0.17892871975E+01  0.46390557581E+01  0.36814696046E+02  0.51100000000E-03 0. -1.
        -11    1    3    3    0    0  0.36677492861E+01 -0.38518241106E+01 -0.20634522807E+01  0.57049775969E+01  0.51100000000E-03 0.  1.
         12    1    3    3    0    0 -0.56671206213E+00 -0.72090189024E+01 -0.34432410042E+01  0.80091837730E+01  0.00000000000E+00 0. -1.
</event>
<event>
 7    1  0.4963616E-011  0.5052886E+02  0.7816164E-02  0.1300439E+00
        -11   -1    0    0    0    0  0.00000000000E+00  0.00000000000E+00  0.45593999997E+02  0.45594000000E+02  0.51100000000E-03 0.  1.
         11   -1    0    0    0    0 -0.00000000000E+00 -0.00000000000E+00 -0.45593999997E+02  0.45594000000E+02  0.51100000000E-03 0. -1.
    9900012    2    1    2    0    0  0.12854594753E+02 -0.36461440612E+02 -0.12589202258E+02  0.50528864849E+02  0.30000015194E+02 0.  0.
        -12    1    1    2    0    0 -0.12854594753E+02  0.36461440612E+02  0.12589202258E+02  0.40659135151E+02  0.00000000000E+00 0.  1.
         11    1    3    3    0    0  0.19034056868E+01 -0.17265839488E+02 -0.61679755638E+01  0.18433016282E+02  0.51100000000E-03 0. -1.
        -11    1    3    3    0    0  0.70345601631E+01  0.20936652733E+01  0.36777512384E+01  0.82094046920E+01  0.51100000000E-03 0.  1.
        -12    1    3    3    0    0  0.39166289035E+01 -0.21289266397E+02 -0.10098977933E+02  0.23886443875E+02  0.00000000000E+00 0.  1.
</event>
<event>
 7    1  0.4963616E-011  0.5052886E+02  0.7816164E-02  0.1300439E+00
        -11   -1    0    0    0    0  0.00000000000E+00  0.00000000000E+00  0.45593999997E+02  0.45594000000E+02  0.51100000000E-03 0. -1.
         11   -1    0    0    0    0 -0.00000000000E+00 -0.00000000000E+00 -0.45593999997E+02  0.45594000000E+02  0.51100000000E-03 0.  1.
    9900012    2    1    2    0    0  0.36380635797E+02  0.52166362601E+00  0.18147812661E+02  0.50528857138E+02  0.29999991757E+02 0.  0.
        -12    1    1    2    0    0 -0.36380635797E+02 -0.52166362601E+00 -0.18147812661E+02  0.40659142862E+02  0.00000000000E+00 0.  1.
         11    1    3    3    0    0  0.14119463473E+01 -0.43209157541E+01  0.52317487566E+01  0.69307359461E+01  0.51100000000E-03 0. -1.
        -11    1    3    3    0    0  0.19337108865E+02 -0.46884568982E+01 -0.19799191051E+01  0.19995636706E+02  0.51100000000E-03 0.  1.
        -12    1    3    3    0    0  0.15631580584E+02  0.95310362783E+01  0.14895983009E+02  0.23602484486E+02  0.00000000000E+00 0.  1.
</event>
<event>
 7    1  0.4963616E-011  0.5052886E+02  0.7816164E-02  0.1300439E+00
        -11   -1    0    0    0    0  0.00000000000E+00  0.00000000000E+00  0.45593999997E+02  0.45594000000E+02  0.51100000000E-03 0.  1.
         11   -1    0    0    0    0 -0.00000000000E+00 -0.00000000000E+00 -0.45593999997E+02  0.45594000000E+02  0.51100000000E-03 0. -1.
    9900012    2    1    2    0    0 -0.11228949367E+02 -0.38891879082E+02  0.38075913168E+01  0.50528864323E+02  0.30000013596E+02 0.  0.
        -12    1    1    2    0    0  0.11228949367E+02  0.38891879082E+02 -0.38075913168E+01  0.40659135677E+02  0.00000000000E+00 0.  1.
         11    1    3    3    0    0 -0.50830775131E+01 -0.32677458115E+02  0.89017887696E+01  0.34247566182E+02  0.51100000000E-03 0. -1.
        -11    1    3    3    0    0 -0.32130866912E+01  0.15479511597E+01 -0.69198720387E+01  0.77849025794E+01  0.51100000000E-03 0.  1.
        -12    1    3    3    0    0 -0.29327851625E+01 -0.77623721268E+01  0.18256745859E+01  0.84963955615E+01  0.00000000000E+00 0.  1.
</event>
<event>
 7    1  0.8696976E-011  0.5052887E+02  0.7816164E-02  0.1300439E+00
        -11   -1    0    0    0    0  0.00000000000E+00  0.00000000000E+00  0.45593999997E+02  0.45594000000E+02  0.51100000000E-03 0.  1.
         11   -1    0    0    0    0 -0.00000000000E+00 -0.00000000000E+00 -0.45593999997E+02  0.45594000000E+02  0.51100000000E-03 0. -1.
    9900012    2    1    2    0    0 -0.22708706942E+02  0.33725341965E+02  0.28481131915E+00  0.50528865982E+02  0.30000018637E+02 0.  0.
        -12    1    1    2    0    0  0.22708706942E+02 -0.33725341965E+02 -0.28481131915E+00  0.40659134018E+02  0.00000000000E+00 0.  1.
         11    1    3    3    0    0 -0.15076790796E+02  0.25509799178E+02 -0.13474331591E+01  0.29662687862E+02  0.51100000000E-03 0. -1.
        -11    1    3    3    0    0  0.29799111884E+01  0.32651008782E+01  0.67647612025E+01  0.80810116214E+01  0.51100000000E-03 0.  1.
        -12    1    3    3    0    0 -0.10611827334E+02  0.49504419090E+01 -0.51325167243E+01  0.12785166498E+02  0.00000000000E+00 0.  1.
</event>
<event>
 7    1  0.4963616E-011  0.5052886E+02  0.7816164E-02  0.1300439E+00
        -11   -1    0    0    0    0  0.00000000000E+00  0.00000000000E+00  0.45593999997E+02  0.45594000000E+02  0.51100000000E-03 0.  1.
         11   -1    0    0    0    0 -0.00000000000E+00 -0.00000000000E+00 -0.45593999997E+02  0.45594000000E+02  0.51100000000E-03 0. -1.
    9900012    2    1    2    0    0  0.19929081176E+02  0.11768037800E+02 -0.33429189160E+02  0.50528859846E+02  0.29999999987E+02 0.  0.
        -12    1    1    2    0    0 -0.19929081176E+02 -0.11768037800E+02  0.33429189160E+02  0.40659140154E+02  0.00000000000E+00 0.  1.
         11    1    3    3    0    0  0.35712119157E+01 -0.76272363374E+01 -0.85483999973E+01  0.12000142977E+02  0.51100000000E-03 0. -1.
        -11    1    3    3    0    0  0.15850583105E+01  0.13171797119E+02 -0.95403637698E+01  0.16340966627E+02  0.51100000000E-03 0.  1.
         12    1    3    3    0    0  0.14772810949E+02  0.62234770189E+01 -0.15340425393E+02  0.22187750242E+02  0.00000000000E+00 0. -1.
</event>
<event>
 7    1  0.4963616E-011  0.5052886E+02  0.7816164E-02  0.1300439E+00
        -11   -1    0    0    0    0  0.00000000000E+00  0.00000000000E+00  0.45593999997E+02  0.45594000000E+02  0.51100000000E-03 0. -1.
         11   -1    0    0    0    0 -0.00000000000E+00 -0.00000000000E+00 -0.45593999997E+02  0.45594000000E+02  0.51100000000E-03 0.  1.
    9900012    2    1    2    0    0  0.34700307389E+02 -0.21110420311E+02  0.18451084970E+01  0.50528860757E+02  0.30000002758E+02 0.  0.
        -12    1    1    2    0    0 -0.34700307389E+02  0.21110420311E+02 -0.18451084970E+01  0.40659139243E+02  0.00000000000E+00 0.  1.
         11    1    3    3    0    0  0.35206674020E+02 -0.12955378742E+02  0.55490315285E+01  0.37922862301E+02  0.51100000000E-03 0. -1.
        -11    1    3    3    0    0 -0.40931899095E+00 -0.84280344879E+01 -0.59605179396E+01  0.10330880008E+02  0.51100000000E-03 0.  1.
         12    1    3    3    0    0 -0.97047640397E-01  0.27299291856E+00  0.22565949080E+01  0.22751184490E+01  0.00000000000E+00 0. -1.
</event>
<event>
 7    1  0.4963616E-011  0.5052886E+02  0.7816164E-02  0.1300439E+00
        -11   -1    0    0    0    0  0.00000000000E+00  0.00000000000E+00  0.45593999997E+02  0.45594000000E+02  0.51100000000E-03 0.  1.
         11   -1    0    0    0    0 -0.00000000000E+00 -0.00000000000E+00 -0.45593999997E+02  0.45594000000E+02  0.51100000000E-03 0. -1.
    9900012    2    1    2    0    0  0.28693446185E+02 -0.20523211515E+02 -0.20215076329E+02  0.50528863563E+02  0.30000011285E+02 0.  0.
        -12    1    1    2    0    0 -0.28693446185E+02  0.20523211515E+02  0.20215076329E+02  0.40659136437E+02  0.00000000000E+00 0.  1.
         11    1    3    3    0    0  0.22705718924E+02 -0.10574710304E+02 -0.27155955595E+02  0.36943471608E+02  0.51100000000E-03 0. -1.
        -11    1    3    3    0    0  0.50489464890E+00 -0.10952940280E+01  0.32885575952E+00  0.12500935909E+01  0.51100000000E-03 0.  1.
         12    1    3    3    0    0  0.54828326119E+01 -0.88532071829E+01  0.66120235071E+01  0.12335298364E+02  0.00000000000E+00 0. -1.
</event>
<event>
 7    1  0.4963616E-011  0.5052886E+02  0.7816164E-02  0.1300439E+00
        -11   -1    0    0    0    0  0.00000000000E+00  0.00000000000E+00  0.45593999997E+02  0.45594000000E+02  0.51100000000E-03 0. -1.
         11   -1    0    0    0    0 -0.00000000000E+00 -0.00000000000E+00 -0.45593999997E+02  0.45594000000E+02  0.51100000000E-03 0.  1.
    9900012    2    1    2    0    0 -0.28396515255E+02  0.25813028375E+02  0.13434689148E+02  0.50528863449E+02  0.30000010940E+02 0.  0.
        -12    1    1    2    0    0  0.28396515255E+02 -0.25813028375E+02 -0.13434689148E+02  0.40659136551E+02  0.00000000000E+00 0.  1.
         11    1    3    3    0    0 -0.18777010486E+02  0.40694938936E+01  0.17453801033E+02  0.25957119912E+02  0.51100000000E-03 0. -1.
        -11    1    3    3    0    0 -0.90401846017E+01  0.20280464167E+02 -0.24322060753E+01  0.22336915434E+02  0.51100000000E-03 0.  1.
         12    1    3    3    0    0 -0.57932016755E+00  0.14630703150E+01 -0.15869058097E+01  0.22348281035E+01  0.00000000000E+00 0. -1.
</event>
<event>
 7    1  0.4963616E-011  0.5052886E+02  0.7816164E-02  0.1300439E+00
        -11   -1    0    0    0    0  0.00000000000E+00  0.00000000000E+00  0.45593999997E+02  0.45594000000E+02  0.51100000000E-03 0.  1.
         11   -1    0    0    0    0 -0.00000000000E+00 -0.00000000000E+00 -0.45593999997E+02  0.45594000000E+02  0.51100000000E-03 0. -1.
    9900012    2    1    2    0    0 -0.60592696463E+01 -0.30894703715E+02 -0.25728737722E+02  0.50528863130E+02  0.30000009969E+02 0.  0.
        -12    1    1    2    0    0  0.60592696463E+01  0.30894703715E+02  0.25728737722E+02  0.40659136870E+02  0.00000000000E+00 0.  1.
         11    1    3    3    0    0 -0.44930517901E+01 -0.28941069201E+02 -0.70549955987E+01  0.30125503548E+02  0.51100000000E-03 0. -1.
        -11    1    3    3    0    0 -0.22149033363E+01 -0.34797822220E+01 -0.18224247017E+02  0.18685231085E+02  0.51100000000E-03 0.  1.
        -12    1    3    3    0    0  0.64868548016E+00  0.15261477080E+01 -0.44949510583E+00  0.17181284961E+01  0.00000000000E+00 0.  1.
</event>
<event>
 7    1  0.4963616E-011  0.5052885E+02  0.7816164E-02  0.1300439E+00
        -11   -1    0    0    0    0  0.00000000000E+00  0.00000000000E+00  0.45593999997E+02  0.45594000000E+02  0.51100000000E-03 0. -1.
         11   -1    0    0    0    0 -0.00000000000E+00 -0.00000000000E+00 -0.45593999997E+02  0.45594000000E+02  0.51100000000E-03 0.  1.
    9900012    2    1    2    0    0 -0.30945423412E+02 -0.26084798481E+02  0.38897706289E+01  0.50528852720E+02  0.29999978328E+02 0.  0.
        -12    1    1    2    0    0  0.30945423412E+02  0.26084798481E+02 -0.38897706289E+01  0.40659147280E+02  0.00000000000E+00 0.  1.
         11    1    3    3    0    0 -0.23509526137E+02 -0.16622384225E+02  0.30059863427E+00  0.28793954857E+02  0.51100000000E-03 0. -1.
        -11    1    3    3    0    0 -0.48686660560E+00 -0.13156869214E+02  0.42558581263E+01  0.13836638872E+02  0.51100000000E-03 0.  1.
         12    1    3    3    0    0 -0.69490306703E+01  0.36944549587E+01 -0.66668613172E+00  0.78982589915E+01  0.00000000000E+00 0. -1.
</event>
<event>
 7    1  0.4963616E-011  0.5052884E+02  0.7816164E-02  0.1300439E+00
        -11   -1    0    0    0    0  0.00000000000E+00  0.00000000000E+00  0.45593999997E+02  0.45594000000E+02  0.51100000000E-03 0.  1.
         11   -1    0    0    0    0 -0.00000000000E+00 -0.00000000000E+00 -0.45593999997E+02  0.45594000000E+02  0.51100000000E-03 0. -1.
    9900012    2    1    2    0    0  0.23617557572E+02 -0.25161804367E+02 -0.21500267972E+02  0.50528844235E+02  0.29999952536E+02 0.  0.
        -12    1    1    2    0    0 -0.23617557572E+02  0.25161804367E+02  0.21500267972E+02  0.40659155765E+02  0.00000000000E+00 0.  1.
         11    1    3    3    0    0  0.12532014241E+02 -0.46180031357E-01 -0.36930827125E+01  0.13064929150E+02  0.51100000000E-03 0. -1.
        -11    1    3    3    0    0  0.27806836331E+01 -0.10751968979E+02 -0.17671679126E+02  0.20871638215E+02  0.51100000000E-03 0.  1.
        -12    1    3    3    0    0  0.83048596979E+01 -0.14363655356E+02 -0.13550613399E+00  0.16592276870E+02  0.00000000000E+00 0.  1.
</event>
<event>
 7    1  0.4963616E-011  0.5052886E+02  0.7816164E-02  0.1300439E+00
        -11   -1    0    0    0    0  0.00000000000E+00  0.00000000000E+00  0.45593999997E+02  0.45594000000E+02  0.51100000000E-03 0.  1.
         11   -1    0    0    0    0 -0.00000000000E+00 -0.00000000000E+00 -0.45593999997E+02  0.45594000000E+02  0.51100000000E-03 0. -1.
    9900012    2    1    2    0    0  0.35817317597E+02 -0.15754660941E+02 -0.11048807141E+02  0.50528859325E+02  0.29999998404E+02 0.  0.
        -12    1    1    2    0    0 -0.35817317597E+02  0.15754660941E+02  0.11048807141E+02  0.40659140675E+02  0.00000000000E+00 0.  1.
         11    1    3    3    0    0  0.17669407128E+02 -0.32688831773E+01 -0.19391182426E+02  0.26436934422E+02  0.51100000000E-03 0. -1.
        -11    1    3    3    0    0  0.69081698010E+01 -0.44632448089E+01  0.56663169349E+00  0.82440545826E+01  0.51100000000E-03 0.  1.
         12    1    3    3    0    0  0.11239740668E+02 -0.80225329546E+01  0.77757435915E+01  0.15847870320E+02  0.00000000000E+00 0. -1.
</event>
<event>
 7    1  0.4963616E-011  0.5052885E+02  0.7816164E-02  0.1300439E+00
        -11   -1    0    0    0    0  0.00000000000E+00  0.00000000000E+00  0.45593999997E+02  0.45594000000E+02  0.51100000000E-03 0.  1.
         11   -1    0    0    0    0 -0.00000000000E+00 -0.00000000000E+00 -0.45593999997E+02  0.45594000000E+02  0.51100000000E-03 0. -1.
    9900012    2    1    2    0    0 -0.16713589224E+02 -0.10085053978E+02 -0.35666710238E+02  0.50528848537E+02  0.29999965613E+02 0.  0.
        -12    1    1    2    0    0  0.16713589224E+02  0.10085053978E+02  0.35666710238E+02  0.40659151463E+02  0.00000000000E+00 0.  1.
         11    1    3    3    0    0 -0.21303338240E+01  0.38836974472E+01 -0.97667901687E+01  0.10724346998E+02  0.51100000000E-03 0. -1.
        -11    1    3    3    0    0 -0.19558352444E+01 -0.17097761409E+02 -0.15176375421E+02  0.22945176135E+02  0.51100000000E-03 0.  1.
        -12    1    3    3    0    0 -0.12627420155E+02  0.31290099840E+01 -0.10723544649E+02  0.16859325404E+02  0.00000000000E+00 0.  1.
</event>
<event>
 7    1  0.4963616E-011  0.5052887E+02  0.7816164E-02  0.1300439E+00
        -11   -1    0    0    0    0  0.00000000000E+00  0.00000000000E+00  0.45593999997E+02  0.45594000000E+02  0.51100000000E-03 0.  1.
         11   -1    0    0    0    0 -0.00000000000E+00 -0.00000000000E+00 -0.45593999997E+02  0.45594000000E+02  0.51100000000E-03 0. -1.
    9900012    2    1    2    0    0  0.12167387552E+02 -0.19199895569E+02 -0.33711772799E+02  0.50528868984E+02  0.30000027764E+02 0.  0.
        -12    1    1    2    0    0 -0.12167387552E+02  0.19199895569E+02  0.33711772799E+02  0.40659131016E+02  0.00000000000E+00 0.  1.
         11    1    3    3    0    0  0.12980216405E+02 -0.10573085232E+00 -0.60457853330E+01  0.14319522250E+02  0.51100000000E-03 0. -1.
        -11    1    3    3    0    0 -0.49855397079E+01 -0.86159991279E+01 -0.20657138112E+02  0.22930512476E+02  0.51100000000E-03 0.  1.
         12    1    3    3    0    0  0.41727108549E+01 -0.10478165589E+02 -0.70088493541E+01  0.13278834258E+02  0.00000000000E+00 0. -1.
</event>
<event>
 7    1  0.4963616E-011  0.5052886E+02  0.7816164E-02  0.1300439E+00
        -11   -1    0    0    0    0  0.00000000000E+00  0.00000000000E+00  0.45593999997E+02  0.45594000000E+02  0.51100000000E-03 0.  1.
         11   -1    0    0    0    0 -0.00000000000E+00 -0.00000000000E+00 -0.45593999997E+02  0.45594000000E+02  0.51100000000E-03 0. -1.
    9900012    2    1    2    0    0  0.45386088406E+01 -0.39866765125E+02 -0.65732335247E+01  0.50528864117E+02  0.30000012971E+02 0.  0.
        -12    1    1    2    0    0 -0.45386088406E+01  0.39866765125E+02  0.65732335247E+01  0.40659135883E+02  0.00000000000E+00 0.  1.
         11    1    3    3    0    0  0.49932259355E+01 -0.16619305620E+01 -0.72800209784E+01  0.89829295969E+01  0.51100000000E-03 0. -1.
        -11    1    3    3    0    0 -0.21334894901E+01 -0.16086231555E+02  0.81362384815E+01  0.18152603118E+02  0.51100000000E-03 0.  1.
        -12    1    3    3    0    0  0.16788723953E+01 -0.22118603008E+02 -0.74294510278E+01  0.23393331403E+02  0.00000000000E+00 0.  1.
</event>
<event>
 7    1  0.4963616E-011  0.5052886E+02  0.7816164E-02  0.1300439E+00
        -11   -1    0    0    0    0  0.00000000000E+00  0.00000000000E+00  0.45593999997E+02  0.45594000000E+02  0.51100000000E-03 0.  1.
         11   -1    0    0    0    0 -0.00000000000E+00 -0.00000000000E+00 -0.45593999997E+02  0.45594000000E+02  0.51100000000E-03 0. -1.
    9900012    2    1    2    0    0  0.34321272127E+01 -0.14169658699E+01 -0.40489234733E+02  0.50528863035E+02  0.30000009681E+02 0.  0.
        -12    1    1    2    0    0 -0.34321272127E+01  0.14169658699E+01  0.40489234733E+02  0.40659136965E+02  0.00000000000E+00 0.  1.
         11    1    3    3    0    0  0.98065192597E+01  0.25769490119E+01 -0.74128174429E+01  0.12560189047E+02  0.51100000000E-03 0. -1.
        -11    1    3    3    0    0 -0.96904185237E+01 -0.35567958163E+01 -0.33049297375E+02  0.34623851098E+02  0.51100000000E-03 0.  1.
        -12    1    3    3    0    0  0.33160264767E+01 -0.43711906547E+00 -0.27119914939E-01  0.33448228893E+01  0.00000000000E+00 0.  1.
</event>
<event>
 7    1  0.4963616E-011  0.5052887E+02  0.7816164E-02  0.1300439E+00
        -11   -1    0    0    0    0  0.00000000000E+00  0.00000000000E+00  0.45593999997E+02  0.45594000000E+02  0.51100000000E-03 0.  1.
         11   -1    0    0    0    0 -0.00000000000E+00 -0.00000000000E+00 -0.45593999997E+02  0.45594000000E+02  0.51100000000E-03 0. -1.
    9900012    2    1    2    0    0  0.32189500725E+02 -0.13460707973E+02 -0.20876075729E+02  0.50528866292E+02  0.30000019581E+02 0.  0.
        -12    1    1    2    0    0 -0.32189500725E+02  0.13460707973E+02  0.20876075729E+02  0.40659133708E+02  0.00000000000E+00 0.  1.
         11    1    3    3    0    0  0.21333931383E+02 -0.11417029151E+02 -0.16301749516E+02  0.29175884227E+02  0.51100000000E-03 0. -1.
        -11    1    3    3    0    0  0.67302950341E+01 -0.73090579166E+01  0.37978401130E+01  0.10636859906E+02  0.51100000000E-03 0.  1.
         12    1    3    3    0    0  0.41252743084E+01  0.52653790953E+01 -0.83721663260E+01  0.10716122159E+02  0.00000000000E+00 0. -1.
</event>
<event>
 7    1  0.4963616E-011  0.5052882E+02  0.7816164E-02  0.1300439E+00
        -11   -1    0    0    0    0  0.00000000000E+00  0.00000000000E+00  0.45593999997E+02  0.45594000000E+02  0.51100000000E-03 0.  1.
         11   -1    0    0    0    0 -0.00000000000E+00 -0.00000000000E+00 -0.45593999997E+02  0.45594000000E+02  0.51100000000E-03 0. -1.
    9900012    2    1    2    0    0  0.33033818253E+02  0.36605223801E+01 -0.23420858906E+02  0.50528816482E+02  0.29999868179E+02 0.  0.
        -12    1    1    2    0    0 -0.33033818253E+02 -0.36605223801E+01  0.23420858906E+02  0.40659183518E+02  0.00000000000E+00 0.  1.
         11    1    3    3    0    0  0.17625881918E+02 -0.94600460335E+01 -0.14896535798E+02  0.24941350472E+02  0.51100000000E-03 0. -1.
        -11    1    3    3    0    0 -0.49826794020E+00 -0.92526707143E-01  0.22250636606E+01  0.22820474768E+01  0.51100000000E-03 0.  1.
         12    1    3    3    0    0  0.15906204275E+02  0.13213095121E+02 -0.10749386768E+02  0.23305418533E+02  0.00000000000E+00 0. -1.
</event>
<event>
 7    1  0.4963616E-011  0.5052886E+02  0.7816164E-02  0.1300439E+00
        -11   -1    0    0    0    0  0.00000000000E+00  0.00000000000E+00  0.45593999997E+02  0.45594000000E+02  0.51100000000E-03 0.  1.
         11   -1    0    0    0    0 -0.00000000000E+00 -0.00000000000E+00 -0.45593999997E+02  0.45594000000E+02  0.51100000000E-03 0. -1.
    9900012    2    1    2    0    0 -0.34608615870E+02  0.17273671577E+02  0.12531139966E+02  0.50528862146E+02  0.30000006979E+02 0.  0.
        -12    1    1    2    0    0  0.34608615870E+02 -0.17273671577E+02 -0.12531139966E+02  0.40659137854E+02  0.00000000000E+00 0.  1.
         11    1    3    3    0    0 -0.80750972284E+01 -0.33650606142E-01 -0.39452530527E+01  0.89873994861E+01  0.51100000000E-03 0.  1.
        -11    1    3    3    0    0 -0.15958541161E+02  0.21246136716E+02  0.13808211665E+02  0.29945618561E+02  0.51100000000E-03 0. -1.
        -12    1    3    3    0    0 -0.10574977481E+02 -0.39388145323E+01  0.26681813532E+01  0.11595844099E+02  0.00000000000E+00 0.  1.
</event>
<event>
 7    1  0.4963616E-011  0.5052886E+02  0.7816164E-02  0.1300439E+00
        -11   -1    0    0    0    0  0.00000000000E+00  0.00000000000E+00  0.45593999997E+02  0.45594000000E+02  0.51100000000E-03 0. -1.
         11   -1    0    0    0    0 -0.00000000000E+00 -0.00000000000E+00 -0.45593999997E+02  0.45594000000E+02  0.51100000000E-03 0.  1.
    9900012    2    1    2    0    0 -0.28446609834E+02 -0.88295722737E+01 -0.27676609152E+02  0.50528860170E+02  0.30000000972E+02 0.  0.
        -12    1    1    2    0    0  0.28446609834E+02  0.88295722737E+01  0.27676609152E+02  0.40659139830E+02  0.00000000000E+00 0.  1.
         11    1    3    3    0    0 -0.23523044100E+02  0.42299512948E+00 -0.16032323835E+02  0.28470123576E+02  0.51100000000E-03 0. -1.
        -11    1    3    3    0    0 -0.40001460283E+01 -0.87451298686E+01  0.72573946962E+00  0.96439184311E+01  0.51100000000E-03 0.  1.
         12    1    3    3    0    0 -0.92341970573E+00 -0.50743753461E+00 -0.12370024786E+02  0.12414818163E+02  0.00000000000E+00 0. -1.
</event>
<event>
 7    1  0.4963616E-011  0.5052886E+02  0.7816164E-02  0.1300439E+00
        -11   -1    0    0    0    0  0.00000000000E+00  0.00000000000E+00  0.45593999997E+02  0.45594000000E+02  0.51100000000E-03 0. -1.
         11   -1    0    0    0    0 -0.00000000000E+00 -0.00000000000E+00 -0.45593999997E+02  0.45594000000E+02  0.51100000000E-03 0.  1.
    9900012    2    1    2    0    0  0.34511200352E+01  0.36390320501E+02  0.17804505313E+02  0.50528855086E+02  0.29999985520E+02 0.  0.
        -12    1    1    2    0    0 -0.34511200352E+01 -0.36390320501E+02 -0.17804505313E+02  0.40659144914E+02  0.00000000000E+00 0.  1.
         11    1    3    3    0    0 -0.66174927239E+01  0.32210289858E+02  0.17809922606E+02  0.37396354450E+02  0.51100000000E-03 0. -1.
        -11    1    3    3    0    0  0.51713063114E+01  0.59672888550E+01  0.37695231980E+00  0.79052538579E+01  0.51100000000E-03 0.  1.
         12    1    3    3    0    0  0.48973064477E+01 -0.17872582116E+01 -0.38236961258E+00  0.52272467780E+01  0.00000000000E+00 0. -1.
</event>
<event>
 7    1  0.4963616E-011  0.5052886E+02  0.7816164E-02  0.1300439E+00
        -11   -1    0    0    0    0  0.00000000000E+00  0.00000000000E+00  0.45593999997E+02  0.45594000000E+02  0.51100000000E-03 0. -1.
         11   -1    0    0    0    0 -0.00000000000E+00 -0.00000000000E+00 -0.45593999997E+02  0.45594000000E+02  0.51100000000E-03 0.  1.
    9900012    2    1    2    0    0 -0.39108256163E+02  0.80749407261E+00  0.11093145438E+02  0.50528860529E+02  0.30000002065E+02 0.  0.
        -12    1    1    2    0    0  0.39108256163E+02 -0.80749407261E+00 -0.11093145438E+02  0.40659139471E+02  0.00000000000E+00 0.  1.
         11    1    3    3    0    0 -0.14754992419E+02  0.53824500126E+01  0.12318827683E+01  0.15754304327E+02  0.51100000000E-03 0. -1.
        -11    1    3    3    0    0  0.16499946900E+01 -0.18960719607E+01  0.82048907278E+01  0.85812471980E+01  0.51100000000E-03 0.  1.
        -12    1    3    3    0    0 -0.26003258434E+02 -0.26788839793E+01  0.16563719414E+01  0.26193309004E+02  0.00000000000E+00 0.  1.
</event>
<event>
 7    1  0.4963616E-011  0.5052887E+02  0.7816164E-02  0.1300439E+00
        -11   -1    0    0    0    0  0.00000000000E+00  0.00000000000E+00  0.45593999997E+02  0.45594000000E+02  0.51100000000E-03 0. -1.
         11   -1    0    0    0    0 -0.00000000000E+00 -0.00000000000E+00 -0.45593999997E+02  0.45594000000E+02  0.51100000000E-03 0.  1.
    9900012    2    1    2    0    0 -0.10538894367E+02 -0.38725096044E+02 -0.65163850629E+01  0.50528872705E+02  0.30000039075E+02 0.  0.
        -12    1    1    2    0    0  0.10538894367E+02  0.38725096044E+02  0.65163850629E+01  0.40659127295E+02  0.00000000000E+00 0.  1.
         11    1    3    3    0    0 -0.15376917061E+02 -0.28385645703E+02 -0.32122961471E+01  0.32442461483E+02  0.51100000000E-03 0. -1.
        -11    1    3    3    0    0  0.84046301679E+00  0.17422822105E+01 -0.48931843474E+01  0.52616707140E+01  0.51100000000E-03 0.  1.
         12    1    3    3    0    0  0.39975596770E+01 -0.12081732552E+02  0.15890954316E+01  0.12824740508E+02  0.00000000000E+00 0. -1.
</event>
<event>
 7    1  0.4963616E-011  0.5052886E+02  0.7816164E-02  0.1300439E+00
        -11   -1    0    0    0    0  0.00000000000E+00  0.00000000000E+00  0.45593999997E+02  0.45594000000E+02  0.51100000000E-03 0. -1.
         11   -1    0    0    0    0 -0.00000000000E+00 -0.00000000000E+00 -0.45593999997E+02  0.45594000000E+02  0.51100000000E-03 0.  1.
    9900012    2    1    2    0    0 -0.30132516961E+00  0.39892594019E+02  0.78520993167E+01  0.50528864273E+02  0.30000013443E+02 0.  0.
        -12    1    1    2    0    0  0.30132516961E+00 -0.39892594019E+02 -0.78520993167E+01  0.40659135727E+02  0.00000000000E+00 0.  1.
         11    1    3    3    0    0 -0.10481151773E+02  0.23485138364E+02 -0.52848290607E+01  0.26255203006E+02  0.51100000000E-03 0. -1.
        -11    1    3    3    0    0  0.32892036676E+01  0.88320676253E+00  0.26146744691E+01  0.42936508699E+01  0.51100000000E-03 0.  1.
         12    1    3    3    0    0  0.68906229356E+01  0.15524248893E+02  0.10522253908E+02  0.19980010396E+02  0.00000000000E+00 0. -1.
</event>
<event>
 7    1  0.6263806E-011  0.5052886E+02  0.7816164E-02  0.1300439E+00
        -11   -1    0    0    0    0  0.00000000000E+00  0.00000000000E+00  0.45593999997E+02  0.45594000000E+02  0.51100000000E-03 0. -1.
         11   -1    0    0    0    0 -0.00000000000E+00 -0.00000000000E+00 -0.45593999997E+02  0.45594000000E+02  0.51100000000E-03 0.  1.
    9900012    2    1    2    0    0  0.21973132272E+02 -0.17194015301E+02  0.29575543961E+02  0.50528861979E+02  0.30000006472E+02 0.  0.
        -12    1    1    2    0    0 -0.21973132272E+02  0.17194015301E+02 -0.29575543961E+02  0.40659138021E+02  0.00000000000E+00 0.  1.
         11    1    3    3    0    0  0.15391893603E+02 -0.54591456643E+01  0.15146362584E+02  0.22273862706E+02  0.51100000000E-03 0. -1.
        -11    1    3    3    0    0 -0.25902033073E+01 -0.27743422221E+01  0.14948052270E+02  0.15422399128E+02  0.51100000000E-03 0.  1.
        -12    1    3    3    0    0  0.91714419764E+01 -0.89605274146E+01 -0.51887089308E+00  0.12832600145E+02  0.00000000000E+00 0.  1.
</event>
<event>
 7    1  0.4963616E-011  0.5052888E+02  0.7816164E-02  0.1300439E+00
        -11   -1    0    0    0    0  0.00000000000E+00  0.00000000000E+00  0.45593999997E+02  0.45594000000E+02  0.51100000000E-03 0.  1.
         11   -1    0    0    0    0 -0.00000000000E+00 -0.00000000000E+00 -0.45593999997E+02  0.45594000000E+02  0.51100000000E-03 0. -1.
    9900012    2    1    2    0    0  0.18426768305E+02  0.48446391958E+00 -0.36240628564E+02  0.50528884735E+02  0.30000075639E+02 0.  0.
        -12    1    1    2    0    0 -0.18426768305E+02 -0.48446391958E+00  0.36240628564E+02  0.40659115265E+02  0.00000000000E+00 0.  1.
         11    1    3    3    0    0 -0.26343420278E+01 -0.43249642458E+01 -0.16478555644E+02  0.17239137740E+02  0.51100000000E-03 0.  1.
        -11    1    3    3    0    0  0.91123883293E+01  0.38007182619E+01  0.34419445363E+00  0.98792484761E+01  0.51100000000E-03 0. -1.
         12    1    3    3    0    0  0.11948722004E+02  0.10087099034E+01 -0.20106267374E+02  0.23410498519E+02  0.00000000000E+00 0. -1.
</event>
<event>
 7    1  0.4963616E-011  0.5052884E+02  0.7816164E-02  0.1300439E+00
        -11   -1    0    0    0    0  0.00000000000E+00  0.00000000000E+00  0.45593999997E+02  0.45594000000E+02  0.51100000000E-03 0. -1.
         11   -1    0    0    0    0 -0.00000000000E+00 -0.00000000000E+00 -0.45593999997E+02  0.45594000000E+02  0.51100000000E-03 0.  1.
    9900012    2    1    2    0    0  0.17541473517E+02 -0.28812411844E+02  0.22700409576E+02  0.50528844028E+02  0.29999951908E+02 0.  0.
        -12    1    1    2    0    0 -0.17541473517E+02  0.28812411844E+02 -0.22700409576E+02  0.40659155972E+02  0.00000000000E+00 0.  1.
         11    1    3    3    0    0  0.16074641434E+02 -0.14103578129E+02  0.58966683316E+01  0.22182779604E+02  0.51100000000E-03 0. -1.
        -11    1    3    3    0    0  0.26152116820E+01 -0.13049843093E+02  0.20320762821E+02  0.24291379928E+02  0.51100000000E-03 0.  1.
        -12    1    3    3    0    0 -0.11483795996E+01 -0.16589906220E+01 -0.35170215773E+01  0.40546844962E+01  0.00000000000E+00 0.  1.
</event>
<event>
 7    1  0.4963616E-011  0.5052894E+02  0.7816164E-02  0.1300439E+00
        -11   -1    0    0    0    0  0.00000000000E+00  0.00000000000E+00  0.45593999997E+02  0.45594000000E+02  0.51100000000E-03 0.  1.
         11   -1    0    0    0    0 -0.00000000000E+00 -0.00000000000E+00 -0.45593999997E+02  0.45594000000E+02  0.51100000000E-03 0. -1.
    9900012    2    1    2    0    0 -0.63426308160E+01  0.25279557286E+02 -0.31206956705E+02  0.50528940382E+02  0.30000244784E+02 0.  0.
        -12    1    1    2    0    0  0.63426308160E+01 -0.25279557286E+02  0.31206956705E+02  0.40659059618E+02  0.00000000000E+00 0.  1.
         11    1    3    3    0    0 -0.85889451658E+01  0.10024835462E+02  0.14245354217E+01  0.13277673234E+02  0.51100000000E-03 0. -1.
        -11    1    3    3    0    0 -0.63320439710E+00  0.18107202299E+01 -0.85280283058E-01  0.19201376376E+01  0.51100000000E-03 0.  1.
         12    1    3    3    0    0  0.28795187469E+01  0.13444001595E+02 -0.32546211843E+02  0.35331129510E+02  0.00000000000E+00 0. -1.
</event>
<event>
 7    1  0.4963616E-011  0.5052886E+02  0.7816164E-02  0.1300439E+00
        -11   -1    0    0    0    0  0.00000000000E+00  0.00000000000E+00  0.45593999997E+02  0.45594000000E+02  0.51100000000E-03 0.  1.
         11   -1    0    0    0    0 -0.00000000000E+00 -0.00000000000E+00 -0.45593999997E+02  0.45594000000E+02  0.51100000000E-03 0. -1.
    9900012    2    1    2    0    0  0.33654647453E+02 -0.20876463970E+02  0.92034406133E+01  0.50528863731E+02  0.30000011796E+02 0.  0.
        -12    1    1    2    0    0 -0.33654647453E+02  0.20876463970E+02 -0.92034406133E+01  0.40659136269E+02  0.00000000000E+00 0.  1.
         11    1    3    3    0    0  0.30573404111E+02 -0.16926273468E+02  0.17765707680E+01  0.34991255714E+02  0.51100000000E-03 0. -1.
        -11    1    3    3    0    0  0.10527923801E+01 -0.35744852026E+01  0.10888180260E+02  0.11508161708E+02  0.51100000000E-03 0.  1.
         12    1    3    3    0    0  0.20284509616E+01 -0.37570529855E+00 -0.34613104143E+01  0.40294463093E+01  0.00000000000E+00 0. -1.
</event>
<event>
 7    1  0.4963616E-011  0.5052897E+02  0.7816164E-02  0.1300438E+00
        -11   -1    0    0    0    0  0.00000000000E+00  0.00000000000E+00  0.45593999997E+02  0.45594000000E+02  0.51100000000E-03 0. -1.
         11   -1    0    0    0    0 -0.00000000000E+00 -0.00000000000E+00 -0.45593999997E+02  0.45594000000E+02  0.51100000000E-03 0.  1.
    9900012    2    1    2    0    0  0.14603902902E+02 -0.97525131905E+01  0.36671123714E+02  0.50528968925E+02  0.30000331544E+02 0.  0.
        -12    1    1    2    0    0 -0.14603902902E+02  0.97525131905E+01 -0.36671123714E+02  0.40659031075E+02  0.00000000000E+00 0.  1.
         11    1    3    3    0    0  0.12633310524E+02 -0.13127194719E+02  0.14746579095E+02  0.23438971207E+02  0.51100000000E-03 0. -1.
        -11    1    3    3    0    0 -0.55363028909E+01  0.32640352915E+01  0.16834256723E+02  0.18019344488E+02  0.51100000000E-03 0.  1.
        -12    1    3    3    0    0  0.75068952690E+01  0.11064623749E+00  0.50902878961E+01  0.90706532309E+01  0.00000000000E+00 0.  1.
</event>
<event>
 7    1  0.4963616E-011  0.5052886E+02  0.7816164E-02  0.1300439E+00
        -11   -1    0    0    0    0  0.00000000000E+00  0.00000000000E+00  0.45593999997E+02  0.45594000000E+02  0.51100000000E-03 0.  1.
         11   -1    0    0    0    0 -0.00000000000E+00 -0.00000000000E+00 -0.45593999997E+02  0.45594000000E+02  0.51100000000E-03 0. -1.
    9900012    2    1    2    0    0 -0.50087777279E+01  0.35467670972E+02  0.19238564238E+02  0.50528857210E+02  0.29999991976E+02 0.  0.
        -12    1    1    2    0    0  0.50087777279E+01 -0.35467670972E+02 -0.19238564238E+02  0.40659142790E+02  0.00000000000E+00 0.  1.
         11    1    3    3    0    0  0.25086499513E+01  0.15652102411E+02 -0.31576075550E+01  0.16163295462E+02  0.51100000000E-03 0. -1.
        -11    1    3    3    0    0 -0.14548800609E+01  0.16471033183E+02  0.21876082607E+02  0.27422155287E+02  0.51100000000E-03 0.  1.
        -12    1    3    3    0    0 -0.60625476183E+01  0.33445353772E+01  0.52008918551E+00  0.69434064604E+01  0.00000000000E+00 0.  1.
</event>
<event>
 7    1  0.4963616E-011  0.5052886E+02  0.7816164E-02  0.1300439E+00
        -11   -1    0    0    0    0  0.00000000000E+00  0.00000000000E+00  0.45593999997E+02  0.45594000000E+02  0.51100000000E-03 0.  1.
         11   -1    0    0    0    0 -0.00000000000E+00 -0.00000000000E+00 -0.45593999997E+02  0.45594000000E+02  0.51100000000E-03 0. -1.
    9900012    2    1    2    0    0  0.11836117635E+02 -0.70875435239E+01 -0.38247072978E+02  0.50528861479E+02  0.30000004952E+02 0.  0.
        -12    1    1    2    0    0 -0.11836117635E+02  0.70875435239E+01  0.38247072978E+02  0.40659138521E+02  0.00000000000E+00 0.  1.
         11    1    3    3    0    0 -0.16287591246E+01 -0.72283735597E+01 -0.10678292031E+02  0.12997236690E+02  0.51100000000E-03 0. -1.
        -11    1    3    3    0    0  0.17820107097E+02 -0.14008300856E+01 -0.12609218333E+02  0.21874892665E+02  0.51100000000E-03 0.  1.
        -12    1    3    3    0    0 -0.43552303371E+01  0.15416601213E+01 -0.14959562614E+02  0.15656732125E+02  0.00000000000E+00 0.  1.
</event>
<event>
 7    1  0.4963616E-011  0.5052886E+02  0.7816164E-02  0.1300439E+00
        -11   -1    0    0    0    0  0.00000000000E+00  0.00000000000E+00  0.45593999997E+02  0.45594000000E+02  0.51100000000E-03 0.  1.
         11   -1    0    0    0    0 -0.00000000000E+00 -0.00000000000E+00 -0.45593999997E+02  0.45594000000E+02  0.51100000000E-03 0. -1.
    9900012    2    1    2    0    0 -0.35246411712E+02 -0.15301668968E+02  0.13293414157E+02  0.50528862383E+02  0.30000007699E+02 0.  0.
        -12    1    1    2    0    0  0.35246411712E+02  0.15301668968E+02 -0.13293414157E+02  0.40659137617E+02  0.00000000000E+00 0.  1.
         11    1    3    3    0    0 -0.13579860579E+01  0.20163520478E+01  0.11049183220E+02  0.11313454459E+02  0.51100000000E-03 0. -1.
        -11    1    3    3    0    0 -0.25016118851E+02 -0.10038175291E+02  0.49945090586E+01  0.27413797375E+02  0.51100000000E-03 0.  1.
         12    1    3    3    0    0 -0.88723068036E+01 -0.72798457258E+01 -0.27502781209E+01  0.11801610549E+02  0.00000000000E+00 0. -1.
</event>
<event>
 7    1  0.4963616E-011  0.5052886E+02  0.7816164E-02  0.1300439E+00
        -11   -1    0    0    0    0  0.00000000000E+00  0.00000000000E+00  0.45593999997E+02  0.45594000000E+02  0.51100000000E-03 0.  1.
         11   -1    0    0    0    0 -0.00000000000E+00 -0.00000000000E+00 -0.45593999997E+02  0.45594000000E+02  0.51100000000E-03 0. -1.
    9900012    2    1    2    0    0 -0.19899395112E+02  0.33453834880E+02 -0.11748229910E+02  0.50528857117E+02  0.29999991692E+02 0.  0.
        -12    1    1    2    0    0  0.19899395112E+02 -0.33453834880E+02  0.11748229910E+02  0.40659142883E+02  0.00000000000E+00 0.  1.
         11    1    3    3    0    0  0.96477156618E+00  0.25240861185E+02 -0.43366265837E+01  0.25628854596E+02  0.51100000000E-03 0. -1.
        -11    1    3    3    0    0 -0.45586734276E+01 -0.85478843371E+00 -0.35660578761E+01  0.58505500359E+01  0.51100000000E-03 0.  1.
         12    1    3    3    0    0 -0.16305493250E+02  0.90677621287E+01 -0.38455454505E+01  0.19049452485E+02  0.00000000000E+00 0. -1.
</event>
<event>
 7    1  0.4963616E-011  0.5052886E+02  0.7816164E-02  0.1300439E+00
        -11   -1    0    0    0    0  0.00000000000E+00  0.00000000000E+00  0.45593999997E+02  0.45594000000E+02  0.51100000000E-03 0.  1.
         11   -1    0    0    0    0 -0.00000000000E+00 -0.00000000000E+00 -0.45593999997E+02  0.45594000000E+02  0.51100000000E-03 0. -1.
    9900012    2    1    2    0    0  0.21854670947E+02 -0.33679583434E+02 -0.64206542688E+01  0.50528858547E+02  0.29999996038E+02 0.  0.
        -12    1    1    2    0    0 -0.21854670947E+02  0.33679583434E+02  0.64206542688E+01  0.40659141453E+02  0.00000000000E+00 0.  1.
         11    1    3    3    0    0  0.60946622124E+01 -0.11548299874E+02 -0.27009596569E+01  0.13334291162E+02  0.51100000000E-03 0. -1.
        -11    1    3    3    0    0 -0.25953982162E+01  0.16172898111E+01  0.50681746613E+01  0.59193000340E+01  0.51100000000E-03 0.  1.
        -12    1    3    3    0    0  0.18355406951E+02 -0.23748573371E+02 -0.87878692732E+01  0.31275267351E+02  0.00000000000E+00 0.  1.
</event>
<event>
 7    1  0.4963616E-011  0.5052885E+02  0.7816164E-02  0.1300439E+00
        -11   -1    0    0    0    0  0.00000000000E+00  0.00000000000E+00  0.45593999997E+02  0.45594000000E+02  0.51100000000E-03 0. -1.
         11   -1    0    0    0    0 -0.00000000000E+00 -0.00000000000E+00 -0.45593999997E+02  0.45594000000E+02  0.51100000000E-03 0.  1.
    9900012    2    1    2    0    0  0.27335914865E+02  0.96072673689E-01  0.30098250831E+02  0.50528853741E+02  0.29999981430E+02 0.  0.
        -12    1    1    2    0    0 -0.27335914865E+02 -0.96072673689E-01 -0.30098250831E+02  0.40659146259E+02  0.00000000000E+00 0.  1.
         11    1    3    3    0    0  0.41031790500E+01 -0.58340229158E+00  0.72986468676E+01  0.83932522248E+01  0.51100000000E-03 0. -1.
        -11    1    3    3    0    0  0.36926574403E+01  0.11475109893E+02  0.33092921928E+01  0.12500611229E+02  0.51100000000E-03 0.  1.
        -12    1    3    3    0    0  0.19540078375E+02 -0.10795634928E+02  0.19490311770E+02  0.29634990287E+02  0.00000000000E+00 0.  1.
</event>
<event>
 7    1  0.4963616E-011  0.5052888E+02  0.7816164E-02  0.1300439E+00
        -11   -1    0    0    0    0  0.00000000000E+00  0.00000000000E+00  0.45593999997E+02  0.45594000000E+02  0.51100000000E-03 0.  1.
         11   -1    0    0    0    0 -0.00000000000E+00 -0.00000000000E+00 -0.45593999997E+02  0.45594000000E+02  0.51100000000E-03 0. -1.
    9900012    2    1    2    0    0  0.23288705898E+02 -0.30036835907E+01 -0.33193046404E+02  0.50528877198E+02  0.30000052730E+02 0.  0.
        -12    1    1    2    0    0 -0.23288705898E+02  0.30036835907E+01  0.33193046404E+02  0.40659122802E+02  0.00000000000E+00 0.  1.
         11    1    3    3    0    0  0.10734128180E+02 -0.86752357787E+01 -0.10248504222E+02  0.17190493380E+02  0.51100000000E-03 0. -1.
        -11    1    3    3    0    0  0.91057504151E+01  0.80151176899E+01 -0.25645808067E+02  0.28370129958E+02  0.51100000000E-03 0.  1.
        -12    1    3    3    0    0  0.34488273028E+01 -0.23435655019E+01  0.27012658850E+01  0.49682538590E+01  0.00000000000E+00 0.  1.
</event>
<event>
 7    1  0.4963616E-011  0.5052877E+02  0.7816164E-02  0.1300439E+00
        -11   -1    0    0    0    0  0.00000000000E+00  0.00000000000E+00  0.45593999997E+02  0.45594000000E+02  0.51100000000E-03 0.  1.
         11   -1    0    0    0    0 -0.00000000000E+00 -0.00000000000E+00 -0.45593999997E+02  0.45594000000E+02  0.51100000000E-03 0. -1.
    9900012    2    1    2    0    0 -0.29697385418E+02 -0.26144803686E+02 -0.93641692570E+01  0.50528768252E+02  0.29999721578E+02 0.  0.
        -12    1    1    2    0    0  0.29697385418E+02  0.26144803686E+02  0.93641692570E+01  0.40659231748E+02  0.00000000000E+00 0.  1.
         11    1    3    3    0    0 -0.18271152405E+02 -0.10042918529E+02 -0.10262445609E+02  0.23238180069E+02  0.51100000000E-03 0. -1.
        -11    1    3    3    0    0 -0.33481506008E+01 -0.99158333571E+01  0.93725434702E+01  0.14049143567E+02  0.51100000000E-03 0.  1.
        -12    1    3    3    0    0 -0.80780824116E+01 -0.61860518002E+01 -0.84742671178E+01  0.13241444616E+02  0.00000000000E+00 0.  1.
</event>
<event>
 7    1  0.4963616E-011  0.5052886E+02  0.7816164E-02  0.1300439E+00
        -11   -1    0    0    0    0  0.00000000000E+00  0.00000000000E+00  0.45593999997E+02  0.45594000000E+02  0.51100000000E-03 0.  1.
         11   -1    0    0    0    0 -0.00000000000E+00 -0.00000000000E+00 -0.45593999997E+02  0.45594000000E+02  0.51100000000E-03 0. -1.
    9900012    2    1    2    0    0 -0.29377627104E+01 -0.32358878097E+01 -0.40423558119E+02  0.50528862397E+02  0.30000007741E+02 0.  0.
        -12    1    1    2    0    0  0.29377627104E+01  0.32358878097E+01  0.40423558119E+02  0.40659137603E+02  0.00000000000E+00 0.  1.
         11    1    3    3    0    0 -0.11783006005E+02  0.20480662934E+01 -0.13941789718E+02  0.18368650110E+02  0.51100000000E-03 0. -1.
        -11    1    3    3    0    0  0.10292566390E+02 -0.29200522974E+01 -0.77161738172E+01  0.13191018419E+02  0.51100000000E-03 0.  1.
         12    1    3    3    0    0 -0.14473230946E+01 -0.23639018057E+01 -0.18765594583E+02  0.18969193867E+02  0.00000000000E+00 0. -1.
</event>
<event>
 7    1  0.4963616E-011  0.5052886E+02  0.7816164E-02  0.1300439E+00
        -11   -1    0    0    0    0  0.00000000000E+00  0.00000000000E+00  0.45593999997E+02  0.45594000000E+02  0.51100000000E-03 0. -1.
         11   -1    0    0    0    0 -0.00000000000E+00 -0.00000000000E+00 -0.45593999997E+02  0.45594000000E+02  0.51100000000E-03 0.  1.
    9900012    2    1    2    0    0  0.22909066572E+02  0.31963406797E+02  0.10328638995E+02  0.50528862174E+02  0.30000007064E+02 0.  0.
        -12    1    1    2    0    0 -0.22909066572E+02 -0.31963406797E+02 -0.10328638995E+02  0.40659137826E+02  0.00000000000E+00 0.  1.
         11    1    3    3    0    0 -0.80894642418E+00  0.13585267133E+02 -0.35529620469E+00  0.13613967572E+02  0.51100000000E-03 0. -1.
        -11    1    3    3    0    0  0.19372612282E+02  0.12036285576E+02 -0.11126598010E+01  0.22834366407E+02  0.51100000000E-03 0.  1.
        -12    1    3    3    0    0  0.43454007139E+01  0.63418540871E+01  0.11796595001E+02  0.14080528195E+02  0.00000000000E+00 0.  1.
</event>
<event>
 7    1  0.4963616E-011  0.5052886E+02  0.7816164E-02  0.1300439E+00
        -11   -1    0    0    0    0  0.00000000000E+00  0.00000000000E+00  0.45593999997E+02  0.45594000000E+02  0.51100000000E-03 0. -1.
         11   -1    0    0    0    0 -0.00000000000E+00 -0.00000000000E+00 -0.45593999997E+02  0.45594000000E+02  0.51100000000E-03 0.  1.
    9900012    2    1    2    0    0  0.23933561195E+02  0.26642407057E+02 -0.19249228769E+02  0.50528855721E+02  0.29999987450E+02 0.  0.
        -12    1    1    2    0    0 -0.23933561195E+02 -0.26642407057E+02  0.19249228769E+02  0.40659144279E+02  0.00000000000E+00 0.  1.
         11    1    3    3    0    0  0.22885749887E+02  0.27292150885E+02 -0.11951661427E+02  0.37569419199E+02  0.51100000000E-03 0. -1.
        -11    1    3    3    0    0  0.94150321502E+00 -0.56288617558E+01 -0.43114515472E+01  0.71525609172E+01  0.51100000000E-03 0.  1.
        -12    1    3    3    0    0  0.10630809311E+00  0.49791179279E+01 -0.29861157945E+01  0.58068756048E+01  0.00000000000E+00 0.  1.
</event>
<event>
 7    1  0.4963616E-011  0.5052886E+02  0.7816164E-02  0.1300439E+00
        -11   -1    0    0    0    0  0.00000000000E+00  0.00000000000E+00  0.45593999997E+02  0.45594000000E+02  0.51100000000E-03 0.  1.
         11   -1    0    0    0    0 -0.00000000000E+00 -0.00000000000E+00 -0.45593999997E+02  0.45594000000E+02  0.51100000000E-03 0. -1.
    9900012    2    1    2    0    0 -0.10500606915E+02 -0.55836883683E+01 -0.38880911151E+02  0.50528861134E+02  0.30000003904E+02 0.  0.
        -12    1    1    2    0    0  0.10500606915E+02  0.55836883683E+01  0.38880911151E+02  0.40659138866E+02  0.00000000000E+00 0.  1.
         11    1    3    3    0    0  0.54025618248E+01 -0.12880693034E+01 -0.26648774845E+02  0.27221388609E+02  0.51100000000E-03 0. -1.
        -11    1    3    3    0    0 -0.47799857602E+01 -0.23017273452E+01  0.15097097852E+01  0.55159257189E+01  0.51100000000E-03 0.  1.
         12    1    3    3    0    0 -0.11123182979E+02 -0.19938917197E+01 -0.13741846091E+02  0.17791546806E+02  0.00000000000E+00 0. -1.
</event>
<event>
 7    1  0.4963616E-011  0.5052888E+02  0.7816164E-02  0.1300439E+00
        -11   -1    0    0    0    0  0.00000000000E+00  0.00000000000E+00  0.45593999997E+02  0.45594000000E+02  0.51100000000E-03 0.  1.
         11   -1    0    0    0    0 -0.00000000000E+00 -0.00000000000E+00 -0.45593999997E+02  0.45594000000E+02  0.51100000000E-03 0. -1.
    9900012    2    1    2    0    0  0.37142762185E+02 -0.16246947973E+02  0.31009428721E+01  0.50528881123E+02  0.30000064662E+02 0.  0.
        -12    1    1    2    0    0 -0.37142762185E+02  0.16246947973E+02 -0.31009428721E+01  0.40659118877E+02  0.00000000000E+00 0.  1.
         11    1    3    3    0    0  0.27218563145E+02 -0.12472492175E+02  0.14416534648E+02  0.33230252967E+02  0.51100000000E-03 0. -1.
        -11    1    3    3    0    0  0.10421368876E+02 -0.16833710865E+01 -0.76053251458E+01  0.13010750874E+02  0.51100000000E-03 0.  1.
        -12    1    3    3    0    0 -0.49716983667E+00 -0.20910847106E+01 -0.37102666302E+01  0.42878772815E+01  0.00000000000E+00 0.  1.
</event>
<event>
 7    1  0.4963616E-011  0.5052888E+02  0.7816164E-02  0.1300439E+00
        -11   -1    0    0    0    0  0.00000000000E+00  0.00000000000E+00  0.45593999997E+02  0.45594000000E+02  0.51100000000E-03 0. -1.
         11   -1    0    0    0    0 -0.00000000000E+00 -0.00000000000E+00 -0.45593999997E+02  0.45594000000E+02  0.51100000000E-03 0.  1.
    9900012    2    1    2    0    0  0.92883164731E+01  0.34856246132E+02  0.18759877833E+02  0.50528883758E+02  0.30000072670E+02 0.  0.
        -12    1    1    2    0    0 -0.92883164731E+01 -0.34856246132E+02 -0.18759877833E+02  0.40659116242E+02  0.00000000000E+00 0.  1.
         11    1    3    3    0    0  0.15605932847E+02  0.10372978537E+02  0.13109726916E+02  0.22869384859E+02  0.51100000000E-03 0. -1.
        -11    1    3    3    0    0 -0.86538894115E+01  0.15416374561E+02  0.43510099841E+01  0.18206748603E+02  0.51100000000E-03 0.  1.
         12    1    3    3    0    0  0.23362730374E+01  0.90668930341E+01  0.12991409326E+01  0.94527502961E+01  0.00000000000E+00 0. -1.
</event>
<event>
 7    1  0.4963616E-011  0.5052884E+02  0.7816164E-02  0.1300439E+00
        -11   -1    0    0    0    0  0.00000000000E+00  0.00000000000E+00  0.45593999997E+02  0.45594000000E+02  0.51100000000E-03 0.  1.
         11   -1    0    0    0    0 -0.00000000000E+00 -0.00000000000E+00 -0.45593999997E+02  0.45594000000E+02  0.51100000000E-03 0. -1.
    9900012    2    1    2    0    0 -0.22911860072E+02 -0.32241379440E+02 -0.94184620001E+01  0.50528839819E+02  0.29999939113E+02 0.  0.
        -12    1    1    2    0    0  0.22911860072E+02  0.32241379440E+02  0.94184620001E+01  0.40659160181E+02  0.00000000000E+00 0.  1.
         11    1    3    3    0    0 -0.22118176374E+02 -0.35796076033E+02 -0.33723540193E+01  0.42213096988E+02  0.51100000000E-03 0. -1.
        -11    1    3    3    0    0  0.40031329703E+00  0.13382221193E+01 -0.55840199497E+01  0.57560722925E+01  0.51100000000E-03 0.  1.
         12    1    3    3    0    0 -0.11939969954E+01  0.22164744730E+01 -0.46208803101E+00  0.25596705380E+01  0.00000000000E+00 0. -1.
</event>
<event>
 7    1  0.4963616E-011  0.5052885E+02  0.7816164E-02  0.1300439E+00
        -11   -1    0    0    0    0  0.00000000000E+00  0.00000000000E+00  0.45593999997E+02  0.45594000000E+02  0.51100000000E-03 0.  1.
         11   -1    0    0    0    0 -0.00000000000E+00 -0.00000000000E+00 -0.45593999997E+02  0.45594000000E+02  0.51100000000E-03 0. -1.
    9900012    2    1    2    0    0  0.29296579546E+01  0.39876787264E+02 -0.73773519241E+01  0.50528851218E+02  0.29999973764E+02 0.  0.
        -12    1    1    2    0    0 -0.29296579546E+01 -0.39876787264E+02  0.73773519241E+01  0.40659148782E+02  0.00000000000E+00 0.  1.
         11    1    3    3    0    0 -0.62265736734E+00  0.50445631773E+01 -0.92364976426E+01  0.10542685085E+02  0.51100000000E-03 0. -1.
        -11    1    3    3    0    0 -0.15195529673E+01  0.11488795469E+02  0.94153410237E+01  0.14931513969E+02  0.51100000000E-03 0.  1.
        -12    1    3    3    0    0  0.50718682893E+01  0.23343428618E+02 -0.75561953052E+01  0.25054652165E+02  0.00000000000E+00 0.  1.
</event>
<event>
 7    1  0.4963616E-011  0.5052884E+02  0.7816164E-02  0.1300439E+00
        -11   -1    0    0    0    0  0.00000000000E+00  0.00000000000E+00  0.45593999997E+02  0.45594000000E+02  0.51100000000E-03 0. -1.
         11   -1    0    0    0    0 -0.00000000000E+00 -0.00000000000E+00 -0.45593999997E+02  0.45594000000E+02  0.51100000000E-03 0.  1.
    9900012    2    1    2    0    0  0.68288138984E+01 -0.26673031890E+02  0.29917951097E+02  0.50528842024E+02  0.29999945816E+02 0.  0.
        -12    1    1    2    0    0 -0.68288138984E+01  0.26673031890E+02 -0.29917951097E+02  0.40659157976E+02  0.00000000000E+00 0.  1.
         11    1    3    3    0    0  0.74295216659E+01  0.17450087494E+01  0.98416603422E+01  0.12453960265E+02  0.51100000000E-03 0. -1.
        -11    1    3    3    0    0 -0.74548457732E+01 -0.20827188879E+02  0.13479207994E+02  0.25904354277E+02  0.51100000000E-03 0.  1.
         12    1    3    3    0    0  0.68541380058E+01 -0.75908517600E+01  0.65970827614E+01  0.12170527483E+02  0.00000000000E+00 0. -1.
</event>
<event>
 7    1  0.4963616E-011  0.5052887E+02  0.7816164E-02  0.1300439E+00
        -11   -1    0    0    0    0  0.00000000000E+00  0.00000000000E+00  0.45593999997E+02  0.45594000000E+02  0.51100000000E-03 0.  1.
         11   -1    0    0    0    0 -0.00000000000E+00 -0.00000000000E+00 -0.45593999997E+02  0.45594000000E+02  0.51100000000E-03 0. -1.
    9900012    2    1    2    0    0  0.34514145380E+02  0.17546838917E+02 -0.12411555377E+02  0.50528874405E+02  0.30000044241E+02 0.  0.
        -12    1    1    2    0    0 -0.34514145380E+02 -0.17546838917E+02  0.12411555377E+02  0.40659125595E+02  0.00000000000E+00 0.  1.
         11    1    3    3    0    0  0.21531025007E+01  0.28474185833E+01 -0.40930777396E+01  0.54311074939E+01  0.51100000000E-03 0. -1.
        -11    1    3    3    0    0  0.19587427488E+02  0.20799096520E+02  0.21121222180E+00  0.28571215279E+02  0.51100000000E-03 0.  1.
        -12    1    3    3    0    0  0.12773615392E+02 -0.60996761868E+01 -0.85296898588E+01  0.16526551632E+02  0.00000000000E+00 0.  1.
</event>
<event>
 7    1  0.4963616E-011  0.5052899E+02  0.7816164E-02  0.1300438E+00
        -11   -1    0    0    0    0  0.00000000000E+00  0.00000000000E+00  0.45593999997E+02  0.45594000000E+02  0.51100000000E-03 0. -1.
         11   -1    0    0    0    0 -0.00000000000E+00 -0.00000000000E+00 -0.45593999997E+02  0.45594000000E+02  0.51100000000E-03 0.  1.
    9900012    2    1    2    0    0 -0.30201212424E+02  0.96191380428E+01  0.25465946063E+02  0.50528985533E+02  0.30000382022E+02 0.  0.
        -12    1    1    2    0    0  0.30201212424E+02 -0.96191380428E+01 -0.25465946063E+02  0.40659014467E+02  0.00000000000E+00 0.  1.
         11    1    3    3    0    0 -0.32933093691E+02  0.12426541431E+02  0.16201211933E+02  0.38749023993E+02  0.51100000000E-03 0. -1.
        -11    1    3    3    0    0  0.46011046635E+01 -0.25679420745E+01  0.58015506191E+01  0.78372495475E+01  0.51100000000E-03 0.  1.
        -12    1    3    3    0    0 -0.18692233965E+01 -0.23946131365E+00  0.34631835105E+01  0.39427119924E+01  0.00000000000E+00 0.  1.
</event>
<event>
 7    1  0.4963616E-011  0.5052886E+02  0.7816164E-02  0.1300439E+00
        -11   -1    0    0    0    0  0.00000000000E+00  0.00000000000E+00  0.45593999997E+02  0.45594000000E+02  0.51100000000E-03 0.  1.
         11   -1    0    0    0    0 -0.00000000000E+00 -0.00000000000E+00 -0.45593999997E+02  0.45594000000E+02  0.51100000000E-03 0. -1.
    9900012    2    1    2    0    0  0.27257009039E+02  0.30155581998E+02 -0.92863086664E+00  0.50528855608E+02  0.29999987106E+02 0.  0.
        -12    1    1    2    0    0 -0.27257009039E+02 -0.30155581998E+02  0.92863086664E+00  0.40659144392E+02  0.00000000000E+00 0.  1.
         11    1    3    3    0    0  0.18701217042E+02  0.25804030727E+02  0.29119568752E-01  0.31868234479E+02  0.51100000000E-03 0. -1.
        -11    1    3    3    0    0  0.47501456380E+01 -0.54859642359E+01 -0.31104477153E+01  0.78952246599E+01  0.51100000000E-03 0.  1.
        -12    1    3    3    0    0  0.38056463592E+01  0.98375155068E+01  0.21526972799E+01  0.10765396469E+02  0.00000000000E+00 0.  1.
</event>
<event>
 7    1  0.4963616E-011  0.5052886E+02  0.7816164E-02  0.1300439E+00
        -11   -1    0    0    0    0  0.00000000000E+00  0.00000000000E+00  0.45593999997E+02  0.45594000000E+02  0.51100000000E-03 0. -1.
         11   -1    0    0    0    0 -0.00000000000E+00 -0.00000000000E+00 -0.45593999997E+02  0.45594000000E+02  0.51100000000E-03 0.  1.
    9900012    2    1    2    0    0  0.35134149785E+02  0.15438006129E+02 -0.13432233631E+02  0.50528863085E+02  0.30000009833E+02 0.  0.
        -12    1    1    2    0    0 -0.35134149785E+02 -0.15438006129E+02  0.13432233631E+02  0.40659136915E+02  0.00000000000E+00 0.  1.
         11    1    3    3    0    0 -0.14232436472E+01  0.99015920621E+00  0.31832362573E+01  0.36247801401E+01  0.51100000000E-03 0. -1.
        -11    1    3    3    0    0  0.13490813647E+02  0.72006473089E+01 -0.16809978892E+02  0.22725025085E+02  0.51100000000E-03 0.  1.
         12    1    3    3    0    0  0.23066579785E+02  0.72471996139E+01  0.19450900373E+00  0.24179057860E+02  0.00000000000E+00 0. -1.
</event>
<event>
 7    1  0.4963616E-011  0.5052886E+02  0.7816164E-02  0.1300439E+00
        -11   -1    0    0    0    0  0.00000000000E+00  0.00000000000E+00  0.45593999997E+02  0.45594000000E+02  0.51100000000E-03 0.  1.
         11   -1    0    0    0    0 -0.00000000000E+00 -0.00000000000E+00 -0.45593999997E+02  0.45594000000E+02  0.51100000000E-03 0. -1.
    9900012    2    1    2    0    0  0.33922743116E+01 -0.33089458395E+02 -0.23382593349E+02  0.50528862606E+02  0.30000008378E+02 0.  0.
        -12    1    1    2    0    0 -0.33922743116E+01  0.33089458395E+02  0.23382593349E+02  0.40659137394E+02  0.00000000000E+00 0.  1.
         11    1    3    3    0    0 -0.19891031048E+01 -0.89151216615E+01 -0.38890134178E+01  0.99277565959E+01  0.51100000000E-03 0. -1.
        -11    1    3    3    0    0  0.57394598164E+01 -0.43282521997E+01 -0.19466918936E+02  0.20751773399E+02  0.51100000000E-03 0.  1.
        -12    1    3    3    0    0 -0.35808239999E+00 -0.19846084533E+02 -0.26660995454E-01  0.19849332611E+02  0.00000000000E+00 0.  1.
</event>
<event>
 7    1  0.4963616E-011  0.5052886E+02  0.7816164E-02  0.1300439E+00
        -11   -1    0    0    0    0  0.00000000000E+00  0.00000000000E+00  0.45593999997E+02  0.45594000000E+02  0.51100000000E-03 0. -1.
         11   -1    0    0    0    0 -0.00000000000E+00 -0.00000000000E+00 -0.45593999997E+02  0.45594000000E+02  0.51100000000E-03 0.  1.
    9900012    2    1    2    0    0 -0.26885301210E+00 -0.66726988180E+00  0.40652774397E+02  0.50528860840E+02  0.30000003009E+02 0.  0.
        -12    1    1    2    0    0  0.26885301210E+00  0.66726988180E+00 -0.40652774397E+02  0.40659139160E+02  0.00000000000E+00 0.  1.
         11    1    3    3    0    0 -0.74745792449E+01  0.32024048650E+01  0.98372014839E+01  0.12763042941E+02  0.51100000000E-03 0.  1.
        -11    1    3    3    0    0  0.50391337037E+01 -0.12016686093E+02  0.15206871872E+02  0.20026047177E+02  0.51100000000E-03 0. -1.
         12    1    3    3    0    0  0.21665925292E+01  0.81470113464E+01  0.15608701041E+02  0.17739770722E+02  0.00000000000E+00 0. -1.
</event>
<event>
 7    1  0.4963616E-011  0.5052886E+02  0.7816164E-02  0.1300439E+00
        -11   -1    0    0    0    0  0.00000000000E+00  0.00000000000E+00  0.45593999997E+02  0.45594000000E+02  0.51100000000E-03 0.  1.
         11   -1    0    0    0    0 -0.00000000000E+00 -0.00000000000E+00 -0.45593999997E+02  0.45594000000E+02  0.51100000000E-03 0. -1.
    9900012    2    1    2    0    0 -0.16153662081E+02 -0.17258601926E+02 -0.33081194422E+02  0.50528861256E+02  0.30000004272E+02 0.  0.
        -12    1    1    2    0    0  0.16153662081E+02  0.17258601926E+02  0.33081194422E+02  0.40659138744E+02  0.00000000000E+00 0.  1.
         11    1    3    3    0    0 -0.10919891275E+02 -0.51541619575E+01 -0.20776514761E+02  0.24030667424E+02  0.51100000000E-03 0. -1.
        -11    1    3    3    0    0  0.46860373045E+01 -0.12691118354E+02 -0.69109561183E+01  0.15191601147E+02  0.51100000000E-03 0.  1.
         12    1    3    3    0    0 -0.99198081110E+01  0.58667838529E+00 -0.53937235420E+01  0.11306592685E+02  0.00000000000E+00 0. -1.
</event>
<event>
 7    1  0.4963616E-011  0.5052887E+02  0.7816164E-02  0.1300439E+00
        -11   -1    0    0    0    0  0.00000000000E+00  0.00000000000E+00  0.45593999997E+02  0.45594000000E+02  0.51100000000E-03 0.  1.
         11   -1    0    0    0    0 -0.00000000000E+00 -0.00000000000E+00 -0.45593999997E+02  0.45594000000E+02  0.51100000000E-03 0. -1.
    9900012    2    1    2    0    0 -0.12544802886E+02  0.20031763682E+02 -0.33083553409E+02  0.50528866440E+02  0.30000020032E+02 0.  0.
        -12    1    1    2    0    0  0.12544802886E+02 -0.20031763682E+02  0.33083553409E+02  0.40659133560E+02  0.00000000000E+00 0.  1.
         11    1    3    3    0    0  0.38910621139E+01  0.35416524924E+01 -0.18625365740E+02  0.19354273842E+02  0.51100000000E-03 0. -1.
        -11    1    3    3    0    0 -0.90316745675E+01  0.16695689753E+02 -0.14300322240E+02  0.23765866663E+02  0.51100000000E-03 0.  1.
        -12    1    3    3    0    0 -0.74041904321E+01 -0.20557856281E+00 -0.15786542943E+00  0.74087259359E+01  0.00000000000E+00 0.  1.
</event>
<event>
 7    1  0.4963616E-011  0.5052885E+02  0.7816164E-02  0.1300439E+00
        -11   -1    0    0    0    0  0.00000000000E+00  0.00000000000E+00  0.45593999997E+02  0.45594000000E+02  0.51100000000E-03 0.  1.
         11   -1    0    0    0    0 -0.00000000000E+00 -0.00000000000E+00 -0.45593999997E+02  0.45594000000E+02  0.51100000000E-03 0. -1.
    9900012    2    1    2    0    0  0.18343203875E+02  0.21025916472E+01 -0.36225300699E+02  0.50528850589E+02  0.29999971852E+02 0.  0.
        -12    1    1    2    0    0 -0.18343203875E+02 -0.21025916472E+01  0.36225300699E+02  0.40659149411E+02  0.00000000000E+00 0.  1.
         11    1    3    3    0    0  0.19303640947E+02 -0.10185893621E+02 -0.17606819553E+02  0.28042522670E+02  0.51100000000E-03 0. -1.
        -11    1    3    3    0    0 -0.99714939864E+00  0.16909465062E+01 -0.22419953659E+01  0.29799581359E+01  0.51100000000E-03 0.  1.
         12    1    3    3    0    0  0.36712327120E-01  0.10597538762E+02 -0.16376485780E+02  0.19506369783E+02  0.00000000000E+00 0. -1.
</event>
<event>
 7    1  0.4963616E-011  0.5052886E+02  0.7816164E-02  0.1300439E+00
        -11   -1    0    0    0    0  0.00000000000E+00  0.00000000000E+00  0.45593999997E+02  0.45594000000E+02  0.51100000000E-03 0.  1.
         11   -1    0    0    0    0 -0.00000000000E+00 -0.00000000000E+00 -0.45593999997E+02  0.45594000000E+02  0.51100000000E-03 0. -1.
    9900012    2    1    2    0    0 -0.12700574972E+02  0.35617993675E+02  0.14940531957E+02  0.50528861135E+02  0.30000003907E+02 0.  0.
        -12    1    1    2    0    0  0.12700574972E+02 -0.35617993675E+02 -0.14940531957E+02  0.40659138865E+02  0.00000000000E+00 0.  1.
         11    1    3    3    0    0 -0.46510543725E+01  0.28110842958E+02  0.54431420357E+01  0.29008267685E+02  0.51100000000E-03 0. -1.
        -11    1    3    3    0    0  0.22137943942E+01 -0.35695143731E+00 -0.28606777903E+01  0.36348009065E+01  0.51100000000E-03 0.  1.
         12    1    3    3    0    0 -0.10263314994E+02  0.78641021544E+01  0.12358067712E+02  0.17885792544E+02  0.00000000000E+00 0. -1.
</event>
<event>
 7    1  0.4963616E-011  0.5052886E+02  0.7816164E-02  0.1300439E+00
        -11   -1    0    0    0    0  0.00000000000E+00  0.00000000000E+00  0.45593999997E+02  0.45594000000E+02  0.51100000000E-03 0.  1.
         11   -1    0    0    0    0 -0.00000000000E+00 -0.00000000000E+00 -0.45593999997E+02  0.45594000000E+02  0.51100000000E-03 0. -1.
    9900012    2    1    2    0    0  0.21473769262E+02  0.16038692702E+02 -0.30574549281E+02  0.50528862114E+02  0.30000006881E+02 0.  0.
        -12    1    1    2    0    0 -0.21473769262E+02 -0.16038692702E+02  0.30574549281E+02  0.40659137886E+02  0.00000000000E+00 0.  1.
         11    1    3    3    0    0  0.12101505349E+02  0.35718002778E+01 -0.31065376010E+02  0.33530013060E+02  0.51100000000E-03 0. -1.
        -11    1    3    3    0    0  0.89879873065E+01  0.68090718170E+01 -0.25702934018E+00  0.11278893526E+02  0.51100000000E-03 0.  1.
         12    1    3    3    0    0  0.38427660628E+00  0.56578206076E+01  0.74785606897E+00  0.57199555276E+01  0.00000000000E+00 0. -1.
</event>
<event>
 7    1  0.4963616E-011  0.5052886E+02  0.7816164E-02  0.1300439E+00
        -11   -1    0    0    0    0  0.00000000000E+00  0.00000000000E+00  0.45593999997E+02  0.45594000000E+02  0.51100000000E-03 0.  1.
         11   -1    0    0    0    0 -0.00000000000E+00 -0.00000000000E+00 -0.45593999997E+02  0.45594000000E+02  0.51100000000E-03 0. -1.
    9900012    2    1    2    0    0 -0.20322518586E+02 -0.27944033659E+02 -0.21431101782E+02  0.50528857087E+02  0.29999991602E+02 0.  0.
        -12    1    1    2    0    0  0.20322518586E+02  0.27944033659E+02  0.21431101782E+02  0.40659142913E+02  0.00000000000E+00 0.  1.
         11    1    3    3    0    0 -0.10486366457E+02 -0.27650960919E+02 -0.14140764556E+02  0.32779578150E+02  0.51100000000E-03 0. -1.
        -11    1    3    3    0    0  0.25209516907E+01  0.22936432454E+00  0.11451707774E+01  0.27783487525E+01  0.51100000000E-03 0.  1.
         12    1    3    3    0    0 -0.12357103820E+02 -0.52243706409E+00 -0.84355080032E+01  0.14970930184E+02  0.00000000000E+00 0. -1.
</event>
<event>
 7    1  0.4963616E-011  0.5052886E+02  0.7816164E-02  0.1300439E+00
        -11   -1    0    0    0    0  0.00000000000E+00  0.00000000000E+00  0.45593999997E+02  0.45594000000E+02  0.51100000000E-03 0.  1.
         11   -1    0    0    0    0 -0.00000000000E+00 -0.00000000000E+00 -0.45593999997E+02  0.45594000000E+02  0.51100000000E-03 0. -1.
    9900012    2    1    2    0    0  0.28978348274E+02 -0.20357827354E+02 -0.19974475455E+02  0.50528862368E+02  0.30000007654E+02 0.  0.
        -12    1    1    2    0    0 -0.28978348274E+02  0.20357827354E+02  0.19974475455E+02  0.40659137632E+02  0.00000000000E+00 0.  1.
         11    1    3    3    0    0  0.29340445827E+02 -0.13547648895E+02 -0.20321709549E+02  0.38175547556E+02  0.51100000000E-03 0. -1.
        -11    1    3    3    0    0 -0.50689652048E+01 -0.28769102687E+01  0.17013144191E+01  0.60716959703E+01  0.51100000000E-03 0.  1.
        -12    1    3    3    0    0  0.47068676523E+01 -0.39332681900E+01 -0.13540803243E+01  0.62816188419E+01  0.00000000000E+00 0.  1.
</event>
<event>
 7    1  0.4963616E-011  0.5052885E+02  0.7816164E-02  0.1300439E+00
        -11   -1    0    0    0    0  0.00000000000E+00  0.00000000000E+00  0.45593999997E+02  0.45594000000E+02  0.51100000000E-03 0.  1.
         11   -1    0    0    0    0 -0.00000000000E+00 -0.00000000000E+00 -0.45593999997E+02  0.45594000000E+02  0.51100000000E-03 0. -1.
    9900012    2    1    2    0    0 -0.29853504468E+02  0.90984666402E+01 -0.26060556296E+02  0.50528850739E+02  0.29999972306E+02 0.  0.
        -12    1    1    2    0    0  0.29853504468E+02 -0.90984666402E+01  0.26060556296E+02  0.40659149261E+02  0.00000000000E+00 0.  1.
         11    1    3    3    0    0 -0.63186376988E+01  0.73620388196E+01 -0.34894964835E+01  0.10310256249E+02  0.51100000000E-03 0. -1.
        -11    1    3    3    0    0 -0.83918002603E+01 -0.10392085904E+02 -0.12781059044E+02  0.18487109877E+02  0.51100000000E-03 0.  1.
        -12    1    3    3    0    0 -0.15143066509E+02  0.12128513725E+02 -0.97900007684E+01  0.21731484613E+02  0.00000000000E+00 0.  1.
</event>
<event>
 7    1  0.4963616E-011  0.5052883E+02  0.7816164E-02  0.1300439E+00
        -11   -1    0    0    0    0  0.00000000000E+00  0.00000000000E+00  0.45593999997E+02  0.45594000000E+02  0.51100000000E-03 0.  1.
         11   -1    0    0    0    0 -0.00000000000E+00 -0.00000000000E+00 -0.45593999997E+02  0.45594000000E+02  0.51100000000E-03 0. -1.
    9900012    2    1    2    0    0  0.80937359944E+01  0.20922361738E+02 -0.33910392138E+02  0.50528825414E+02  0.29999895328E+02 0.  0.
        -12    1    1    2    0    0 -0.80937359944E+01 -0.20922361738E+02  0.33910392138E+02  0.40659174586E+02  0.00000000000E+00 0.  1.
         11    1    3    3    0    0 -0.73663334322E+01  0.26633617218E+01 -0.96569856579E+00  0.78923341209E+01  0.51100000000E-03 0. -1.
        -11    1    3    3    0    0  0.17239321319E+02  0.18476620783E+02 -0.30901731802E+02  0.39918626526E+02  0.51100000000E-03 0.  1.
        -12    1    3    3    0    0 -0.17792518925E+01 -0.21762076645E+00 -0.20429617704E+01  0.27178647667E+01  0.00000000000E+00 0.  1.
</event>
<event>
 7    1  0.4963616E-011  0.5052886E+02  0.7816164E-02  0.1300439E+00
        -11   -1    0    0    0    0  0.00000000000E+00  0.00000000000E+00  0.45593999997E+02  0.45594000000E+02  0.51100000000E-03 0.  1.
         11   -1    0    0    0    0 -0.00000000000E+00 -0.00000000000E+00 -0.45593999997E+02  0.45594000000E+02  0.51100000000E-03 0. -1.
    9900012    2    1    2    0    0 -0.24477345447E+02  0.32456409598E+02 -0.77891747134E+00  0.50528859865E+02  0.30000000044E+02 0.  0.
        -12    1    1    2    0    0  0.24477345447E+02 -0.32456409598E+02  0.77891747134E+00  0.40659140135E+02  0.00000000000E+00 0.  1.
         11    1    3    3    0    0 -0.20651590221E+02  0.30200479034E+02  0.49137193452E+01  0.36914790404E+02  0.51100000000E-03 0. -1.
        -11    1    3    3    0    0  0.11637712461E+01 -0.29811922392E+01 -0.55175514900E+01  0.63784986780E+01  0.51100000000E-03 0.  1.
        -12    1    3    3    0    0 -0.49895264724E+01  0.52371228029E+01 -0.17508532656E+00  0.72355707821E+01  0.00000000000E+00 0.  1.
</event>
<event>
 7    1  0.4963616E-011  0.5052887E+02  0.7816164E-02  0.1300439E+00
        -11   -1    0    0    0    0  0.00000000000E+00  0.00000000000E+00  0.45593999997E+02  0.45594000000E+02  0.51100000000E-03 0. -1.
         11   -1    0    0    0    0 -0.00000000000E+00 -0.00000000000E+00 -0.45593999997E+02  0.45594000000E+02  0.51100000000E-03 0.  1.
    9900012    2    1    2    0    0 -0.26621837040E+02  0.28182234784E+02 -0.12255785893E+02  0.50528869996E+02  0.30000030841E+02 0.  0.
        -12    1    1    2    0    0  0.26621837040E+02 -0.28182234784E+02  0.12255785893E+02  0.40659130004E+02  0.00000000000E+00 0.  1.
         11    1    3    3    0    0 -0.26951958840E+02  0.32379853849E+02 -0.11590253489E+02  0.43694358867E+02  0.51100000000E-03 0. -1.
        -11    1    3    3    0    0  0.17716798192E+01 -0.48511894211E+01 -0.13905545165E+00  0.51664518638E+01  0.51100000000E-03 0.  1.
        -12    1    3    3    0    0 -0.14415580190E+01  0.65357035570E+00 -0.52647695203E+00  0.16680592654E+01  0.00000000000E+00 0.  1.
</event>
<event>
 7    1  0.4963616E-011  0.5052886E+02  0.7816164E-02  0.1300439E+00
        -11   -1    0    0    0    0  0.00000000000E+00  0.00000000000E+00  0.45593999997E+02  0.45594000000E+02  0.51100000000E-03 0. -1.
         11   -1    0    0    0    0 -0.00000000000E+00 -0.00000000000E+00 -0.45593999997E+02  0.45594000000E+02  0.51100000000E-03 0.  1.
    9900012    2    1    2    0    0  0.36277924922E+01  0.39227186791E+02 -0.10061448050E+02  0.50528858362E+02  0.29999995477E+02 0.  0.
        -12    1    1    2    0    0 -0.36277924922E+01 -0.39227186791E+02  0.10061448050E+02  0.40659141638E+02  0.00000000000E+00 0.  1.
         11    1    3    3    0    0  0.56838231351E+01  0.21464163498E+02 -0.13226642181E+02  0.25844926461E+02  0.51100000000E-03 0. -1.
        -11    1    3    3    0    0 -0.62425379973E+01  0.37693361005E+01 -0.41048190651E+01  0.83681966459E+01  0.51100000000E-03 0.  1.
        -12    1    3    3    0    0  0.41865073544E+01  0.13993687192E+02  0.72700131964E+01  0.16315735255E+02  0.00000000000E+00 0.  1.
</event>
<event>
 7    1  0.4963616E-011  0.5052886E+02  0.7816164E-02  0.1300439E+00
        -11   -1    0    0    0    0  0.00000000000E+00  0.00000000000E+00  0.45593999997E+02  0.45594000000E+02  0.51100000000E-03 0.  1.
         11   -1    0    0    0    0 -0.00000000000E+00 -0.00000000000E+00 -0.45593999997E+02  0.45594000000E+02  0.51100000000E-03 0. -1.
    9900012    2    1    2    0    0 -0.27521200076E+02 -0.13925797966E+02 -0.26491906555E+02  0.50528863075E+02  0.30000009802E+02 0.  0.
        -12    1    1    2    0    0  0.27521200076E+02  0.13925797966E+02  0.26491906555E+02  0.40659136925E+02  0.00000000000E+00 0.  1.
         11    1    3    3    0    0 -0.16416884331E+02 -0.13431585808E+02 -0.45139629228E+01  0.21686342476E+02  0.51100000000E-03 0. -1.
        -11    1    3    3    0    0 -0.13741063664E+02  0.29867340072E+01 -0.18623153969E+02  0.23335793851E+02  0.51100000000E-03 0.  1.
        -12    1    3    3    0    0  0.26367479188E+01 -0.34809461650E+01 -0.33547896631E+01  0.55067267477E+01  0.00000000000E+00 0.  1.
</event>
<event>
 7    1  0.4963616E-011  0.5052886E+02  0.7816164E-02  0.1300439E+00
        -11   -1    0    0    0    0  0.00000000000E+00  0.00000000000E+00  0.45593999997E+02  0.45594000000E+02  0.51100000000E-03 0.  1.
         11   -1    0    0    0    0 -0.00000000000E+00 -0.00000000000E+00 -0.45593999997E+02  0.45594000000E+02  0.51100000000E-03 0. -1.
    9900012    2    1    2    0    0  0.59037293563E+01  0.33963290788E+02 -0.21559374520E+02  0.50528858702E+02  0.29999996509E+02 0.  0.
        -12    1    1    2    0    0 -0.59037293563E+01 -0.33963290788E+02  0.21559374520E+02  0.40659141298E+02  0.00000000000E+00 0.  1.
         11    1    3    3    0    0 -0.45676106678E+01  0.13898136033E+02  0.26533474643E+01  0.14868137255E+02  0.51100000000E-03 0. -1.
        -11    1    3    3    0    0  0.13479603854E+02  0.14941330259E+02 -0.17226418617E+02  0.26489480338E+02  0.51100000000E-03 0.  1.
         12    1    3    3    0    0 -0.30082638296E+01  0.51238244951E+01 -0.69863033672E+01  0.91712411081E+01  0.00000000000E+00 0. -1.
</event>
<event>
 7    1  0.4963616E-011  0.5052886E+02  0.7816164E-02  0.1300439E+00
        -11   -1    0    0    0    0  0.00000000000E+00  0.00000000000E+00  0.45593999997E+02  0.45594000000E+02  0.51100000000E-03 0.  1.
         11   -1    0    0    0    0 -0.00000000000E+00 -0.00000000000E+00 -0.45593999997E+02  0.45594000000E+02  0.51100000000E-03 0. -1.
    9900012    2    1    2    0    0 -0.21194315282E+02 -0.33365817146E+02 -0.95230702997E+01  0.50528860535E+02  0.30000002083E+02 0.  0.
        -12    1    1    2    0    0  0.21194315282E+02  0.33365817146E+02  0.95230702997E+01  0.40659139465E+02  0.00000000000E+00 0.  1.
         11    1    3    3    0    0  0.74782309265E+00 -0.20906428404E+01 -0.86509418754E+01  0.89313393428E+01  0.51100000000E-03 0. -1.
        -11    1    3    3    0    0 -0.17865652228E+01 -0.77263123093E+01  0.58820077710E+01  0.98734863587E+01  0.51100000000E-03 0.  1.
         12    1    3    3    0    0 -0.20155573152E+02 -0.23548861996E+02 -0.67541361953E+01  0.31724034834E+02  0.00000000000E+00 0. -1.
</event>
<event>
 7    1  0.4963616E-011  0.5052886E+02  0.7816164E-02  0.1300439E+00
        -11   -1    0    0    0    0  0.00000000000E+00  0.00000000000E+00  0.45593999997E+02  0.45594000000E+02  0.51100000000E-03 0. -1.
         11   -1    0    0    0    0 -0.00000000000E+00 -0.00000000000E+00 -0.45593999997E+02  0.45594000000E+02  0.51100000000E-03 0.  1.
    9900012    2    1    2    0    0 -0.23537481129E+02 -0.32416196270E+02  0.69528845699E+01  0.50528863236E+02  0.30000010293E+02 0.  0.
        -12    1    1    2    0    0  0.23537481129E+02  0.32416196270E+02 -0.69528845699E+01  0.40659136764E+02  0.00000000000E+00 0.  1.
         11    1    3    3    0    0  0.18023280445E+01 -0.14966005536E+02 -0.52147797957E+01  0.15950662578E+02  0.51100000000E-03 0. -1.
        -11    1    3    3    0    0 -0.98070765039E+01 -0.58110700482E+01  0.97845165376E+01  0.15022784322E+02  0.51100000000E-03 0.  1.
         12    1    3    3    0    0 -0.15532732670E+02 -0.11639120686E+02  0.23831478280E+01  0.19555416336E+02  0.00000000000E+00 0. -1.
</event>
<event>
 7    1  0.4963616E-011  0.5052882E+02  0.7816164E-02  0.1300439E+00
        -11   -1    0    0    0    0  0.00000000000E+00  0.00000000000E+00  0.45593999997E+02  0.45594000000E+02  0.51100000000E-03 0.  1.
         11   -1    0    0    0    0 -0.00000000000E+00 -0.00000000000E+00 -0.45593999997E+02  0.45594000000E+02  0.51100000000E-03 0. -1.
    9900012    2    1    2    0    0  0.38261344132E+02 -0.10304740411E+02 -0.91131995064E+01  0.50528824713E+02  0.29999893198E+02 0.  0.
        -12    1    1    2    0    0 -0.38261344132E+02  0.10304740411E+02  0.91131995064E+01  0.40659175287E+02  0.00000000000E+00 0.  1.
         11    1    3    3    0    0  0.89005364455E+01 -0.11881591681E+02 -0.11872669429E+02  0.19009262203E+02  0.51100000000E-03 0.  1.
        -11    1    3    3    0    0  0.16957910579E+01 -0.19879828849E+00  0.33842682180E+01  0.37905803914E+01  0.51100000000E-03 0. -1.
         12    1    3    3    0    0  0.27665016629E+02  0.17756495582E+01 -0.62479829568E+00  0.27728982119E+02  0.00000000000E+00 0. -1.
</event>
<event>
 7    1  0.4963616E-011  0.5052884E+02  0.7816164E-02  0.1300439E+00
        -11   -1    0    0    0    0  0.00000000000E+00  0.00000000000E+00  0.45593999997E+02  0.45594000000E+02  0.51100000000E-03 0. -1.
         11   -1    0    0    0    0 -0.00000000000E+00 -0.00000000000E+00 -0.45593999997E+02  0.45594000000E+02  0.51100000000E-03 0.  1.
    9900012    2    1    2    0    0 -0.16840378647E+02  0.20424060416E+02 -0.30861404643E+02  0.50528844901E+02  0.29999954560E+02 0.  0.
        -12    1    1    2    0    0  0.16840378647E+02 -0.20424060416E+02  0.30861404643E+02  0.40659155099E+02  0.00000000000E+00 0.  1.
         11    1    3    3    0    0  0.69678402633E+01  0.10464535057E+02 -0.12358793305E+02  0.17629437430E+02  0.51100000000E-03 0. -1.
        -11    1    3    3    0    0 -0.12343824956E+02  0.15800872941E+01 -0.53570050562E+01  0.13548586415E+02  0.51100000000E-03 0.  1.
        -12    1    3    3    0    0 -0.11464393954E+02  0.83794380652E+01 -0.13145606282E+02  0.19350821056E+02  0.00000000000E+00 0.  1.
</event>
<event>
 7    1  0.4963616E-011  0.5052886E+02  0.7816164E-02  0.1300439E+00
        -11   -1    0    0    0    0  0.00000000000E+00  0.00000000000E+00  0.45593999997E+02  0.45594000000E+02  0.51100000000E-03 0.  1.
         11   -1    0    0    0    0 -0.00000000000E+00 -0.00000000000E+00 -0.45593999997E+02  0.45594000000E+02  0.51100000000E-03 0. -1.
    9900012    2    1    2    0    0 -0.28671262095E+02  0.21288376144E+02 -0.19440407038E+02  0.50528860132E+02  0.30000000858E+02 0.  0.
        -12    1    1    2    0    0  0.28671262095E+02 -0.21288376144E+02  0.19440407038E+02  0.40659139868E+02  0.00000000000E+00 0.  1.
         11    1    3    3    0    0 -0.97590968171E+01 -0.85441358365E+00 -0.25069619194E+01  0.10112114101E+02  0.51100000000E-03 0. -1.
        -11    1    3    3    0    0 -0.48159106957E+01  0.20744240210E+02 -0.49529403750E+01  0.21864311477E+02  0.51100000000E-03 0.  1.
        -12    1    3    3    0    0 -0.14096254582E+02  0.13985495179E+01 -0.11980504744E+02  0.18552434555E+02  0.00000000000E+00 0.  1.
</event>
<event>
 7    1  0.4963616E-011  0.5052886E+02  0.7816164E-02  0.1300439E+00
        -11   -1    0    0    0    0  0.00000000000E+00  0.00000000000E+00  0.45593999997E+02  0.45594000000E+02  0.51100000000E-03 0.  1.
         11   -1    0    0    0    0 -0.00000000000E+00 -0.00000000000E+00 -0.45593999997E+02  0.45594000000E+02  0.51100000000E-03 0. -1.
    9900012    2    1    2    0    0 -0.36530417427E+01  0.36454677460E+01 -0.40330279579E+02  0.50528860807E+02  0.30000002907E+02 0.  0.
        -12    1    1    2    0    0  0.36530417427E+01 -0.36454677460E+01  0.40330279579E+02  0.40659139193E+02  0.00000000000E+00 0.  1.
         11    1    3    3    0    0  0.14507991129E+01  0.82377825057E+01 -0.17462848836E+02  0.19362772745E+02  0.51100000000E-03 0. -1.
        -11    1    3    3    0    0 -0.89585679877E+01 -0.10307011252E+02 -0.11412739339E+02  0.17797220030E+02  0.51100000000E-03 0.  1.
        -12    1    3    3    0    0  0.38547271321E+01  0.57146964919E+01 -0.11454691404E+02  0.13368868031E+02  0.00000000000E+00 0.  1.
</event>
<event>
 7    1  0.4963616E-011  0.5052889E+02  0.7816164E-02  0.1300439E+00
        -11   -1    0    0    0    0  0.00000000000E+00  0.00000000000E+00  0.45593999997E+02  0.45594000000E+02  0.51100000000E-03 0. -1.
         11   -1    0    0    0    0 -0.00000000000E+00 -0.00000000000E+00 -0.45593999997E+02  0.45594000000E+02  0.51100000000E-03 0.  1.
    9900012    2    1    2    0    0  0.92488097203E+00  0.40244391467E+02 -0.57181047579E+01  0.50528890672E+02  0.30000093686E+02 0.  0.
        -12    1    1    2    0    0 -0.92488097203E+00 -0.40244391467E+02  0.57181047579E+01  0.40659109328E+02  0.00000000000E+00 0.  1.
         11    1    3    3    0    0  0.30223076309E+01  0.90194321716E+01  0.10886306332E+02  0.14456699690E+02  0.51100000000E-03 0. -1.
        -11    1    3    3    0    0  0.75467607500E+00  0.12102407938E+02 -0.97481728703E+01  0.15558428212E+02  0.51100000000E-03 0.  1.
         12    1    3    3    0    0 -0.28521027339E+01  0.19122551358E+02 -0.68562382197E+01  0.20513762769E+02  0.00000000000E+00 0. -1.
</event>
<event>
 7    1  0.4963616E-011  0.5052885E+02  0.7816164E-02  0.1300439E+00
        -11   -1    0    0    0    0  0.00000000000E+00  0.00000000000E+00  0.45593999997E+02  0.45594000000E+02  0.51100000000E-03 0. -1.
         11   -1    0    0    0    0 -0.00000000000E+00 -0.00000000000E+00 -0.45593999997E+02  0.45594000000E+02  0.51100000000E-03 0.  1.
    9900012    2    1    2    0    0 -0.16489968057E+02  0.33940778180E+02 -0.15141689739E+02  0.50528852958E+02  0.29999979052E+02 0.  0.
        -12    1    1    2    0    0  0.16489968057E+02 -0.33940778180E+02  0.15141689739E+02  0.40659147042E+02  0.00000000000E+00 0.  1.
         11    1    3    3    0    0 -0.15925216204E+02  0.73077255443E+01 -0.54418732960E+00  0.17530302447E+02  0.51100000000E-03 0. -1.
        -11    1    3    3    0    0  0.59796377460E+01  0.14323158272E+02 -0.92385232844E+01  0.18062647735E+02  0.51100000000E-03 0.  1.
         12    1    3    3    0    0 -0.65443895995E+01  0.12309894364E+02 -0.53589791255E+01  0.14935902777E+02  0.00000000000E+00 0. -1.
</event>
<event>
 7    1  0.4963616E-011  0.5052885E+02  0.7816164E-02  0.1300439E+00
        -11   -1    0    0    0    0  0.00000000000E+00  0.00000000000E+00  0.45593999997E+02  0.45594000000E+02  0.51100000000E-03 0.  1.
         11   -1    0    0    0    0 -0.00000000000E+00 -0.00000000000E+00 -0.45593999997E+02  0.45594000000E+02  0.51100000000E-03 0. -1.
    9900012    2    1    2    0    0  0.23727285361E+02 -0.22612983694E+02 -0.24058989390E+02  0.50528854994E+02  0.29999985239E+02 0.  0.
        -12    1    1    2    0    0 -0.23727285361E+02  0.22612983694E+02  0.24058989390E+02  0.40659145006E+02  0.00000000000E+00 0.  1.
         11    1    3    3    0    0  0.76076249917E+01 -0.30324470272E+01 -0.12565900703E+02  0.14999118432E+02  0.51100000000E-03 0. -1.
        -11    1    3    3    0    0  0.40901025124E+01 -0.19319249922E+02 -0.13518416193E+01  0.19793681622E+02  0.51100000000E-03 0.  1.
        -12    1    3    3    0    0  0.12029557857E+02 -0.26128674506E+00 -0.10141247067E+02  0.15736054940E+02  0.00000000000E+00 0.  1.
</event>
<event>
 7    1  0.4963616E-011  0.5052885E+02  0.7816164E-02  0.1300439E+00
        -11   -1    0    0    0    0  0.00000000000E+00  0.00000000000E+00  0.45593999997E+02  0.45594000000E+02  0.51100000000E-03 0. -1.
         11   -1    0    0    0    0 -0.00000000000E+00 -0.00000000000E+00 -0.45593999997E+02  0.45594000000E+02  0.51100000000E-03 0.  1.
    9900012    2    1    2    0    0  0.13952410538E+02  0.33478536909E+02  0.18376181746E+02  0.50528852825E+02  0.29999978648E+02 0.  0.
        -12    1    1    2    0    0 -0.13952410538E+02 -0.33478536909E+02 -0.18376181746E+02  0.40659147175E+02  0.00000000000E+00 0.  1.
         11    1    3    3    0    0  0.85167901109E+01  0.96469914696E+01 -0.60543062706E+01  0.14221630810E+02  0.51100000000E-03 0.  1.
        -11    1    3    3    0    0  0.45405495071E+01  0.40789028607E+01  0.10411948568E+02  0.12069080811E+02  0.51100000000E-03 0. -1.
         12    1    3    3    0    0  0.89507092028E+00  0.19752642579E+02  0.14018539449E+02  0.24238141205E+02  0.00000000000E+00 0. -1.
</event>
<event>
 7    1  0.4963616E-011  0.5052886E+02  0.7816164E-02  0.1300439E+00
        -11   -1    0    0    0    0  0.00000000000E+00  0.00000000000E+00  0.45593999997E+02  0.45594000000E+02  0.51100000000E-03 0.  1.
         11   -1    0    0    0    0 -0.00000000000E+00 -0.00000000000E+00 -0.45593999997E+02  0.45594000000E+02  0.51100000000E-03 0. -1.
    9900012    2    1    2    0    0  0.19484605963E+02  0.13859532565E+02 -0.32885085306E+02  0.50528863904E+02  0.30000012324E+02 0.  0.
        -12    1    1    2    0    0 -0.19484605963E+02 -0.13859532565E+02  0.32885085306E+02  0.40659136096E+02  0.00000000000E+00 0.  1.
         11    1    3    3    0    0 -0.12878112306E+01  0.10416797859E+02 -0.15790501228E+02  0.18960697896E+02  0.51100000000E-03 0. -1.
        -11    1    3    3    0    0  0.50502021234E+01 -0.22178843723E+01  0.22927163592E+01  0.59732822753E+01  0.51100000000E-03 0.  1.
        -12    1    3    3    0    0  0.15722215070E+02  0.56606190777E+01 -0.19387300437E+02  0.25594883733E+02  0.00000000000E+00 0.  1.
</event>
<event>
 7    1  0.4963616E-011  0.5052883E+02  0.7816164E-02  0.1300439E+00
        -11   -1    0    0    0    0  0.00000000000E+00  0.00000000000E+00  0.45593999997E+02  0.45594000000E+02  0.51100000000E-03 0. -1.
         11   -1    0    0    0    0 -0.00000000000E+00 -0.00000000000E+00 -0.45593999997E+02  0.45594000000E+02  0.51100000000E-03 0.  1.
    9900012    2    1    2    0    0  0.30146729717E+02  0.26617033624E+02  0.59896821527E+01  0.50528830261E+02  0.29999910060E+02 0.  0.
        -12    1    1    2    0    0 -0.30146729717E+02 -0.26617033624E+02 -0.59896821527E+01  0.40659169739E+02  0.00000000000E+00 0.  1.
         11    1    3    3    0    0 -0.82267243260E+00  0.66970740267E+01  0.25711313322E+01  0.72206860504E+01  0.51100000000E-03 0. -1.
        -11    1    3    3    0    0  0.24863419962E+02  0.99771436940E+01  0.11458723436E+02  0.29138211879E+02  0.51100000000E-03 0.  1.
        -12    1    3    3    0    0  0.61059821883E+01  0.99428159037E+01 -0.80401726153E+01  0.14169932331E+02  0.00000000000E+00 0.  1.
</event>
<event>
 7    1  0.4963616E-011  0.5052886E+02  0.7816164E-02  0.1300439E+00
        -11   -1    0    0    0    0  0.00000000000E+00  0.00000000000E+00  0.45593999997E+02  0.45594000000E+02  0.51100000000E-03 0. -1.
         11   -1    0    0    0    0 -0.00000000000E+00 -0.00000000000E+00 -0.45593999997E+02  0.45594000000E+02  0.51100000000E-03 0.  1.
    9900012    2    1    2    0    0  0.23731788264E+02 -0.16002147550E+01  0.32975857062E+02  0.50528860678E+02  0.30000002516E+02 0.  0.
        -12    1    1    2    0    0 -0.23731788264E+02  0.16002147550E+01 -0.32975857062E+02  0.40659139322E+02  0.00000000000E+00 0.  1.
         11    1    3    3    0    0  0.87765694276E+01  0.35297435751E+01 -0.53339687317E+00  0.94747967318E+01  0.51100000000E-03 0. -1.
        -11    1    3    3    0    0  0.39996359099E+01  0.31784757145E+01  0.23495113076E+02  0.24044128888E+02  0.51100000000E-03 0.  1.
        -12    1    3    3    0    0  0.10955582926E+02 -0.83084340446E+01  0.10014140859E+02  0.17009935058E+02  0.00000000000E+00 0.  1.
</event>
<event>
 7    1  0.4963616E-011  0.5052886E+02  0.7816164E-02  0.1300439E+00
        -11   -1    0    0    0    0  0.00000000000E+00  0.00000000000E+00  0.45593999997E+02  0.45594000000E+02  0.51100000000E-03 0.  1.
         11   -1    0    0    0    0 -0.00000000000E+00 -0.00000000000E+00 -0.45593999997E+02  0.45594000000E+02  0.51100000000E-03 0. -1.
    9900012    2    1    2    0    0  0.33074663093E+02  0.22088289821E+02 -0.84462895182E+01  0.50528859668E+02  0.29999999446E+02 0.  0.
        -12    1    1    2    0    0 -0.33074663093E+02 -0.22088289821E+02  0.84462895182E+01  0.40659140332E+02  0.00000000000E+00 0.  1.
         11    1    3    3    0    0  0.96168805137E+01  0.18710744071E+02 -0.15975293535E+01  0.21098067087E+02  0.51100000000E-03 0. -1.
        -11    1    3    3    0    0  0.17721695013E+02 -0.38678032733E+01 -0.85193640362E+01  0.20039908686E+02  0.51100000000E-03 0.  1.
        -12    1    3    3    0    0  0.57360875665E+01  0.72453490233E+01  0.16706038715E+01  0.93908838953E+01  0.00000000000E+00 0.  1.
</event>
<event>
 7    1  0.4963616E-011  0.5052885E+02  0.7816164E-02  0.1300439E+00
        -11   -1    0    0    0    0  0.00000000000E+00  0.00000000000E+00  0.45593999997E+02  0.45594000000E+02  0.51100000000E-03 0.  1.
         11   -1    0    0    0    0 -0.00000000000E+00 -0.00000000000E+00 -0.45593999997E+02  0.45594000000E+02  0.51100000000E-03 0. -1.
    9900012    2    1    2    0    0 -0.23165547271E+02 -0.32821971148E+02  0.62643225324E+01  0.50528854569E+02  0.29999983947E+02 0.  0.
        -12    1    1    2    0    0  0.23165547271E+02  0.32821971148E+02 -0.62643225324E+01  0.40659145431E+02  0.00000000000E+00 0.  1.
         11    1    3    3    0    0 -0.96235296003E+01 -0.17498779533E+02  0.91102038490E+01  0.21950294338E+02  0.51100000000E-03 0. -1.
        -11    1    3    3    0    0  0.33908821658E+00 -0.92426883247E+01 -0.83450314468E+01  0.12457199460E+02  0.51100000000E-03 0.  1.
        -12    1    3    3    0    0 -0.13881105888E+02 -0.60805032905E+01  0.54991501302E+01  0.16121360770E+02  0.00000000000E+00 0.  1.
</event>
<event>
 7    1  0.4963616E-011  0.5052886E+02  0.7816164E-02  0.1300439E+00
        -11   -1    0    0    0    0  0.00000000000E+00  0.00000000000E+00  0.45593999997E+02  0.45594000000E+02  0.51100000000E-03 0.  1.
         11   -1    0    0    0    0 -0.00000000000E+00 -0.00000000000E+00 -0.45593999997E+02  0.45594000000E+02  0.51100000000E-03 0. -1.
    9900012    2    1    2    0    0  0.40405993412E+02  0.42026320490E+01  0.16909929040E+01  0.50528857402E+02  0.29999992560E+02 0.  0.
        -12    1    1    2    0    0 -0.40405993412E+02 -0.42026320490E+01 -0.16909929040E+01  0.40659142598E+02  0.00000000000E+00 0.  1.
         11    1    3    3    0    0  0.28405747240E+02  0.11805359356E+02  0.47409964156E+01  0.31124428237E+02  0.51100000000E-03 0. -1.
        -11    1    3    3    0    0  0.14503701615E+02 -0.65523387263E+01 -0.89859981600E+00  0.15940451223E+02  0.51100000000E-03 0.  1.
         12    1    3    3    0    0 -0.25034554423E+01 -0.10503885808E+01 -0.21514036956E+01  0.34639779422E+01  0.00000000000E+00 0. -1.
</event>
<event>
 7    1  0.4963616E-011  0.5052886E+02  0.7816164E-02  0.1300439E+00
        -11   -1    0    0    0    0  0.00000000000E+00  0.00000000000E+00  0.45593999997E+02  0.45594000000E+02  0.51100000000E-03 0. -1.
         11   -1    0    0    0    0 -0.00000000000E+00 -0.00000000000E+00 -0.45593999997E+02  0.45594000000E+02  0.51100000000E-03 0.  1.
    9900012    2    1    2    0    0  0.54902093980E+01 -0.12870303366E+02  0.38175622615E+02  0.50528864864E+02  0.30000015240E+02 0.  0.
        -12    1    1    2    0    0 -0.54902093980E+01  0.12870303366E+02 -0.38175622615E+02  0.40659135136E+02  0.00000000000E+00 0.  1.
         11    1    3    3    0    0  0.32723282083E+01 -0.69474713958E+01  0.82372630429E+01  0.11261793525E+02  0.51100000000E-03 0. -1.
        -11    1    3    3    0    0 -0.96242164251E+01  0.22738189364E+01  0.18094025234E+02  0.20620124728E+02  0.51100000000E-03 0.  1.
        -12    1    3    3    0    0  0.11842097615E+02 -0.81966509068E+01  0.11844334338E+02  0.18646946611E+02  0.00000000000E+00 0.  1.
</event>
<event>
 7    1  0.4963616E-011  0.5052887E+02  0.7816164E-02  0.1300439E+00
        -11   -1    0    0    0    0  0.00000000000E+00  0.00000000000E+00  0.45593999997E+02  0.45594000000E+02  0.51100000000E-03 0.  1.
         11   -1    0    0    0    0 -0.00000000000E+00 -0.00000000000E+00 -0.45593999997E+02  0.45594000000E+02  0.51100000000E-03 0. -1.
    9900012    2    1    2    0    0  0.16332365347E+02  0.36016400333E+02  0.94465739426E+01  0.50528868061E+02  0.30000024959E+02 0.  0.
        -12    1    1    2    0    0 -0.16332365347E+02 -0.36016400333E+02 -0.94465739426E+01  0.40659131939E+02  0.00000000000E+00 0.  1.
         11    1    3    3    0    0  0.18667762872E+02  0.38046634782E+02  0.34044758081E+01  0.42516140990E+02  0.51100000000E-03 0. -1.
        -11    1    3    3    0    0  0.15104799510E+00 -0.90888140561E+00  0.50137567173E+01  0.50977090529E+01  0.51100000000E-03 0.  1.
         12    1    3    3    0    0 -0.24864455205E+01 -0.11213530441E+01  0.10283414172E+01  0.29150180182E+01  0.00000000000E+00 0. -1.
</event>
<event>
 7    1  0.4963616E-011  0.5052886E+02  0.7816164E-02  0.1300439E+00
        -11   -1    0    0    0    0  0.00000000000E+00  0.00000000000E+00  0.45593999997E+02  0.45594000000E+02  0.51100000000E-03 0.  1.
         11   -1    0    0    0    0 -0.00000000000E+00 -0.00000000000E+00 -0.45593999997E+02  0.45594000000E+02  0.51100000000E-03 0. -1.
    9900012    2    1    2    0    0  0.22113131916E+02  0.15378292647E+02 -0.30457893134E+02  0.50528859059E+02  0.29999997596E+02 0.  0.
        -12    1    1    2    0    0 -0.22113131916E+02 -0.15378292647E+02  0.30457893134E+02  0.40659140941E+02  0.00000000000E+00 0.  1.
         11    1    3    3    0    0  0.12771474538E+02  0.64139292542E+01 -0.33911855906E+02  0.36800312793E+02  0.51100000000E-03 0. -1.
        -11    1    3    3    0    0  0.75512510070E+01  0.64257782271E+01  0.37662601594E+01  0.10606447730E+02  0.51100000000E-03 0.  1.
         12    1    3    3    0    0  0.17904063705E+01  0.25385851659E+01 -0.31229738729E+00  0.31220985369E+01  0.00000000000E+00 0. -1.
</event>
<event>
 7    1  0.4963616E-011  0.5052887E+02  0.7816164E-02  0.1300439E+00
        -11   -1    0    0    0    0  0.00000000000E+00  0.00000000000E+00  0.45593999997E+02  0.45594000000E+02  0.51100000000E-03 0.  1.
         11   -1    0    0    0    0 -0.00000000000E+00 -0.00000000000E+00 -0.45593999997E+02  0.45594000000E+02  0.51100000000E-03 0. -1.
    9900012    2    1    2    0    0  0.96512681376E+01  0.39446886445E+02  0.19902947413E+01  0.50528866954E+02  0.30000021593E+02 0.  0.
        -12    1    1    2    0    0 -0.96512681376E+01 -0.39446886445E+02 -0.19902947413E+01  0.40659133046E+02  0.00000000000E+00 0.  1.
         11    1    3    3    0    0  0.19706624387E+02  0.23937331376E+02  0.57446610503E+01  0.31533284145E+02  0.51100000000E-03 0. -1.
        -11    1    3    3    0    0 -0.26711300054E+01  0.28567703635E+01 -0.17596662982E+00  0.39149759810E+01  0.51100000000E-03 0.  1.
         12    1    3    3    0    0 -0.73842262440E+01  0.12652784706E+02 -0.35783996791E+01  0.15080606828E+02  0.00000000000E+00 0. -1.
</event>
<event>
 7    1  0.4963616E-011  0.5052883E+02  0.7816164E-02  0.1300439E+00
        -11   -1    0    0    0    0  0.00000000000E+00  0.00000000000E+00  0.45593999997E+02  0.45594000000E+02  0.51100000000E-03 0. -1.
         11   -1    0    0    0    0 -0.00000000000E+00 -0.00000000000E+00 -0.45593999997E+02  0.45594000000E+02  0.51100000000E-03 0.  1.
    9900012    2    1    2    0    0 -0.75782138496E+00  0.37693288235E+02  0.15225311439E+02  0.50528826624E+02  0.29999899005E+02 0.  0.
        -12    1    1    2    0    0  0.75782138496E+00 -0.37693288235E+02 -0.15225311439E+02  0.40659173376E+02  0.00000000000E+00 0.  1.
         11    1    3    3    0    0  0.77464877309E+01  0.71911260215E-01  0.38180709900E+01  0.86366029051E+01  0.51100000000E-03 0. -1.
        -11    1    3    3    0    0 -0.64097464241E+01  0.22190678645E+02  0.91670463857E+00  0.23116042386E+02  0.51100000000E-03 0.  1.
         12    1    3    3    0    0 -0.20945626918E+01  0.15430698330E+02  0.10490535811E+02  0.18776181332E+02  0.00000000000E+00 0. -1.
</event>
<event>
 7    1  0.4963616E-011  0.5052886E+02  0.7816164E-02  0.1300439E+00
        -11   -1    0    0    0    0  0.00000000000E+00  0.00000000000E+00  0.45593999997E+02  0.45594000000E+02  0.51100000000E-03 0.  1.
         11   -1    0    0    0    0 -0.00000000000E+00 -0.00000000000E+00 -0.45593999997E+02  0.45594000000E+02  0.51100000000E-03 0. -1.
    9900012    2    1    2    0    0  0.35663410338E+02 -0.13425785709E+02 -0.14178681546E+02  0.50528861184E+02  0.30000004055E+02 0.  0.
        -12    1    1    2    0    0 -0.35663410338E+02  0.13425785709E+02  0.14178681546E+02  0.40659138816E+02  0.00000000000E+00 0.  1.
         11    1    3    3    0    0  0.16520997347E+02 -0.41123008279E+01 -0.16837440525E+01  0.17108166639E+02  0.51100000000E-03 0. -1.
        -11    1    3    3    0    0 -0.15705102203E+01  0.11353456123E+01 -0.98872638734E+01  0.10075390770E+02  0.51100000000E-03 0.  1.
        -12    1    3    3    0    0  0.20712923212E+02 -0.10448830493E+02 -0.26076736196E+01  0.23345303775E+02  0.00000000000E+00 0.  1.
</event>
<event>
 7    1  0.4963616E-011  0.5052886E+02  0.7816164E-02  0.1300439E+00
        -11   -1    0    0    0    0  0.00000000000E+00  0.00000000000E+00  0.45593999997E+02  0.45594000000E+02  0.51100000000E-03 0.  1.
         11   -1    0    0    0    0 -0.00000000000E+00 -0.00000000000E+00 -0.45593999997E+02  0.45594000000E+02  0.51100000000E-03 0. -1.
    9900012    2    1    2    0    0 -0.93912022703E+01  0.12256981523E+02 -0.37612997376E+02  0.50528857759E+02  0.29999993645E+02 0.  0.
        -12    1    1    2    0    0  0.93912022703E+01 -0.12256981523E+02  0.37612997376E+02  0.40659142241E+02  0.00000000000E+00 0.  1.
         11    1    3    3    0    0  0.68309592430E+00 -0.44048441747E+01 -0.14604504875E+02  0.15269604944E+02  0.51100000000E-03 0. -1.
        -11    1    3    3    0    0 -0.44443378772E+01  0.19528930469E+02 -0.14811972582E+02  0.24910355206E+02  0.51100000000E-03 0.  1.
        -12    1    3    3    0    0 -0.56299603174E+01 -0.28671047714E+01 -0.81965199192E+01  0.10348897609E+02  0.00000000000E+00 0.  1.
</event>
<event>
 7    1  0.4963616E-011  0.5052887E+02  0.7816164E-02  0.1300439E+00
        -11   -1    0    0    0    0  0.00000000000E+00  0.00000000000E+00  0.45593999997E+02  0.45594000000E+02  0.51100000000E-03 0.  1.
         11   -1    0    0    0    0 -0.00000000000E+00 -0.00000000000E+00 -0.45593999997E+02  0.45594000000E+02  0.51100000000E-03 0. -1.
    9900012    2    1    2    0    0  0.32013129073E+02 -0.78898735219E+01 -0.23792324743E+02  0.50528865062E+02  0.30000015842E+02 0.  0.
        -12    1    1    2    0    0 -0.32013129073E+02  0.78898735219E+01  0.23792324743E+02  0.40659134938E+02  0.00000000000E+00 0.  1.
         11    1    3    3    0    0  0.22890906633E+02 -0.10532265785E+02 -0.50823496670E+01  0.25705106642E+02  0.51100000000E-03 0. -1.
        -11    1    3    3    0    0  0.14673734167E+00 -0.44572961680E+01 -0.79515000769E+01  0.91167633901E+01  0.51100000000E-03 0.  1.
         12    1    3    3    0    0  0.89754850985E+01  0.70996884314E+01 -0.10758474999E+02  0.15706995030E+02  0.00000000000E+00 0. -1.
</event>
<event>
 7    1  0.4963616E-011  0.5052885E+02  0.7816164E-02  0.1300439E+00
        -11   -1    0    0    0    0  0.00000000000E+00  0.00000000000E+00  0.45593999997E+02  0.45594000000E+02  0.51100000000E-03 0.  1.
         11   -1    0    0    0    0 -0.00000000000E+00 -0.00000000000E+00 -0.45593999997E+02  0.45594000000E+02  0.51100000000E-03 0. -1.
    9900012    2    1    2    0    0  0.37744930162E+02 -0.53282633564E+01 -0.14145539685E+02  0.50528850522E+02  0.29999971646E+02 0.  0.
        -12    1    1    2    0    0 -0.37744930162E+02  0.53282633564E+01  0.14145539685E+02  0.40659149478E+02  0.00000000000E+00 0.  1.
         11    1    3    3    0    0  0.72355696333E+01  0.80094446984E+00 -0.10879799447E+02  0.13090646135E+02  0.51100000000E-03 0. -1.
        -11    1    3    3    0    0  0.20193597096E+02 -0.56173542945E+01  0.77411995035E+01  0.22344176041E+02  0.51100000000E-03 0.  1.
        -12    1    3    3    0    0  0.10315763433E+02 -0.51185353172E+00 -0.11006939742E+02  0.15094028346E+02  0.00000000000E+00 0.  1.
</event>
<event>
 7    1  0.4963616E-011  0.5052883E+02  0.7816164E-02  0.1300439E+00
        -11   -1    0    0    0    0  0.00000000000E+00  0.00000000000E+00  0.45593999997E+02  0.45594000000E+02  0.51100000000E-03 0.  1.
         11   -1    0    0    0    0 -0.00000000000E+00 -0.00000000000E+00 -0.45593999997E+02  0.45594000000E+02  0.51100000000E-03 0. -1.
    9900012    2    1    2    0    0  0.73962438340E+01 -0.39872120557E+02 -0.29457986792E+01  0.50528829443E+02  0.29999907574E+02 0.  0.
        -12    1    1    2    0    0 -0.73962438340E+01  0.39872120557E+02  0.29457986792E+01  0.40659170557E+02  0.00000000000E+00 0.  1.
         11    1    3    3    0    0 -0.12886552759E+01 -0.36292780886E+02  0.16607640642E+01  0.36353606621E+02  0.51100000000E-03 0. -1.
        -11    1    3    3    0    0 -0.20124091254E+01  0.28090614160E+00 -0.62482251794E+00  0.21258180046E+01  0.51100000000E-03 0.  1.
         12    1    3    3    0    0  0.10697308235E+02 -0.38602458129E+01 -0.39817402254E+01  0.12049404817E+02  0.00000000000E+00 0. -1.
</event>
<event>
 7    1  0.4963616E-011  0.5052886E+02  0.7816164E-02  0.1300439E+00
        -11   -1    0    0    0    0  0.00000000000E+00  0.00000000000E+00  0.45593999997E+02  0.45594000000E+02  0.51100000000E-03 0.  1.
         11   -1    0    0    0    0 -0.00000000000E+00 -0.00000000000E+00 -0.45593999997E+02  0.45594000000E+02  0.51100000000E-03 0. -1.
    9900012    2    1    2    0    0  0.14054271984E+02  0.33853569944E+02 -0.17594858176E+02  0.50528858430E+02  0.29999995685E+02 0.  0.
        -12    1    1    2    0    0 -0.14054271984E+02 -0.33853569944E+02  0.17594858176E+02  0.40659141570E+02  0.00000000000E+00 0.  1.
         11    1    3    3    0    0 -0.15818648170E+01  0.24649746066E+02 -0.38747731129E+01  0.25002522760E+02  0.51100000000E-03 0. -1.
        -11    1    3    3    0    0  0.11794238826E+02  0.42441583630E+00 -0.61141609752E+01  0.13291620028E+02  0.51100000000E-03 0.  1.
        -12    1    3    3    0    0  0.38418979754E+01  0.87794080414E+01 -0.76059240876E+01  0.12234715642E+02  0.00000000000E+00 0.  1.
</event>
<event>
 7    1  0.4963616E-011  0.5052886E+02  0.7816164E-02  0.1300439E+00
        -11   -1    0    0    0    0  0.00000000000E+00  0.00000000000E+00  0.45593999997E+02  0.45594000000E+02  0.51100000000E-03 0.  1.
         11   -1    0    0    0    0 -0.00000000000E+00 -0.00000000000E+00 -0.45593999997E+02  0.45594000000E+02  0.51100000000E-03 0. -1.
    9900012    2    1    2    0    0  0.40078774933E+02  0.65414273690E+01  0.20167842661E+01  0.50528857229E+02  0.29999992032E+02 0.  0.
        -12    1    1    2    0    0 -0.40078774933E+02 -0.65414273690E+01 -0.20167842661E+01  0.40659142771E+02  0.00000000000E+00 0.  1.
         11    1    3    3    0    0  0.17580030840E+01  0.83841101489E+00  0.81227184561E+01  0.83529673321E+01  0.51100000000E-03 0.  1.
        -11    1    3    3    0    0  0.13167851286E+02  0.89251689156E+01 -0.54287060738E+01  0.16808384740E+02  0.51100000000E-03 0. -1.
        -12    1    3    3    0    0  0.25152920563E+02 -0.32221525615E+01 -0.67722811625E+00  0.25367505157E+02  0.00000000000E+00 0.  1.
</event>
<event>
 7    1  0.4963616E-011  0.5052887E+02  0.7816164E-02  0.1300439E+00
        -11   -1    0    0    0    0  0.00000000000E+00  0.00000000000E+00  0.45593999997E+02  0.45594000000E+02  0.51100000000E-03 0.  1.
         11   -1    0    0    0    0 -0.00000000000E+00 -0.00000000000E+00 -0.45593999997E+02  0.45594000000E+02  0.51100000000E-03 0. -1.
    9900012    2    1    2    0    0  0.73223624868E+01 -0.36834341647E+02  0.15581376576E+02  0.50528868025E+02  0.30000024849E+02 0.  0.
        -12    1    1    2    0    0 -0.73223624868E+01  0.36834341647E+02 -0.15581376576E+02  0.40659131975E+02  0.00000000000E+00 0.  1.
         11    1    3    3    0    0  0.52893681655E+01 -0.29875922654E+02  0.11410161434E+02  0.32415119223E+02  0.51100000000E-03 0. -1.
        -11    1    3    3    0    0 -0.43377222953E+01  0.27180305007E+01  0.40507585913E+01  0.65277997779E+01  0.51100000000E-03 0.  1.
        -12    1    3    3    0    0  0.63707166166E+01 -0.96764494935E+01  0.12045655087E+00  0.11585949024E+02  0.00000000000E+00 0.  1.
</event>
<event>
 7    1  0.4963616E-011  0.5052886E+02  0.7816164E-02  0.1300439E+00
        -11   -1    0    0    0    0  0.00000000000E+00  0.00000000000E+00  0.45593999997E+02  0.45594000000E+02  0.51100000000E-03 0.  1.
         11   -1    0    0    0    0 -0.00000000000E+00 -0.00000000000E+00 -0.45593999997E+02  0.45594000000E+02  0.51100000000E-03 0. -1.
    9900012    2    1    2    0    0 -0.33238993133E+02  0.16311462218E+02 -0.16800920190E+02  0.50528863470E+02  0.30000011003E+02 0.  0.
        -12    1    1    2    0    0  0.33238993133E+02 -0.16311462218E+02  0.16800920190E+02  0.40659136530E+02  0.00000000000E+00 0.  1.
         11    1    3    3    0    0 -0.94328153020E+01  0.15128048233E+01 -0.19019888137E+02  0.21284330573E+02  0.51100000000E-03 0. -1.
        -11    1    3    3    0    0 -0.24097955244E+02  0.14200768485E+02  0.30981632504E+01  0.28141995101E+02  0.51100000000E-03 0.  1.
        -12    1    3    3    0    0  0.29177741340E+00  0.59788890969E+00 -0.87919530408E+00  0.11025377953E+01  0.00000000000E+00 0.  1.
</event>
<event>
 7    1  0.4963616E-011  0.5052886E+02  0.7816164E-02  0.1300439E+00
        -11   -1    0    0    0    0  0.00000000000E+00  0.00000000000E+00  0.45593999997E+02  0.45594000000E+02  0.51100000000E-03 0. -1.
         11   -1    0    0    0    0 -0.00000000000E+00 -0.00000000000E+00 -0.45593999997E+02  0.45594000000E+02  0.51100000000E-03 0.  1.
    9900012    2    1    2    0    0 -0.67529965276E+01  0.38688146966E+02  0.10525670111E+02  0.50528863154E+02  0.30000010044E+02 0.  0.
        -12    1    1    2    0    0  0.67529965276E+01 -0.38688146966E+02 -0.10525670111E+02  0.40659136846E+02  0.00000000000E+00 0.  1.
         11    1    3    3    0    0 -0.55136929333E+01  0.18677467462E+02  0.15641264007E+02  0.24977945082E+02  0.51100000000E-03 0. -1.
        -11    1    3    3    0    0  0.40180667846E+01  0.13253368952E+01 -0.44330114737E+01  0.61280477771E+01  0.51100000000E-03 0.  1.
         12    1    3    3    0    0 -0.52573703788E+01  0.18685342609E+02 -0.68258242233E+00  0.19422870295E+02  0.00000000000E+00 0. -1.
</event>
<event>
 7    1  0.4963616E-011  0.5052887E+02  0.7816164E-02  0.1300439E+00
        -11   -1    0    0    0    0  0.00000000000E+00  0.00000000000E+00  0.45593999997E+02  0.45594000000E+02  0.51100000000E-03 0.  1.
         11   -1    0    0    0    0 -0.00000000000E+00 -0.00000000000E+00 -0.45593999997E+02  0.45594000000E+02  0.51100000000E-03 0. -1.
    9900012    2    1    2    0    0  0.57309301951E+01 -0.24143641468E+02 -0.32208790391E+02  0.50528866184E+02  0.30000019252E+02 0.  0.
        -12    1    1    2    0    0 -0.57309301951E+01  0.24143641468E+02  0.32208790391E+02  0.40659133816E+02  0.00000000000E+00 0.  1.
         11    1    3    3    0    0  0.93496191463E+01  0.10680900171E+01 -0.15841284988E+02  0.18425593743E+02  0.51100000000E-03 0. -1.
        -11    1    3    3    0    0 -0.63451523020E+01 -0.10357828115E+02 -0.99184401002E+01  0.15681868998E+02  0.51100000000E-03 0.  1.
         12    1    3    3    0    0  0.27264633507E+01 -0.14853903371E+02 -0.64490653030E+01  0.16421403443E+02  0.00000000000E+00 0. -1.
</event>
<event>
 7    1  0.4963616E-011  0.5052886E+02  0.7816164E-02  0.1300439E+00
        -11   -1    0    0    0    0  0.00000000000E+00  0.00000000000E+00  0.45593999997E+02  0.45594000000E+02  0.51100000000E-03 0.  1.
         11   -1    0    0    0    0 -0.00000000000E+00 -0.00000000000E+00 -0.45593999997E+02  0.45594000000E+02  0.51100000000E-03 0. -1.
    9900012    2    1    2    0    0 -0.21404599515E+01  0.16261726949E+02 -0.37204037489E+02  0.50528859113E+02  0.29999997761E+02 0.  0.
        -12    1    1    2    0    0  0.21404599515E+01 -0.16261726949E+02  0.37204037489E+02  0.40659140887E+02  0.00000000000E+00 0.  1.
         11    1    3    3    0    0 -0.61285137184E+01  0.13603676013E+02 -0.31867266773E+02  0.35187233101E+02  0.51100000000E-03 0. -1.
        -11    1    3    3    0    0  0.81533856315E+01  0.12035536830E+00 -0.63802920333E+01  0.10353758224E+02  0.51100000000E-03 0.  1.
        -12    1    3    3    0    0 -0.41653318646E+01  0.25376955672E+01  0.10435213170E+01  0.49878677883E+01  0.00000000000E+00 0.  1.
</event>
<event>
 7    1  0.4963616E-011  0.5052885E+02  0.7816164E-02  0.1300439E+00
        -11   -1    0    0    0    0  0.00000000000E+00  0.00000000000E+00  0.45593999997E+02  0.45594000000E+02  0.51100000000E-03 0.  1.
         11   -1    0    0    0    0 -0.00000000000E+00 -0.00000000000E+00 -0.45593999997E+02  0.45594000000E+02  0.51100000000E-03 0. -1.
    9900012    2    1    2    0    0 -0.20937715783E+02  0.61662513536E+01 -0.34303880078E+02  0.50528846217E+02  0.29999958560E+02 0.  0.
        -12    1    1    2    0    0  0.20937715783E+02 -0.61662513536E+01  0.34303880078E+02  0.40659153783E+02  0.00000000000E+00 0.  1.
         11    1    3    3    0    0 -0.30656486476E+01  0.40851324600E+01 -0.44683324293E+01  0.67861995112E+01  0.51100000000E-03 0. -1.
        -11    1    3    3    0    0 -0.13347460191E+02 -0.81102328873E+01 -0.48049278968E+01  0.16340682464E+02  0.51100000000E-03 0.  1.
        -12    1    3    3    0    0 -0.45246069451E+01  0.10191351781E+02 -0.25030619752E+02  0.27401964241E+02  0.00000000000E+00 0.  1.
</event>
<event>
 7    1  0.4963616E-011  0.5052887E+02  0.7816164E-02  0.1300439E+00
        -11   -1    0    0    0    0  0.00000000000E+00  0.00000000000E+00  0.45593999997E+02  0.45594000000E+02  0.51100000000E-03 0. -1.
         11   -1    0    0    0    0 -0.00000000000E+00 -0.00000000000E+00 -0.45593999997E+02  0.45594000000E+02  0.51100000000E-03 0.  1.
    9900012    2    1    2    0    0  0.53529045372E+01 -0.38938203641E+02  0.10408036362E+02  0.50528874202E+02  0.30000043623E+02 0.  0.
        -12    1    1    2    0    0 -0.53529045372E+01  0.38938203641E+02 -0.10408036362E+02  0.40659125798E+02  0.00000000000E+00 0.  1.
         11    1    3    3    0    0 -0.44886183587E+01 -0.18766185058E+02  0.98343476914E+01  0.21657141805E+02  0.51100000000E-03 0. -1.
        -11    1    3    3    0    0  0.75077209249E+01 -0.18158206499E+00  0.39164818810E+01  0.84698096861E+01  0.51100000000E-03 0.  1.
         12    1    3    3    0    0  0.23338019709E+01 -0.19990436518E+02 -0.33427932102E+01  0.20401922711E+02  0.00000000000E+00 0. -1.
</event>
<event>
 7    1  0.4963616E-011  0.5052888E+02  0.7816164E-02  0.1300439E+00
        -11   -1    0    0    0    0  0.00000000000E+00  0.00000000000E+00  0.45593999997E+02  0.45594000000E+02  0.51100000000E-03 0.  1.
         11   -1    0    0    0    0 -0.00000000000E+00 -0.00000000000E+00 -0.45593999997E+02  0.45594000000E+02  0.51100000000E-03 0. -1.
    9900012    2    1    2    0    0 -0.27732840484E+02  0.12477171369E+02 -0.26988399066E+02  0.50528881332E+02  0.30000065297E+02 0.  0.
        -12    1    1    2    0    0  0.27732840484E+02 -0.12477171369E+02  0.26988399066E+02  0.40659118668E+02  0.00000000000E+00 0.  1.
         11    1    3    3    0    0 -0.70646638601E+01  0.11540289106E+02 -0.21592951896E+02  0.25482215758E+02  0.51100000000E-03 0. -1.
        -11    1    3    3    0    0 -0.15174136161E+02 -0.52937157611E+01 -0.25874102093E+01  0.16277976737E+02  0.51100000000E-03 0.  1.
        -12    1    3    3    0    0 -0.54940404634E+01  0.62305980240E+01 -0.28080369603E+01  0.87686888370E+01  0.00000000000E+00 0.  1.
</event>
<event>
 7    1  0.4963616E-011  0.5052886E+02  0.7816164E-02  0.1300439E+00
        -11   -1    0    0    0    0  0.00000000000E+00  0.00000000000E+00  0.45593999997E+02  0.45594000000E+02  0.51100000000E-03 0. -1.
         11   -1    0    0    0    0 -0.00000000000E+00 -0.00000000000E+00 -0.45593999997E+02  0.45594000000E+02  0.51100000000E-03 0.  1.
    9900012    2    1    2    0    0 -0.64827474543E+01 -0.95524847940E+01  0.38985765045E+02  0.50528857652E+02  0.29999993320E+02 0.  0.
        -12    1    1    2    0    0  0.64827474543E+01  0.95524847940E+01 -0.38985765045E+02  0.40659142348E+02  0.00000000000E+00 0.  1.
         11    1    3    3    0    0 -0.14980139881E+02 -0.31289697473E+01  0.31446094082E+02  0.34972158581E+02  0.51100000000E-03 0. -1.
        -11    1    3    3    0    0  0.85480696878E+01 -0.81894775798E+01  0.64520026308E+01  0.13482039038E+02  0.51100000000E-03 0.  1.
         12    1    3    3    0    0 -0.50677261528E-01  0.17659625331E+01  0.10876683326E+01  0.20746600336E+01  0.00000000000E+00 0. -1.
</event>
<event>
 7    1  0.4963616E-011  0.5052886E+02  0.7816164E-02  0.1300439E+00
        -11   -1    0    0    0    0  0.00000000000E+00  0.00000000000E+00  0.45593999997E+02  0.45594000000E+02  0.51100000000E-03 0.  1.
         11   -1    0    0    0    0 -0.00000000000E+00 -0.00000000000E+00 -0.45593999997E+02  0.45594000000E+02  0.51100000000E-03 0. -1.
    9900012    2    1    2    0    0 -0.78608414417E+01 -0.33134071250E+02 -0.22215006017E+02  0.50528855910E+02  0.29999988025E+02 0.  0.
        -12    1    1    2    0    0  0.78608414417E+01  0.33134071250E+02  0.22215006017E+02  0.40659144090E+02  0.00000000000E+00 0.  1.
         11    1    3    3    0    0  0.40659930500E+01 -0.67636722551E+01 -0.15407231488E+02  0.17310758049E+02  0.51100000000E-03 0.  1.
        -11    1    3    3    0    0 -0.11273414958E+02 -0.25609125436E+02 -0.10122117916E+02  0.29755242593E+02  0.51100000000E-03 0. -1.
         12    1    3    3    0    0 -0.65341953341E+00 -0.76127355921E+00  0.33143433871E+01  0.34628552679E+01  0.00000000000E+00 0. -1.
</event>
<event>
 7    1  0.4963616E-011  0.5052875E+02  0.7816164E-02  0.1300439E+00
        -11   -1    0    0    0    0  0.00000000000E+00  0.00000000000E+00  0.45593999997E+02  0.45594000000E+02  0.51100000000E-03 0.  1.
         11   -1    0    0    0    0 -0.00000000000E+00 -0.00000000000E+00 -0.45593999997E+02  0.45594000000E+02  0.51100000000E-03 0. -1.
    9900012    2    1    2    0    0 -0.27016848796E+02  0.29484885390E+02 -0.73420674365E+01  0.50528750873E+02  0.29999668751E+02 0.  0.
        -12    1    1    2    0    0  0.27016848796E+02 -0.29484885390E+02  0.73420674365E+01  0.40659249127E+02  0.00000000000E+00 0.  1.
         11    1    3    3    0    0 -0.78431129151E+01  0.10207319137E+02 -0.24026543471E+01  0.13094904824E+02  0.51100000000E-03 0. -1.
        -11    1    3    3    0    0 -0.15943441374E+01 -0.53202859098E+01  0.28073701716E+01  0.62232389422E+01  0.51100000000E-03 0.  1.
        -12    1    3    3    0    0 -0.17579391743E+02  0.24597852163E+02 -0.77467832610E+01  0.31210607107E+02  0.00000000000E+00 0.  1.
</event>
<event>
 7    1  0.4963616E-011  0.5052886E+02  0.7816164E-02  0.1300439E+00
        -11   -1    0    0    0    0  0.00000000000E+00  0.00000000000E+00  0.45593999997E+02  0.45594000000E+02  0.51100000000E-03 0. -1.
         11   -1    0    0    0    0 -0.00000000000E+00 -0.00000000000E+00 -0.45593999997E+02  0.45594000000E+02  0.51100000000E-03 0.  1.
    9900012    2    1    2    0    0 -0.37569306366E+02  0.10734353758E+02 -0.11246625992E+02  0.50528859237E+02  0.29999998135E+02 0.  0.
        -12    1    1    2    0    0  0.37569306366E+02 -0.10734353758E+02  0.11246625992E+02  0.40659140763E+02  0.00000000000E+00 0.  1.
         11    1    3    3    0    0 -0.27490101014E+02 -0.13903609153E+01 -0.69281953194E+01  0.28383774377E+02  0.51100000000E-03 0. -1.
        -11    1    3    3    0    0 -0.75966922892E+01  0.15082353693E+02 -0.77660747242E+00  0.16905331883E+02  0.51100000000E-03 0.  1.
        -12    1    3    3    0    0 -0.24825130630E+01 -0.29576390193E+01 -0.35418232000E+01  0.52397529767E+01  0.00000000000E+00 0.  1.
</event>
<event>
 7    1  0.4963616E-011  0.5052887E+02  0.7816164E-02  0.1300439E+00
        -11   -1    0    0    0    0  0.00000000000E+00  0.00000000000E+00  0.45593999997E+02  0.45594000000E+02  0.51100000000E-03 0.  1.
         11   -1    0    0    0    0 -0.00000000000E+00 -0.00000000000E+00 -0.45593999997E+02  0.45594000000E+02  0.51100000000E-03 0. -1.
    9900012    2    1    2    0    0  0.24774595675E+02  0.19493318917E+02 -0.25678690507E+02  0.50528865486E+02  0.30000017130E+02 0.  0.
        -12    1    1    2    0    0 -0.24774595675E+02 -0.19493318917E+02  0.25678690507E+02  0.40659134514E+02  0.00000000000E+00 0.  1.
         11    1    3    3    0    0  0.65174477771E+01 -0.77433994683E+00 -0.15442713656E+02  0.16779574881E+02  0.51100000000E-03 0. -1.
        -11    1    3    3    0    0  0.11775617979E+02  0.21290258181E+02 -0.11744872407E+02  0.27016333954E+02  0.51100000000E-03 0.  1.
        -12    1    3    3    0    0  0.64815299193E+01 -0.10225993169E+01  0.15088955554E+01  0.67329566503E+01  0.00000000000E+00 0.  1.
</event>
<event>
 7    1  0.4963616E-011  0.5052886E+02  0.7816164E-02  0.1300439E+00
        -11   -1    0    0    0    0  0.00000000000E+00  0.00000000000E+00  0.45593999997E+02  0.45594000000E+02  0.51100000000E-03 0.  1.
         11   -1    0    0    0    0 -0.00000000000E+00 -0.00000000000E+00 -0.45593999997E+02  0.45594000000E+02  0.51100000000E-03 0. -1.
    9900012    2    1    2    0    0  0.37124889969E+02  0.52435311626E-01  0.16580275235E+02  0.50528859189E+02  0.29999997989E+02 0.  0.
        -12    1    1    2    0    0 -0.37124889969E+02 -0.52435311626E-01 -0.16580275235E+02  0.40659140811E+02  0.00000000000E+00 0.  1.
         11    1    3    3    0    0 -0.28240852083E+01  0.29861668560E+01 -0.15360890445E+01  0.43877351298E+01  0.51100000000E-03 0. -1.
        -11    1    3    3    0    0  0.38607424064E+02 -0.58569943751E+01  0.17782268568E+02  0.42907419540E+02  0.51100000000E-03 0.  1.
        -12    1    3    3    0    0  0.13415511133E+01  0.29232628307E+01  0.33409571221E+00  0.32337045183E+01  0.00000000000E+00 0.  1.
</event>
<event>
 7    1  0.4963616E-011  0.5052886E+02  0.7816164E-02  0.1300439E+00
        -11   -1    0    0    0    0  0.00000000000E+00  0.00000000000E+00  0.45593999997E+02  0.45594000000E+02  0.51100000000E-03 0. -1.
         11   -1    0    0    0    0 -0.00000000000E+00 -0.00000000000E+00 -0.45593999997E+02  0.45594000000E+02  0.51100000000E-03 0.  1.
    9900012    2    1    2    0    0 -0.33682561475E+02 -0.21698541150E+02  0.69154934473E+01  0.50528859759E+02  0.29999999723E+02 0.  0.
        -12    1    1    2    0    0  0.33682561475E+02  0.21698541150E+02 -0.69154934473E+01  0.40659140241E+02  0.00000000000E+00 0.  1.
         11    1    3    3    0    0 -0.11845132258E+02 -0.19675651887E+02  0.12428671271E+02  0.26113412363E+02  0.51100000000E-03 0. -1.
        -11    1    3    3    0    0 -0.32175729446E+01  0.25293823187E+01 -0.30186564993E+01  0.50855518766E+01  0.51100000000E-03 0.  1.
         12    1    3    3    0    0 -0.18619856272E+02 -0.45522715817E+01 -0.24945213248E+01  0.19329895520E+02  0.00000000000E+00 0. -1.
</event>
<event>
 7    1  0.4963616E-011  0.5052885E+02  0.7816164E-02  0.1300439E+00
        -11   -1    0    0    0    0  0.00000000000E+00  0.00000000000E+00  0.45593999997E+02  0.45594000000E+02  0.51100000000E-03 0.  1.
         11   -1    0    0    0    0 -0.00000000000E+00 -0.00000000000E+00 -0.45593999997E+02  0.45594000000E+02  0.51100000000E-03 0. -1.
    9900012    2    1    2    0    0 -0.88366996250E+01 -0.63112564421E+01 -0.39182228380E+02  0.50528852949E+02  0.29999979023E+02 0.  0.
        -12    1    1    2    0    0  0.88366996250E+01  0.63112564421E+01  0.39182228380E+02  0.40659147051E+02  0.00000000000E+00 0.  1.
         11    1    3    3    0    0 -0.14638765951E+02  0.29534267427E+00 -0.10603166944E+02  0.18077827452E+02  0.51100000000E-03 0. -1.
        -11    1    3    3    0    0 -0.29867855769E+01 -0.57425643657E+01 -0.13615351520E+02  0.15075666846E+02  0.51100000000E-03 0.  1.
         12    1    3    3    0    0  0.87888519030E+01 -0.86403475076E+00 -0.14963709915E+02  0.17375358651E+02  0.00000000000E+00 0. -1.
</event>
<event>
 7    1  0.5959233E-011  0.5052883E+02  0.7816164E-02  0.1300439E+00
        -11   -1    0    0    0    0  0.00000000000E+00  0.00000000000E+00  0.45593999997E+02  0.45594000000E+02  0.51100000000E-03 0. -1.
         11   -1    0    0    0    0 -0.00000000000E+00 -0.00000000000E+00 -0.45593999997E+02  0.45594000000E+02  0.51100000000E-03 0.  1.
    9900012    2    1    2    0    0 -0.57357712791E+01 -0.27946829354E+02  0.28969700702E+02  0.50528832499E+02  0.29999916864E+02 0.  0.
        -12    1    1    2    0    0  0.57357712791E+01  0.27946829354E+02 -0.28969700702E+02  0.40659167501E+02  0.00000000000E+00 0.  1.
         11    1    3    3    0    0  0.47690129147E+01 -0.91465026472E+01  0.18179717249E+02  0.20902251419E+02  0.51100000000E-03 0. -1.
        -11    1    3    3    0    0 -0.99106180419E+01 -0.21921081705E+02  0.10979016516E+02  0.26444148257E+02  0.51100000000E-03 0.  1.
        -12    1    3    3    0    0 -0.59416615192E+00  0.31207549983E+01 -0.18903306350E+00  0.31824328232E+01  0.00000000000E+00 0.  1.
</event>
<event>
 7    1  0.4963616E-011  0.5052886E+02  0.7816164E-02  0.1300439E+00
        -11   -1    0    0    0    0  0.00000000000E+00  0.00000000000E+00  0.45593999997E+02  0.45594000000E+02  0.51100000000E-03 0. -1.
         11   -1    0    0    0    0 -0.00000000000E+00 -0.00000000000E+00 -0.45593999997E+02  0.45594000000E+02  0.51100000000E-03 0.  1.
    9900012    2    1    2    0    0 -0.10725753255E+02 -0.27464217948E+02  0.27997148407E+02  0.50528863643E+02  0.30000011529E+02 0.  0.
        -12    1    1    2    0    0  0.10725753255E+02  0.27464217948E+02 -0.27997148407E+02  0.40659136357E+02  0.00000000000E+00 0.  1.
         11    1    3    3    0    0 -0.13130160706E+02 -0.17655627196E+01  0.10898960999E+02  0.17155339781E+02  0.51100000000E-03 0. -1.
        -11    1    3    3    0    0  0.56547641753E+00 -0.26528571127E+02  0.15082353213E+02  0.30521504358E+02  0.51100000000E-03 0.  1.
        -12    1    3    3    0    0  0.18389310335E+01  0.82991589847E+00  0.20158341954E+01  0.28520195034E+01  0.00000000000E+00 0.  1.
</event>
<event>
 7    1  0.4963616E-011  0.5052886E+02  0.7816164E-02  0.1300439E+00
        -11   -1    0    0    0    0  0.00000000000E+00  0.00000000000E+00  0.45593999997E+02  0.45594000000E+02  0.51100000000E-03 0.  1.
         11   -1    0    0    0    0 -0.00000000000E+00 -0.00000000000E+00 -0.45593999997E+02  0.45594000000E+02  0.51100000000E-03 0. -1.
    9900012    2    1    2    0    0 -0.14312018429E+02  0.15444588654E+02 -0.34782129112E+02  0.50528859628E+02  0.29999999325E+02 0.  0.
        -12    1    1    2    0    0  0.14312018429E+02 -0.15444588654E+02  0.34782129112E+02  0.40659140372E+02  0.00000000000E+00 0.  1.
         11    1    3    3    0    0 -0.17049621089E+02  0.13295662211E+02 -0.26271990714E+02  0.34024722030E+02  0.51100000000E-03 0. -1.
        -11    1    3    3    0    0  0.21225017935E+01  0.58732477129E+01 -0.10515222542E+02  0.12229879718E+02  0.51100000000E-03 0.  1.
         12    1    3    3    0    0  0.61510086615E+00 -0.37243212698E+01  0.20050841436E+01  0.42742578793E+01  0.00000000000E+00 0. -1.
</event>
<event>
 7    1  0.4963616E-011  0.5052886E+02  0.7816164E-02  0.1300439E+00
        -11   -1    0    0    0    0  0.00000000000E+00  0.00000000000E+00  0.45593999997E+02  0.45594000000E+02  0.51100000000E-03 0. -1.
         11   -1    0    0    0    0 -0.00000000000E+00 -0.00000000000E+00 -0.45593999997E+02  0.45594000000E+02  0.51100000000E-03 0.  1.
    9900012    2    1    2    0    0 -0.12956059381E+02  0.16901593299E+02  0.34635852042E+02  0.50528861084E+02  0.30000003750E+02 0.  0.
        -12    1    1    2    0    0  0.12956059381E+02 -0.16901593299E+02 -0.34635852042E+02  0.40659138916E+02  0.00000000000E+00 0.  1.
         11    1    3    3    0    0  0.22738272718E+01  0.23556364120E+01  0.11498313271E+02  0.11955355357E+02  0.51100000000E-03 0. -1.
        -11    1    3    3    0    0 -0.75358002736E+01  0.15216450114E+02  0.33167081220E+01  0.17301132705E+02  0.51100000000E-03 0.  1.
        -12    1    3    3    0    0 -0.76940863790E+01 -0.67049322722E+00  0.19820830649E+02  0.21272373022E+02  0.00000000000E+00 0.  1.
</event>
<event>
 7    1  0.4963616E-011  0.5052886E+02  0.7816164E-02  0.1300439E+00
        -11   -1    0    0    0    0  0.00000000000E+00  0.00000000000E+00  0.45593999997E+02  0.45594000000E+02  0.51100000000E-03 0. -1.
         11   -1    0    0    0    0 -0.00000000000E+00 -0.00000000000E+00 -0.45593999997E+02  0.45594000000E+02  0.51100000000E-03 0.  1.
    9900012    2    1    2    0    0  0.66500384852E+01  0.25046969533E+02  0.31330367694E+02  0.50528860382E+02  0.30000001617E+02 0.  0.
        -12    1    1    2    0    0 -0.66500384852E+01 -0.25046969533E+02 -0.31330367694E+02  0.40659139618E+02  0.00000000000E+00 0.  1.
         11    1    3    3    0    0 -0.45638052688E+01  0.27388439752E+02  0.19699221226E+02  0.34044298608E+02  0.51100000000E-03 0. -1.
        -11    1    3    3    0    0  0.57943198596E+01 -0.56010304518E-01  0.55266788709E+01  0.80075876138E+01  0.51100000000E-03 0.  1.
         12    1    3    3    0    0  0.54195238944E+01 -0.22854599139E+01  0.61044675972E+01  0.84769741597E+01  0.00000000000E+00 0. -1.
</event>
<event>
 7    1  0.4963616E-011  0.5052888E+02  0.7816164E-02  0.1300439E+00
        -11   -1    0    0    0    0  0.00000000000E+00  0.00000000000E+00  0.45593999997E+02  0.45594000000E+02  0.51100000000E-03 0.  1.
         11   -1    0    0    0    0 -0.00000000000E+00 -0.00000000000E+00 -0.45593999997E+02  0.45594000000E+02  0.51100000000E-03 0. -1.
    9900012    2    1    2    0    0  0.29410617631E+02 -0.21941970432E+02  0.17513706960E+02  0.50528875227E+02  0.30000046740E+02 0.  0.
        -12    1    1    2    0    0 -0.29410617631E+02  0.21941970432E+02 -0.17513706960E+02  0.40659124773E+02  0.00000000000E+00 0.  1.
         11    1    3    3    0    0  0.23680780965E+02 -0.21846146278E+02  0.16960597528E+02  0.36410099740E+02  0.51100000000E-03 0. -1.
        -11    1    3    3    0    0  0.85966550385E+01  0.29922631062E+01  0.25541816063E+01  0.94540975395E+01  0.51100000000E-03 0.  1.
         12    1    3    3    0    0 -0.28668183728E+01 -0.30880872600E+01 -0.20010721748E+01  0.46646779478E+01  0.00000000000E+00 0. -1.
</event>
<event>
 7    1  0.4963616E-011  0.5052886E+02  0.7816164E-02  0.1300439E+00
        -11   -1    0    0    0    0  0.00000000000E+00  0.00000000000E+00  0.45593999997E+02  0.45594000000E+02  0.51100000000E-03 0.  1.
         11   -1    0    0    0    0 -0.00000000000E+00 -0.00000000000E+00 -0.45593999997E+02  0.45594000000E+02  0.51100000000E-03 0. -1.
    9900012    2    1    2    0    0 -0.37384866057E+02 -0.14612306899E+02 -0.64821242779E+01  0.50528860091E+02  0.30000000732E+02 0.  0.
        -12    1    1    2    0    0  0.37384866057E+02  0.14612306899E+02  0.64821242779E+01  0.40659139909E+02  0.00000000000E+00 0.  1.
         11    1    3    3    0    0 -0.24666019050E+02 -0.36459792988E+01  0.75153090126E+00  0.24945349462E+02  0.51100000000E-03 0. -1.
        -11    1    3    3    0    0 -0.11749513584E+02 -0.15748916362E+02 -0.60960930376E+01  0.20572840995E+02  0.51100000000E-03 0.  1.
        -12    1    3    3    0    0 -0.96933342285E+00  0.47825887619E+01 -0.11375621415E+01  0.50106696334E+01  0.00000000000E+00 0.  1.
</event>
<event>
 7    1  0.4963616E-011  0.5052886E+02  0.7816164E-02  0.1300439E+00
        -11   -1    0    0    0    0  0.00000000000E+00  0.00000000000E+00  0.45593999997E+02  0.45594000000E+02  0.51100000000E-03 0.  1.
         11   -1    0    0    0    0 -0.00000000000E+00 -0.00000000000E+00 -0.45593999997E+02  0.45594000000E+02  0.51100000000E-03 0. -1.
    9900012    2    1    2    0    0 -0.40174241421E+02  0.21140617344E+01 -0.58929281719E+01  0.50528861628E+02  0.30000005404E+02 0.  0.
        -12    1    1    2    0    0  0.40174241421E+02 -0.21140617344E+01  0.58929281719E+01  0.40659138372E+02  0.00000000000E+00 0.  1.
         11    1    3    3    0    0 -0.38520499890E+01  0.68594195674E+01 -0.46160064658E+01  0.91212631731E+01  0.51100000000E-03 0. -1.
        -11    1    3    3    0    0 -0.38426067862E+02 -0.32973713195E+01 -0.34205954583E-01  0.38567298573E+02  0.51100000000E-03 0.  1.
        -12    1    3    3    0    0  0.21038764302E+01 -0.14479865135E+01 -0.12427157515E+01  0.28402998813E+01  0.00000000000E+00 0.  1.
</event>
<event>
 7    1  0.4963616E-011  0.5052886E+02  0.7816164E-02  0.1300439E+00
        -11   -1    0    0    0    0  0.00000000000E+00  0.00000000000E+00  0.45593999997E+02  0.45594000000E+02  0.51100000000E-03 0.  1.
         11   -1    0    0    0    0 -0.00000000000E+00 -0.00000000000E+00 -0.45593999997E+02  0.45594000000E+02  0.51100000000E-03 0. -1.
    9900012    2    1    2    0    0  0.13711230611E+02  0.32200029675E+02 -0.20696029545E+02  0.50528863329E+02  0.30000010574E+02 0.  0.
        -12    1    1    2    0    0 -0.13711230611E+02 -0.32200029675E+02  0.20696029545E+02  0.40659136671E+02  0.00000000000E+00 0.  1.
         11    1    3    3    0    0  0.21292540922E+01  0.22399667897E+02 -0.20517662872E+02  0.30450834715E+02  0.51100000000E-03 0. -1.
        -11    1    3    3    0    0  0.14475751986E+02  0.76728949381E+01  0.63333150917E+00  0.16395786695E+02  0.51100000000E-03 0.  1.
        -12    1    3    3    0    0 -0.28937754667E+01  0.21274668395E+01 -0.81169818258E+00  0.36822419183E+01  0.00000000000E+00 0.  1.
</event>
<event>
 7    1  0.4963616E-011  0.5052885E+02  0.7816164E-02  0.1300439E+00
        -11   -1    0    0    0    0  0.00000000000E+00  0.00000000000E+00  0.45593999997E+02  0.45594000000E+02  0.51100000000E-03 0.  1.
         11   -1    0    0    0    0 -0.00000000000E+00 -0.00000000000E+00 -0.45593999997E+02  0.45594000000E+02  0.51100000000E-03 0. -1.
    9900012    2    1    2    0    0 -0.24226681711E+02  0.37154350148E+01 -0.32441175200E+02  0.50528850816E+02  0.29999972539E+02 0.  0.
        -12    1    1    2    0    0  0.24226681711E+02 -0.37154350148E+01  0.32441175200E+02  0.40659149184E+02  0.00000000000E+00 0.  1.
         11    1    3    3    0    0 -0.10457820380E+02 -0.89943239726E+01 -0.10460736306E+02  0.17311582110E+02  0.51100000000E-03 0. -1.
        -11    1    3    3    0    0  0.65787201807E+00  0.72962340439E+01 -0.14147400478E+02  0.15931627894E+02  0.51100000000E-03 0.  1.
         12    1    3    3    0    0 -0.14426733349E+02  0.54135249435E+01 -0.78330384158E+01  0.17285640811E+02  0.00000000000E+00 0. -1.
</event>
<event>
 7    1  0.4963616E-011  0.5052889E+02  0.7816164E-02  0.1300439E+00
        -11   -1    0    0    0    0  0.00000000000E+00  0.00000000000E+00  0.45593999997E+02  0.45594000000E+02  0.51100000000E-03 0. -1.
         11   -1    0    0    0    0 -0.00000000000E+00 -0.00000000000E+00 -0.45593999997E+02  0.45594000000E+02  0.51100000000E-03 0.  1.
    9900012    2    1    2    0    0  0.37106329049E+02 -0.18787074081E+01  0.16515266148E+02  0.50528890161E+02  0.30000092132E+02 0.  0.
        -12    1    1    2    0    0 -0.37106329049E+02  0.18787074081E+01 -0.16515266148E+02  0.40659109839E+02  0.00000000000E+00 0.  1.
         11    1    3    3    0    0  0.26788540100E+02 -0.18033108940E+01  0.18933758165E+02  0.32853690955E+02  0.51100000000E-03 0. -1.
        -11    1    3    3    0    0  0.10939869690E+00  0.41283269446E+01 -0.48505262554E+01  0.63704518405E+01  0.51100000000E-03 0.  1.
        -12    1    3    3    0    0  0.10208390252E+02 -0.42037234587E+01  0.24320342383E+01  0.11304747365E+02  0.00000000000E+00 0.  1.
</event>
<event>
 7    1  0.4963616E-011  0.5052885E+02  0.7816164E-02  0.1300439E+00
        -11   -1    0    0    0    0  0.00000000000E+00  0.00000000000E+00  0.45593999997E+02  0.45594000000E+02  0.51100000000E-03 0.  1.
         11   -1    0    0    0    0 -0.00000000000E+00 -0.00000000000E+00 -0.45593999997E+02  0.45594000000E+02  0.51100000000E-03 0. -1.
    9900012    2    1    2    0    0 -0.83807990654E+01  0.12373951827E+02 -0.37812885442E+02  0.50528846268E+02  0.29999958716E+02 0.  0.
        -12    1    1    2    0    0  0.83807990654E+01 -0.12373951827E+02  0.37812885442E+02  0.40659153732E+02  0.00000000000E+00 0.  1.
         11    1    3    3    0    0 -0.62820154782E+01  0.47952442665E+01 -0.31256489161E+00  0.79092213976E+01  0.51100000000E-03 0. -1.
        -11    1    3    3    0    0  0.63400184158E+01  0.52910838266E+00 -0.25760236257E+02  0.26534233765E+02  0.51100000000E-03 0.  1.
         12    1    3    3    0    0 -0.84388020030E+01  0.70495991780E+01 -0.11740084292E+02  0.16085391105E+02  0.00000000000E+00 0. -1.
</event>
<event>
 7    1  0.4963616E-011  0.5052886E+02  0.7816164E-02  0.1300439E+00
        -11   -1    0    0    0    0  0.00000000000E+00  0.00000000000E+00  0.45593999997E+02  0.45594000000E+02  0.51100000000E-03 0.  1.
         11   -1    0    0    0    0 -0.00000000000E+00 -0.00000000000E+00 -0.45593999997E+02  0.45594000000E+02  0.51100000000E-03 0. -1.
    9900012    2    1    2    0    0  0.18780699341E+02  0.26229666882E+02 -0.24747834478E+02  0.50528863218E+02  0.30000010239E+02 0.  0.
        -12    1    1    2    0    0 -0.18780699341E+02 -0.26229666882E+02  0.24747834478E+02  0.40659136782E+02  0.00000000000E+00 0.  1.
         11    1    3    3    0    0 -0.34503413682E+01  0.84298697069E+01  0.56755325578E+00  0.91263177564E+01  0.51100000000E-03 0. -1.
        -11    1    3    3    0    0  0.24255384582E+02  0.15630491818E+02 -0.19358164446E+02  0.34747294666E+02  0.51100000000E-03 0.  1.
         12    1    3    3    0    0 -0.20243438724E+01  0.21693053573E+01 -0.59572232882E+01  0.66552507956E+01  0.00000000000E+00 0. -1.
</event>
<event>
 7    1  0.4963616E-011  0.5052885E+02  0.7816164E-02  0.1300439E+00
        -11   -1    0    0    0    0  0.00000000000E+00  0.00000000000E+00  0.45593999997E+02  0.45594000000E+02  0.51100000000E-03 0. -1.
         11   -1    0    0    0    0 -0.00000000000E+00 -0.00000000000E+00 -0.45593999997E+02  0.45594000000E+02  0.51100000000E-03 0.  1.
    9900012    2    1    2    0    0 -0.96330512021E+01 -0.39347732229E+02  0.34823330520E+01  0.50528851577E+02  0.29999974853E+02 0.  0.
        -12    1    1    2    0    0  0.96330512021E+01  0.39347732229E+02 -0.34823330520E+01  0.40659148423E+02  0.00000000000E+00 0.  1.
         11    1    3    3    0    0 -0.17873933126E+02 -0.15974934863E+02  0.64891866007E+01  0.24835168054E+02  0.51100000000E-03 0. -1.
        -11    1    3    3    0    0  0.47806415464E+01 -0.11574592833E+02 -0.45026414385E+01  0.13307874099E+02  0.51100000000E-03 0.  1.
         12    1    3    3    0    0  0.34602403779E+01 -0.11798204532E+02  0.14957878897E+01  0.12385809423E+02  0.00000000000E+00 0. -1.
</event>
<event>
 7    1  0.4963616E-011  0.5052890E+02  0.7816164E-02  0.1300439E+00
        -11   -1    0    0    0    0  0.00000000000E+00  0.00000000000E+00  0.45593999997E+02  0.45594000000E+02  0.51100000000E-03 0.  1.
         11   -1    0    0    0    0 -0.00000000000E+00 -0.00000000000E+00 -0.45593999997E+02  0.45594000000E+02  0.51100000000E-03 0. -1.
    9900012    2    1    2    0    0  0.23215757266E+02 -0.33197382277E+02  0.34821143757E+01  0.50528896518E+02  0.30000111454E+02 0.  0.
        -12    1    1    2    0    0 -0.23215757266E+02  0.33197382277E+02 -0.34821143757E+01  0.40659103482E+02  0.00000000000E+00 0.  1.
         11    1    3    3    0    0  0.19915466024E+02 -0.10763366513E+02 -0.57004749157E+01  0.23344619512E+02  0.51100000000E-03 0. -1.
        -11    1    3    3    0    0  0.15622115461E+01 -0.68551689431E+01  0.91112181720E+01  0.11508611688E+02  0.51100000000E-03 0.  1.
        -12    1    3    3    0    0  0.17380796958E+01 -0.15578846821E+02  0.71371119446E-01  0.15675665317E+02  0.00000000000E+00 0.  1.
</event>
<event>
 7    1  0.4963616E-011  0.5052886E+02  0.7816164E-02  0.1300439E+00
        -11   -1    0    0    0    0  0.00000000000E+00  0.00000000000E+00  0.45593999997E+02  0.45594000000E+02  0.51100000000E-03 0.  1.
         11   -1    0    0    0    0 -0.00000000000E+00 -0.00000000000E+00 -0.45593999997E+02  0.45594000000E+02  0.51100000000E-03 0. -1.
    9900012    2    1    2    0    0 -0.34533730714E-02  0.34612905953E+02 -0.21333365875E+02  0.50528858715E+02  0.29999996551E+02 0.  0.
        -12    1    1    2    0    0  0.34533730714E-02 -0.34612905953E+02  0.21333365875E+02  0.40659141285E+02  0.00000000000E+00 0.  1.
         11    1    3    3    0    0  0.42932134123E+01  0.18122447192E+02 -0.26336650809E+02  0.32256378435E+02  0.51100000000E-03 0. -1.
        -11    1    3    3    0    0 -0.34657747705E+01  0.52422403126E+01  0.21004721063E+01  0.66260592802E+01  0.51100000000E-03 0.  1.
         12    1    3    3    0    0 -0.83089201491E+00  0.11248218449E+02  0.29028128274E+01  0.11646421000E+02  0.00000000000E+00 0. -1.
</event>
<event>
 7    1  0.4963616E-011  0.5052899E+02  0.7816164E-02  0.1300438E+00
        -11   -1    0    0    0    0  0.00000000000E+00  0.00000000000E+00  0.45593999997E+02  0.45594000000E+02  0.51100000000E-03 0. -1.
         11   -1    0    0    0    0 -0.00000000000E+00 -0.00000000000E+00 -0.45593999997E+02  0.45594000000E+02  0.51100000000E-03 0.  1.
    9900012    2    1    2    0    0 -0.55283662958E+01 -0.35709082251E+02  0.18640108521E+02  0.50528990731E+02  0.30000397822E+02 0.  0.
        -12    1    1    2    0    0  0.55283662958E+01  0.35709082251E+02 -0.18640108521E+02  0.40659009269E+02  0.00000000000E+00 0.  1.
         11    1    3    3    0    0 -0.32361378479E+01 -0.29773432152E+01 -0.10135781100E+01  0.45127044705E+01  0.51100000000E-03 0. -1.
        -11    1    3    3    0    0  0.11210954740E+02 -0.13459742193E+02  0.12145144240E+02  0.21315597457E+02  0.51100000000E-03 0.  1.
        -12    1    3    3    0    0 -0.13503183188E+02 -0.19271996843E+02  0.75085423915E+01  0.24700688803E+02  0.00000000000E+00 0.  1.
</event>
<event>
 7    1  0.4963616E-011  0.5052886E+02  0.7816164E-02  0.1300439E+00
        -11   -1    0    0    0    0  0.00000000000E+00  0.00000000000E+00  0.45593999997E+02  0.45594000000E+02  0.51100000000E-03 0. -1.
         11   -1    0    0    0    0 -0.00000000000E+00 -0.00000000000E+00 -0.45593999997E+02  0.45594000000E+02  0.51100000000E-03 0.  1.
    9900012    2    1    2    0    0  0.14397646656E+02  0.45370476607E+01  0.37752991549E+02  0.50528863245E+02  0.30000010320E+02 0.  0.
        -12    1    1    2    0    0 -0.14397646656E+02 -0.45370476607E+01 -0.37752991549E+02  0.40659136755E+02  0.00000000000E+00 0.  1.
         11    1    3    3    0    0 -0.17364065611E+01  0.98036617113E+01  0.27745856083E+02  0.29478117659E+02  0.51100000000E-03 0. -1.
        -11    1    3    3    0    0  0.88201732696E+01 -0.27160611324E+01  0.95663216244E+01  0.13292364510E+02  0.51100000000E-03 0.  1.
        -12    1    3    3    0    0  0.73138799477E+01 -0.25505529182E+01  0.44081384204E+00  0.77583810760E+01  0.00000000000E+00 0.  1.
</event>
<event>
 7    1  0.4963616E-011  0.5052887E+02  0.7816164E-02  0.1300439E+00
        -11   -1    0    0    0    0  0.00000000000E+00  0.00000000000E+00  0.45593999997E+02  0.45594000000E+02  0.51100000000E-03 0.  1.
         11   -1    0    0    0    0 -0.00000000000E+00 -0.00000000000E+00 -0.45593999997E+02  0.45594000000E+02  0.51100000000E-03 0. -1.
    9900012    2    1    2    0    0 -0.24620154684E+01 -0.29515064852E+02 -0.27856138417E+02  0.50528867927E+02  0.30000024552E+02 0.  0.
        -12    1    1    2    0    0  0.24620154684E+01  0.29515064852E+02  0.27856138417E+02  0.40659132073E+02  0.00000000000E+00 0.  1.
         11    1    3    3    0    0  0.90528098316E+01 -0.27654625435E+02 -0.23657868429E+02  0.37502352095E+02  0.51100000000E-03 0. -1.
        -11    1    3    3    0    0 -0.93697719590E+01 -0.21549803243E+01 -0.48458587581E+01  0.10766564639E+02  0.51100000000E-03 0.  1.
         12    1    3    3    0    0 -0.21450533410E+01  0.29454090786E+00  0.64758876941E+00  0.22599511933E+01  0.00000000000E+00 0. -1.
</event>
<event>
 7    1  0.4963616E-011  0.5052887E+02  0.7816164E-02  0.1300439E+00
        -11   -1    0    0    0    0  0.00000000000E+00  0.00000000000E+00  0.45593999997E+02  0.45594000000E+02  0.51100000000E-03 0. -1.
         11   -1    0    0    0    0 -0.00000000000E+00 -0.00000000000E+00 -0.45593999997E+02  0.45594000000E+02  0.51100000000E-03 0.  1.
    9900012    2    1    2    0    0 -0.66230834422E+01 -0.39066611534E+02 -0.91159043660E+01  0.50528867159E+02  0.30000022215E+02 0.  0.
        -12    1    1    2    0    0  0.66230834422E+01  0.39066611534E+02  0.91159043660E+01  0.40659132841E+02  0.00000000000E+00 0.  1.
         11    1    3    3    0    0 -0.11761743011E+01 -0.21779064226E+02 -0.16854473244E+02  0.27564184972E+02  0.51100000000E-03 0. -1.
        -11    1    3    3    0    0 -0.16726691122E+01 -0.17030373674E+02  0.84980013961E+01  0.19106215675E+02  0.51100000000E-03 0.  1.
        -12    1    3    3    0    0 -0.37742400289E+01 -0.25717363375E+00 -0.75943251801E+00  0.38584665119E+01  0.00000000000E+00 0.  1.
</event>
<event>
 7    1  0.4963616E-011  0.5052886E+02  0.7816164E-02  0.1300439E+00
        -11   -1    0    0    0    0  0.00000000000E+00  0.00000000000E+00  0.45593999997E+02  0.45594000000E+02  0.51100000000E-03 0. -1.
         11   -1    0    0    0    0 -0.00000000000E+00 -0.00000000000E+00 -0.45593999997E+02  0.45594000000E+02  0.51100000000E-03 0.  1.
    9900012    2    1    2    0    0  0.30781325283E+02  0.49523723009E+01  0.26098842764E+02  0.50528861160E+02  0.30000003982E+02 0.  0.
        -12    1    1    2    0    0 -0.30781325283E+02 -0.49523723009E+01 -0.26098842764E+02  0.40659138840E+02  0.00000000000E+00 0.  1.
         11    1    3    3    0    0  0.22069456588E+02  0.42283038696E+00  0.28493405276E+02  0.36043221889E+02  0.51100000000E-03 0. -1.
        -11    1    3    3    0    0  0.61273051612E+01  0.78779938230E+01 -0.99305938417E+00  0.10029597321E+02  0.51100000000E-03 0.  1.
         12    1    3    3    0    0  0.25845635337E+01 -0.33484519090E+01 -0.14015031279E+01  0.44560419505E+01  0.00000000000E+00 0. -1.
</event>
<event>
 7    1  0.4963616E-011  0.5052884E+02  0.7816164E-02  0.1300439E+00
        -11   -1    0    0    0    0  0.00000000000E+00  0.00000000000E+00  0.45593999997E+02  0.45594000000E+02  0.51100000000E-03 0.  1.
         11   -1    0    0    0    0 -0.00000000000E+00 -0.00000000000E+00 -0.45593999997E+02  0.45594000000E+02  0.51100000000E-03 0. -1.
    9900012    2    1    2    0    0  0.88650675074E+01 -0.39289936237E+02  0.55568382593E+01  0.50528844046E+02  0.29999951963E+02 0.  0.
        -12    1    1    2    0    0 -0.88650675074E+01  0.39289936237E+02 -0.55568382593E+01  0.40659155954E+02  0.00000000000E+00 0.  1.
         11    1    3    3    0    0 -0.66978349671E+01 -0.19270295446E+02  0.68136585064E+00  0.20412484893E+02  0.51100000000E-03 0. -1.
        -11    1    3    3    0    0  0.11330921189E+02 -0.10782312325E+02  0.10172214051E+02  0.18658027040E+02  0.51100000000E-03 0.  1.
        -12    1    3    3    0    0  0.42319812861E+01 -0.92373284663E+01 -0.52967416425E+01  0.11458332114E+02  0.00000000000E+00 0.  1.
</event>
<event>
 7    1  0.4963616E-011  0.5052885E+02  0.7816164E-02  0.1300439E+00
        -11   -1    0    0    0    0  0.00000000000E+00  0.00000000000E+00  0.45593999997E+02  0.45594000000E+02  0.51100000000E-03 0.  1.
         11   -1    0    0    0    0 -0.00000000000E+00 -0.00000000000E+00 -0.45593999997E+02  0.45594000000E+02  0.51100000000E-03 0. -1.
    9900012    2    1    2    0    0 -0.18482710483E+02 -0.19142005937E+02 -0.30743126038E+02  0.50528846336E+02  0.29999958923E+02 0.  0.
        -12    1    1    2    0    0  0.18482710483E+02  0.19142005937E+02  0.30743126038E+02  0.40659153664E+02  0.00000000000E+00 0.  1.
         11    1    3    3    0    0 -0.76327726268E+01 -0.17284744896E+02 -0.27197183399E+02  0.33116588128E+02  0.51100000000E-03 0. -1.
        -11    1    3    3    0    0 -0.13616951694E+02 -0.31382382915E+01 -0.32645166341E+01  0.14350156170E+02  0.51100000000E-03 0.  1.
         12    1    3    3    0    0  0.27670138378E+01  0.12809772506E+01 -0.28142600443E+00  0.30621020380E+01  0.00000000000E+00 0. -1.
</event>
<event>
 7    1  0.4963616E-011  0.5052892E+02  0.7816164E-02  0.1300439E+00
        -11   -1    0    0    0    0  0.00000000000E+00  0.00000000000E+00  0.45593999997E+02  0.45594000000E+02  0.51100000000E-03 0. -1.
         11   -1    0    0    0    0 -0.00000000000E+00 -0.00000000000E+00 -0.45593999997E+02  0.45594000000E+02  0.51100000000E-03 0.  1.
    9900012    2    1    2    0    0 -0.68449543723E+01  0.15850994817E+02  0.36811045183E+02  0.50528923713E+02  0.30000194119E+02 0.  0.
        -12    1    1    2    0    0  0.68449543723E+01 -0.15850994817E+02 -0.36811045183E+02  0.40659076287E+02  0.00000000000E+00 0.  1.
         11    1    3    3    0    0 -0.58967746132E+01  0.53678781775E+01  0.29684480230E+02  0.30736857903E+02  0.51100000000E-03 0.  1.
        -11    1    3    3    0    0  0.38582919664E+01  0.80163370419E+01 -0.20625399114E+01  0.91324776274E+01  0.51100000000E-03 0. -1.
         12    1    3    3    0    0 -0.48064717255E+01  0.24667795974E+01  0.91891048636E+01  0.10659588183E+02  0.00000000000E+00 0. -1.
</event>
<event>
 7    1  0.4963616E-011  0.5052885E+02  0.7816164E-02  0.1300439E+00
        -11   -1    0    0    0    0  0.00000000000E+00  0.00000000000E+00  0.45593999997E+02  0.45594000000E+02  0.51100000000E-03 0.  1.
         11   -1    0    0    0    0 -0.00000000000E+00 -0.00000000000E+00 -0.45593999997E+02  0.45594000000E+02  0.51100000000E-03 0. -1.
    9900012    2    1    2    0    0 -0.29921656134E+02  0.19243143186E+01 -0.27461940150E+02  0.50528847916E+02  0.29999963727E+02 0.  0.
        -12    1    1    2    0    0  0.29921656134E+02 -0.19243143186E+01  0.27461940150E+02  0.40659152084E+02  0.00000000000E+00 0.  1.
         11    1    3    3    0    0 -0.21371307135E+02 -0.11605751192E+02 -0.14607565343E+02  0.28369123971E+02  0.51100000000E-03 0. -1.
        -11    1    3    3    0    0 -0.97547130579E+01  0.10444060938E+02 -0.82948570321E+01  0.16523846077E+02  0.51100000000E-03 0.  1.
         12    1    3    3    0    0  0.12043640591E+01  0.30860045728E+01 -0.45595177751E+01  0.56358778687E+01  0.00000000000E+00 0. -1.
</event>
<event>
 7    1  0.4963616E-011  0.5052886E+02  0.7816164E-02  0.1300439E+00
        -11   -1    0    0    0    0  0.00000000000E+00  0.00000000000E+00  0.45593999997E+02  0.45594000000E+02  0.51100000000E-03 0. -1.
         11   -1    0    0    0    0 -0.00000000000E+00 -0.00000000000E+00 -0.45593999997E+02  0.45594000000E+02  0.51100000000E-03 0.  1.
    9900012    2    1    2    0    0 -0.46628831523E+01  0.39079527507E+02  0.10208500108E+02  0.50528862971E+02  0.30000009487E+02 0.  0.
        -12    1    1    2    0    0  0.46628831523E+01 -0.39079527507E+02 -0.10208500108E+02  0.40659137029E+02  0.00000000000E+00 0.  1.
         11    1    3    3    0    0 -0.91643034167E+01  0.35493450061E+01  0.41770705092E+01  0.10678493592E+02  0.51100000000E-03 0. -1.
        -11    1    3    3    0    0  0.52865695024E+01  0.11957795446E+02  0.92929936470E+01  0.16040461970E+02  0.51100000000E-03 0.  1.
        -12    1    3    3    0    0 -0.78514923800E+00  0.23572387055E+02 -0.32615640482E+01  0.23809907409E+02  0.00000000000E+00 0.  1.
</event>
<event>
 7    1  0.4963616E-011  0.5052884E+02  0.7816164E-02  0.1300439E+00
        -11   -1    0    0    0    0  0.00000000000E+00  0.00000000000E+00  0.45593999997E+02  0.45594000000E+02  0.51100000000E-03 0. -1.
         11   -1    0    0    0    0 -0.00000000000E+00 -0.00000000000E+00 -0.45593999997E+02  0.45594000000E+02  0.51100000000E-03 0.  1.
    9900012    2    1    2    0    0  0.36188939036E+02 -0.11509128277E+02  0.14528167483E+02  0.50528843680E+02  0.29999950850E+02 0.  0.
        -12    1    1    2    0    0 -0.36188939036E+02  0.11509128277E+02 -0.14528167483E+02  0.40659156320E+02  0.00000000000E+00 0.  1.
         11    1    3    3    0    0  0.16559751059E+02 -0.28354607117E+01  0.17601264279E+01  0.16892697768E+02  0.51100000000E-03 0. -1.
        -11    1    3    3    0    0  0.14202998430E+02 -0.82079027355E+01  0.19170292011E+02  0.25230832879E+02  0.51100000000E-03 0.  1.
        -12    1    3    3    0    0  0.54261895468E+01 -0.46576482986E+00 -0.64022509559E+01  0.84053130327E+01  0.00000000000E+00 0.  1.
</event>
<event>
 7    1  0.4963616E-011  0.5052886E+02  0.7816164E-02  0.1300439E+00
        -11   -1    0    0    0    0  0.00000000000E+00  0.00000000000E+00  0.45593999997E+02  0.45594000000E+02  0.51100000000E-03 0.  1.
         11   -1    0    0    0    0 -0.00000000000E+00 -0.00000000000E+00 -0.45593999997E+02  0.45594000000E+02  0.51100000000E-03 0. -1.
    9900012    2    1    2    0    0 -0.38779032521E+02 -0.11050332507E+02 -0.52194658621E+01  0.50528855448E+02  0.29999986620E+02 0.  0.
        -12    1    1    2    0    0  0.38779032521E+02  0.11050332507E+02  0.52194658621E+01  0.40659144552E+02  0.00000000000E+00 0.  1.
         11    1    3    3    0    0 -0.28144408798E+02 -0.11771323236E+02 -0.90699573456E+01  0.31826654299E+02  0.51100000000E-03 0. -1.
        -11    1    3    3    0    0  0.27505993234E+01 -0.26856185106E+01  0.29779072267E+01  0.48627435810E+01  0.51100000000E-03 0.  1.
         12    1    3    3    0    0 -0.13385223046E+02  0.34066092392E+01  0.87258425681E+00  0.13839457568E+02  0.00000000000E+00 0. -1.
</event>
<event>
 7    1  0.4963616E-011  0.5052886E+02  0.7816164E-02  0.1300439E+00
        -11   -1    0    0    0    0  0.00000000000E+00  0.00000000000E+00  0.45593999997E+02  0.45594000000E+02  0.51100000000E-03 0.  1.
         11   -1    0    0    0    0 -0.00000000000E+00 -0.00000000000E+00 -0.45593999997E+02  0.45594000000E+02  0.51100000000E-03 0. -1.
    9900012    2    1    2    0    0 -0.24524329205E+01  0.26656682223E+02 -0.30603466703E+02  0.50528864390E+02  0.30000013799E+02 0.  0.
        -12    1    1    2    0    0  0.24524329205E+01 -0.26656682223E+02  0.30603466703E+02  0.40659135610E+02  0.00000000000E+00 0.  1.
         11    1    3    3    0    0 -0.22131594045E+01  0.66664617453E+01 -0.49398677446E+01  0.85873209062E+01  0.51100000000E-03 0. -1.
        -11    1    3    3    0    0  0.96052923967E+01 -0.12455969777E+01 -0.88700526431E+01  0.13133582451E+02  0.51100000000E-03 0.  1.
        -12    1    3    3    0    0 -0.98445659127E+01  0.21235817455E+02 -0.16793546315E+02  0.28807961032E+02  0.00000000000E+00 0.  1.
</event>
<event>
 7    1  0.4963616E-011  0.5052886E+02  0.7816164E-02  0.1300439E+00
        -11   -1    0    0    0    0  0.00000000000E+00  0.00000000000E+00  0.45593999997E+02  0.45594000000E+02  0.51100000000E-03 0.  1.
         11   -1    0    0    0    0 -0.00000000000E+00 -0.00000000000E+00 -0.45593999997E+02  0.45594000000E+02  0.51100000000E-03 0. -1.
    9900012    2    1    2    0    0 -0.25759247117E+02 -0.29912838168E+02  0.97390370306E+01  0.50528861524E+02  0.30000005089E+02 0.  0.
        -12    1    1    2    0    0  0.25759247117E+02  0.29912838168E+02 -0.97390370306E+01  0.40659138476E+02  0.00000000000E+00 0.  1.
         11    1    3    3    0    0 -0.12906972330E+02 -0.90519969922E+01 -0.88212761667E+01  0.18064979871E+02  0.51100000000E-03 0. -1.
        -11    1    3    3    0    0 -0.63858351067E+01 -0.16513771453E+02  0.82306646470E+01  0.19525044901E+02  0.51100000000E-03 0.  1.
         12    1    3    3    0    0 -0.64664396806E+01 -0.43470697232E+01  0.10329648550E+02  0.12938836752E+02  0.00000000000E+00 0. -1.
</event>
<event>
 7    1  0.4963616E-011  0.5052886E+02  0.7816164E-02  0.1300439E+00
        -11   -1    0    0    0    0  0.00000000000E+00  0.00000000000E+00  0.45593999997E+02  0.45594000000E+02  0.51100000000E-03 0. -1.
         11   -1    0    0    0    0 -0.00000000000E+00 -0.00000000000E+00 -0.45593999997E+02  0.45594000000E+02  0.51100000000E-03 0.  1.
    9900012    2    1    2    0    0  0.37761000699E+02 -0.98820958835E+01 -0.11384929852E+02  0.50528860553E+02  0.30000002137E+02 0.  0.
        -12    1    1    2    0    0 -0.37761000699E+02  0.98820958835E+01  0.11384929852E+02  0.40659139447E+02  0.00000000000E+00 0.  1.
         11    1    3    3    0    0  0.13743020553E+02 -0.37187666718E+01 -0.15279270798E+01  0.14319022345E+02  0.51100000000E-03 0. -1.
        -11    1    3    3    0    0  0.54279057109E+01 -0.83747179345E+00 -0.15188033645E+02  0.16150538248E+02  0.51100000000E-03 0.  1.
        -12    1    3    3    0    0  0.18590074435E+02 -0.53258574183E+01  0.53310308734E+01  0.20059299961E+02  0.00000000000E+00 0.  1.
</event>
<event>
 7    1  0.4963616E-011  0.5052892E+02  0.7816164E-02  0.1300439E+00
        -11   -1    0    0    0    0  0.00000000000E+00  0.00000000000E+00  0.45593999997E+02  0.45594000000E+02  0.51100000000E-03 0.  1.
         11   -1    0    0    0    0 -0.00000000000E+00 -0.00000000000E+00 -0.45593999997E+02  0.45594000000E+02  0.51100000000E-03 0. -1.
    9900012    2    1    2    0    0 -0.17859986460E+02 -0.16003376860E+02 -0.32834032415E+02  0.50528918949E+02  0.30000179637E+02 0.  0.
        -12    1    1    2    0    0  0.17859986460E+02  0.16003376860E+02  0.32834032415E+02  0.40659081051E+02  0.00000000000E+00 0.  1.
         11    1    3    3    0    0 -0.14528976484E+02 -0.23356470496E+02 -0.22605781369E+02  0.35603893372E+02  0.51100000000E-03 0. -1.
        -11    1    3    3    0    0 -0.46702806973E+01  0.79589956186E+01 -0.77830278410E+01  0.12071978118E+02  0.51100000000E-03 0.  1.
        -12    1    3    3    0    0  0.13392707214E+01 -0.60590198269E+00 -0.24452232056E+01  0.28530474589E+01  0.00000000000E+00 0.  1.
</event>
<event>
 7    1  0.4963616E-011  0.5052883E+02  0.7816164E-02  0.1300439E+00
        -11   -1    0    0    0    0  0.00000000000E+00  0.00000000000E+00  0.45593999997E+02  0.45594000000E+02  0.51100000000E-03 0.  1.
         11   -1    0    0    0    0 -0.00000000000E+00 -0.00000000000E+00 -0.45593999997E+02  0.45594000000E+02  0.51100000000E-03 0. -1.
    9900012    2    1    2    0    0 -0.16746681818E+02  0.12424228938E+02 -0.34904943718E+02  0.50528832367E+02  0.29999916464E+02 0.  0.
        -12    1    1    2    0    0  0.16746681818E+02 -0.12424228938E+02  0.34904943718E+02  0.40659167633E+02  0.00000000000E+00 0.  1.
         11    1    3    3    0    0 -0.12703403993E+02  0.77968395836E+01 -0.21832471097E+02  0.26435278984E+02  0.51100000000E-03 0. -1.
        -11    1    3    3    0    0  0.68710243282E+01  0.53574113302E+01 -0.29745920988E+01  0.92065753620E+01  0.51100000000E-03 0.  1.
        -12    1    3    3    0    0 -0.10914302153E+02 -0.73002197530E+00 -0.10097880522E+02  0.14886978022E+02  0.00000000000E+00 0.  1.
</event>
<event>
 7    1  0.4963616E-011  0.5052885E+02  0.7816164E-02  0.1300439E+00
        -11   -1    0    0    0    0  0.00000000000E+00  0.00000000000E+00  0.45593999997E+02  0.45594000000E+02  0.51100000000E-03 0.  1.
         11   -1    0    0    0    0 -0.00000000000E+00 -0.00000000000E+00 -0.45593999997E+02  0.45594000000E+02  0.51100000000E-03 0. -1.
    9900012    2    1    2    0    0 -0.24866252727E+02  0.20123294358E+02 -0.25097592790E+02  0.50528847718E+02  0.29999963122E+02 0.  0.
        -12    1    1    2    0    0  0.24866252727E+02 -0.20123294358E+02  0.25097592790E+02  0.40659152282E+02  0.00000000000E+00 0.  1.
         11    1    3    3    0    0 -0.57428816037E+01  0.67079959682E+01 -0.99941317843E+01  0.13336437658E+02  0.51100000000E-03 0. -1.
        -11    1    3    3    0    0 -0.16323036689E+02 -0.23703761150E+01 -0.13043674299E+02  0.21028496122E+02  0.51100000000E-03 0.  1.
        -12    1    3    3    0    0 -0.28003344340E+01  0.15785674504E+02 -0.20597867067E+01  0.16163913937E+02  0.00000000000E+00 0.  1.
</event>
<event>
 7    1  0.4963616E-011  0.5052886E+02  0.7816164E-02  0.1300439E+00
        -11   -1    0    0    0    0  0.00000000000E+00  0.00000000000E+00  0.45593999997E+02  0.45594000000E+02  0.51100000000E-03 0.  1.
         11   -1    0    0    0    0 -0.00000000000E+00 -0.00000000000E+00 -0.45593999997E+02  0.45594000000E+02  0.51100000000E-03 0. -1.
    9900012    2    1    2    0    0  0.23386712433E+02 -0.25299747026E+02 -0.21590514790E+02  0.50528857769E+02  0.29999993676E+02 0.  0.
        -12    1    1    2    0    0 -0.23386712433E+02  0.25299747026E+02  0.21590514790E+02  0.40659142231E+02  0.00000000000E+00 0.  1.
         11    1    3    3    0    0 -0.16764933858E+01 -0.90894000404E+01 -0.21259358030E+00  0.92451619488E+01  0.51100000000E-03 0. -1.
        -11    1    3    3    0    0  0.14294555826E+02 -0.53135113231E+01 -0.21007354708E+02  0.25959134827E+02  0.51100000000E-03 0.  1.
         12    1    3    3    0    0  0.10768649993E+02 -0.10896835663E+02 -0.37056650135E+00  0.15324560994E+02  0.00000000000E+00 0. -1.
</event>
<event>
 7    1  0.4963616E-011  0.5052886E+02  0.7816164E-02  0.1300439E+00
        -11   -1    0    0    0    0  0.00000000000E+00  0.00000000000E+00  0.45593999997E+02  0.45594000000E+02  0.51100000000E-03 0. -1.
         11   -1    0    0    0    0 -0.00000000000E+00 -0.00000000000E+00 -0.45593999997E+02  0.45594000000E+02  0.51100000000E-03 0.  1.
    9900012    2    1    2    0    0  0.38177942661E+02 -0.12639814952E+02 -0.59870876573E+01  0.50528862694E+02  0.30000008645E+02 0.  0.
        -12    1    1    2    0    0 -0.38177942661E+02  0.12639814952E+02  0.59870876573E+01  0.40659137306E+02  0.00000000000E+00 0.  1.
         11    1    3    3    0    0  0.28356064798E+02 -0.99503081504E+01  0.79366933074E+01  0.31081604593E+02  0.51100000000E-03 0. -1.
        -11    1    3    3    0    0  0.38822861802E+01  0.25224000705E+01 -0.90433283373E+01  0.10159548995E+02  0.51100000000E-03 0.  1.
        -12    1    3    3    0    0  0.59395916824E+01 -0.52119068723E+01 -0.48804526273E+01  0.92877091065E+01  0.00000000000E+00 0.  1.
</event>
<event>
 7    1  0.4963616E-011  0.5052889E+02  0.7816164E-02  0.1300439E+00
        -11   -1    0    0    0    0  0.00000000000E+00  0.00000000000E+00  0.45593999997E+02  0.45594000000E+02  0.51100000000E-03 0.  1.
         11   -1    0    0    0    0 -0.00000000000E+00 -0.00000000000E+00 -0.45593999997E+02  0.45594000000E+02  0.51100000000E-03 0. -1.
    9900012    2    1    2    0    0 -0.17793055223E+02 -0.18635906831E+02 -0.31452717995E+02  0.50528889006E+02  0.30000088622E+02 0.  0.
        -12    1    1    2    0    0  0.17793055223E+02  0.18635906831E+02  0.31452717995E+02  0.40659110994E+02  0.00000000000E+00 0.  1.
         11    1    3    3    0    0 -0.62591715905E+00 -0.70750035798E+01 -0.23784407877E+02  0.24822278426E+02  0.51100000000E-03 0. -1.
        -11    1    3    3    0    0 -0.17719021348E+02 -0.13651230405E+02 -0.71580060199E+01  0.23485247701E+02  0.51100000000E-03 0.  1.
        -12    1    3    3    0    0  0.55188328445E+00  0.20903271536E+01 -0.51030409789E+00  0.22213628792E+01  0.00000000000E+00 0.  1.
</event>
<event>
 7    1  0.4963616E-011  0.5052886E+02  0.7816164E-02  0.1300439E+00
        -11   -1    0    0    0    0  0.00000000000E+00  0.00000000000E+00  0.45593999997E+02  0.45594000000E+02  0.51100000000E-03 0.  1.
         11   -1    0    0    0    0 -0.00000000000E+00 -0.00000000000E+00 -0.45593999997E+02  0.45594000000E+02  0.51100000000E-03 0. -1.
    9900012    2    1    2    0    0  0.32048825635E+02  0.18830674986E+02 -0.16475556901E+02  0.50528861787E+02  0.30000005888E+02 0.  0.
        -12    1    1    2    0    0 -0.32048825635E+02 -0.18830674986E+02  0.16475556901E+02  0.40659138213E+02  0.00000000000E+00 0.  1.
         11    1    3    3    0    0  0.12325539980E+02  0.13910557561E+02 -0.87149519593E+01  0.20527370396E+02  0.51100000000E-03 0. -1.
        -11    1    3    3    0    0  0.12034742100E+02 -0.67407600108E+01 -0.81628332295E+01  0.16028247238E+02  0.51100000000E-03 0.  1.
        -12    1    3    3    0    0  0.76885435544E+01  0.11660877435E+02  0.40222828766E+00  0.13973244152E+02  0.00000000000E+00 0.  1.
</event>
<event>
 7    1  0.4963616E-011  0.5052887E+02  0.7816164E-02  0.1300439E+00
        -11   -1    0    0    0    0  0.00000000000E+00  0.00000000000E+00  0.45593999997E+02  0.45594000000E+02  0.51100000000E-03 0.  1.
         11   -1    0    0    0    0 -0.00000000000E+00 -0.00000000000E+00 -0.45593999997E+02  0.45594000000E+02  0.51100000000E-03 0. -1.
    9900012    2    1    2    0    0 -0.14092611358E+01  0.53051301539E+01 -0.40286900284E+02  0.50528871168E+02  0.30000034402E+02 0.  0.
        -12    1    1    2    0    0  0.14092611358E+01 -0.53051301539E+01  0.40286900284E+02  0.40659128832E+02  0.00000000000E+00 0.  1.
         11    1    3    3    0    0  0.75022019020E+00  0.85708975486E+00 -0.10754657684E+02  0.10814809076E+02  0.51100000000E-03 0. -1.
        -11    1    3    3    0    0 -0.13294438504E+02  0.66408410566E+01 -0.13539370611E+02  0.20103666877E+02  0.51100000000E-03 0.  1.
        -12    1    3    3    0    0  0.11134957178E+02 -0.21928006575E+01 -0.15992871988E+02  0.19610395215E+02  0.00000000000E+00 0.  1.
</event>
<event>
 7    1  0.4963616E-011  0.5052886E+02  0.7816164E-02  0.1300439E+00
        -11   -1    0    0    0    0  0.00000000000E+00  0.00000000000E+00  0.45593999997E+02  0.45594000000E+02  0.51100000000E-03 0.  1.
         11   -1    0    0    0    0 -0.00000000000E+00 -0.00000000000E+00 -0.45593999997E+02  0.45594000000E+02  0.51100000000E-03 0. -1.
    9900012    2    1    2    0    0  0.33395808011E+02 -0.99214206308E+01 -0.20963097742E+02  0.50528855309E+02  0.29999986198E+02 0.  0.
        -12    1    1    2    0    0 -0.33395808011E+02  0.99214206308E+01  0.20963097742E+02  0.40659144691E+02  0.00000000000E+00 0.  1.
         11    1    3    3    0    0  0.12195800169E+02  0.26197485970E+00 -0.15781779214E+02  0.19946697171E+02  0.51100000000E-03 0. -1.
        -11    1    3    3    0    0  0.87381042949E+01 -0.14517975489E+02 -0.27879952239E+01  0.17172623463E+02  0.51100000000E-03 0.  1.
         12    1    3    3    0    0  0.12461903547E+02  0.43345799989E+01 -0.23933233042E+01  0.13409534675E+02  0.00000000000E+00 0. -1.
</event>
<event>
 7    1  0.4963616E-011  0.5052886E+02  0.7816164E-02  0.1300439E+00
        -11   -1    0    0    0    0  0.00000000000E+00  0.00000000000E+00  0.45593999997E+02  0.45594000000E+02  0.51100000000E-03 0.  1.
         11   -1    0    0    0    0 -0.00000000000E+00 -0.00000000000E+00 -0.45593999997E+02  0.45594000000E+02  0.51100000000E-03 0. -1.
    9900012    2    1    2    0    0 -0.45255581640E+01  0.40200949002E+02 -0.40704162467E+01  0.50528864916E+02  0.30000015399E+02 0.  0.
        -12    1    1    2    0    0  0.45255581640E+01 -0.40200949002E+02  0.40704162467E+01  0.40659135084E+02  0.00000000000E+00 0.  1.
         11    1    3    3    0    0 -0.11441987021E+01  0.40637054434E+02 -0.76563185040E+01  0.41367844965E+02  0.51100000000E-03 0. -1.
        -11    1    3    3    0    0 -0.56733608550E+01 -0.91721475826E+00  0.13080385201E+01  0.58940029976E+01  0.51100000000E-03 0.  1.
         12    1    3    3    0    0  0.22920013932E+01  0.48110932572E+00  0.22778637372E+01  0.32670169536E+01  0.00000000000E+00 0. -1.
</event>
<event>
 7    1  0.4963616E-011  0.5052884E+02  0.7816164E-02  0.1300439E+00
        -11   -1    0    0    0    0  0.00000000000E+00  0.00000000000E+00  0.45593999997E+02  0.45594000000E+02  0.51100000000E-03 0.  1.
         11   -1    0    0    0    0 -0.00000000000E+00 -0.00000000000E+00 -0.45593999997E+02  0.45594000000E+02  0.51100000000E-03 0. -1.
    9900012    2    1    2    0    0 -0.11119419654E+02 -0.34679986689E+02  0.18078293332E+02  0.50528835474E+02  0.29999925906E+02 0.  0.
        -12    1    1    2    0    0  0.11119419654E+02  0.34679986689E+02 -0.18078293332E+02  0.40659164526E+02  0.00000000000E+00 0.  1.
         11    1    3    3    0    0  0.53006807949E+01 -0.12894246147E+02  0.11451282677E+01  0.13988213596E+02  0.51100000000E-03 0. -1.
        -11    1    3    3    0    0 -0.15534661628E+02 -0.13321908034E+02  0.18843705775E+02  0.27818774113E+02  0.51100000000E-03 0.  1.
        -12    1    3    3    0    0 -0.88543882121E+00 -0.84638325072E+01 -0.19105407109E+01  0.87218477643E+01  0.00000000000E+00 0.  1.
</event>
<event>
 7    1  0.4963616E-011  0.5052885E+02  0.7816164E-02  0.1300439E+00
        -11   -1    0    0    0    0  0.00000000000E+00  0.00000000000E+00  0.45593999997E+02  0.45594000000E+02  0.51100000000E-03 0.  1.
         11   -1    0    0    0    0 -0.00000000000E+00 -0.00000000000E+00 -0.45593999997E+02  0.45594000000E+02  0.51100000000E-03 0. -1.
    9900012    2    1    2    0    0 -0.65675082262E+01  0.10411743104E+02 -0.38750875115E+02  0.50528845054E+02  0.29999955026E+02 0.  0.
        -12    1    1    2    0    0  0.65675082262E+01 -0.10411743104E+02  0.38750875115E+02  0.40659154946E+02  0.00000000000E+00 0.  1.
         11    1    3    3    0    0 -0.90828976395E+01  0.45310282656E+00 -0.24545987640E+02  0.26176513159E+02  0.51100000000E-03 0. -1.
        -11    1    3    3    0    0  0.69873999112E+01  0.86021463718E+01 -0.15899987192E+02  0.19381183470E+02  0.51100000000E-03 0.  1.
         12    1    3    3    0    0 -0.44720104979E+01  0.13564939054E+01  0.16950997175E+01  0.49711484248E+01  0.00000000000E+00 0. -1.
</event>
<event>
 7    1  0.4963616E-011  0.5052885E+02  0.7816164E-02  0.1300439E+00
        -11   -1    0    0    0    0  0.00000000000E+00  0.00000000000E+00  0.45593999997E+02  0.45594000000E+02  0.51100000000E-03 0.  1.
         11   -1    0    0    0    0 -0.00000000000E+00 -0.00000000000E+00 -0.45593999997E+02  0.45594000000E+02  0.51100000000E-03 0. -1.
    9900012    2    1    2    0    0 -0.32021938262E+02 -0.22447524582E+02 -0.11129718036E+02  0.50528849573E+02  0.29999968761E+02 0.  0.
        -12    1    1    2    0    0  0.32021938262E+02  0.22447524582E+02  0.11129718036E+02  0.40659150427E+02  0.00000000000E+00 0.  1.
         11    1    3    3    0    0 -0.11528559189E+02 -0.12751127769E+02 -0.12111748609E+01  0.17232698023E+02  0.51100000000E-03 0. -1.
        -11    1    3    3    0    0 -0.12478497207E+02  0.17824229349E+01 -0.13876939744E+02  0.18747249957E+02  0.51100000000E-03 0.  1.
        -12    1    3    3    0    0 -0.80148818668E+01 -0.11478819748E+02  0.39583965681E+01  0.14548901592E+02  0.00000000000E+00 0.  1.
</event>
<event>
 7    1  0.4963616E-011  0.5052886E+02  0.7816164E-02  0.1300439E+00
        -11   -1    0    0    0    0  0.00000000000E+00  0.00000000000E+00  0.45593999997E+02  0.45594000000E+02  0.51100000000E-03 0.  1.
         11   -1    0    0    0    0 -0.00000000000E+00 -0.00000000000E+00 -0.45593999997E+02  0.45594000000E+02  0.51100000000E-03 0. -1.
    9900012    2    1    2    0    0  0.12909099236E+02  0.32749745811E+01 -0.38416085640E+02  0.50528856656E+02  0.29999990291E+02 0.  0.
        -12    1    1    2    0    0 -0.12909099236E+02 -0.32749745811E+01  0.38416085640E+02  0.40659143344E+02  0.00000000000E+00 0.  1.
         11    1    3    3    0    0  0.94953463775E+01  0.64260613668E+01 -0.13004031949E+01  0.11538930464E+02  0.51100000000E-03 0. -1.
        -11    1    3    3    0    0 -0.16179156069E+01 -0.17351150043E+01 -0.30338601424E+02  0.30431217715E+02  0.51100000000E-03 0.  1.
        -12    1    3    3    0    0  0.50316684654E+01 -0.14159717814E+01 -0.67770810210E+01  0.85587084772E+01  0.00000000000E+00 0.  1.
</event>
<event>
 7    1  0.4963616E-011  0.5052886E+02  0.7816164E-02  0.1300439E+00
        -11   -1    0    0    0    0  0.00000000000E+00  0.00000000000E+00  0.45593999997E+02  0.45594000000E+02  0.51100000000E-03 0. -1.
         11   -1    0    0    0    0 -0.00000000000E+00 -0.00000000000E+00 -0.45593999997E+02  0.45594000000E+02  0.51100000000E-03 0.  1.
    9900012    2    1    2    0    0  0.37719510173E+02  0.22585882626E+01 -0.15010091995E+02  0.50528861663E+02  0.30000005510E+02 0.  0.
        -12    1    1    2    0    0 -0.37719510173E+02 -0.22585882626E+01  0.15010091995E+02  0.40659138337E+02  0.00000000000E+00 0.  1.
         11    1    3    3    0    0  0.13078256681E+02 -0.31886794176E+01 -0.14935601371E+02  0.20106731779E+02  0.51100000000E-03 0. -1.
        -11    1    3    3    0    0  0.90524413719E+01  0.56067013451E+01  0.75644976055E+01  0.13061524377E+02  0.51100000000E-03 0.  1.
         12    1    3    3    0    0  0.15588812120E+02 -0.15943366490E+00 -0.76389882292E+01  0.17360605507E+02  0.00000000000E+00 0. -1.
</event>
<event>
 7    1  0.4963616E-011  0.5052886E+02  0.7816164E-02  0.1300439E+00
        -11   -1    0    0    0    0  0.00000000000E+00  0.00000000000E+00  0.45593999997E+02  0.45594000000E+02  0.51100000000E-03 0.  1.
         11   -1    0    0    0    0 -0.00000000000E+00 -0.00000000000E+00 -0.45593999997E+02  0.45594000000E+02  0.51100000000E-03 0. -1.
    9900012    2    1    2    0    0 -0.33547974386E+02 -0.11468885692E+02 -0.19903867298E+02  0.50528857635E+02  0.29999993268E+02 0.  0.
        -12    1    1    2    0    0  0.33547974386E+02  0.11468885692E+02  0.19903867298E+02  0.40659142365E+02  0.00000000000E+00 0.  1.
         11    1    3    3    0    0 -0.33136914966E+01 -0.73377791186E+01 -0.91599135047E+01  0.12195391318E+02  0.51100000000E-03 0. -1.
        -11    1    3    3    0    0 -0.20898774627E+02  0.35019733837E+01  0.13781200063E+01  0.21234919673E+02  0.51100000000E-03 0.  1.
        -12    1    3    3    0    0 -0.93355082617E+01 -0.76330799571E+01 -0.12122073800E+02  0.17098546644E+02  0.00000000000E+00 0.  1.
</event>
<event>
 7    1  0.4963616E-011  0.5052886E+02  0.7816164E-02  0.1300439E+00
        -11   -1    0    0    0    0  0.00000000000E+00  0.00000000000E+00  0.45593999997E+02  0.45594000000E+02  0.51100000000E-03 0.  1.
         11   -1    0    0    0    0 -0.00000000000E+00 -0.00000000000E+00 -0.45593999997E+02  0.45594000000E+02  0.51100000000E-03 0. -1.
    9900012    2    1    2    0    0  0.15104890891E+02  0.25693177105E+02 -0.27656264314E+02  0.50528855464E+02  0.29999986667E+02 0.  0.
        -12    1    1    2    0    0 -0.15104890891E+02 -0.25693177105E+02  0.27656264314E+02  0.40659144536E+02  0.00000000000E+00 0.  1.
         11    1    3    3    0    0  0.44221846153E+01  0.10138796145E+02 -0.10719602869E+02  0.15403272054E+02  0.51100000000E-03 0. -1.
        -11    1    3    3    0    0  0.67965046650E+01 -0.27119591266E+01  0.29090592105E+01  0.78746316560E+01  0.51100000000E-03 0.  1.
        -12    1    3    3    0    0  0.38862016109E+01  0.18266340087E+02 -0.19845720656E+02  0.27250951754E+02  0.00000000000E+00 0.  1.
</event>
<event>
 7    1  0.4963616E-011  0.5052885E+02  0.7816164E-02  0.1300439E+00
        -11   -1    0    0    0    0  0.00000000000E+00  0.00000000000E+00  0.45593999997E+02  0.45594000000E+02  0.51100000000E-03 0.  1.
         11   -1    0    0    0    0 -0.00000000000E+00 -0.00000000000E+00 -0.45593999997E+02  0.45594000000E+02  0.51100000000E-03 0. -1.
    9900012    2    1    2    0    0 -0.52273424263E+01  0.38756383709E+02 -0.11125836151E+02  0.50528848298E+02  0.29999964887E+02 0.  0.
        -12    1    1    2    0    0  0.52273424263E+01 -0.38756383709E+02  0.11125836151E+02  0.40659151702E+02  0.00000000000E+00 0.  1.
         11    1    3    3    0    0 -0.39291217016E+01  0.22837806655E+02 -0.21221880059E+02  0.31422469726E+02  0.51100000000E-03 0. -1.
        -11    1    3    3    0    0 -0.48832897101E+00  0.29833193919E+01  0.32879782093E+01  0.44664819202E+01  0.51100000000E-03 0.  1.
         12    1    3    3    0    0 -0.80989175363E+00  0.12935257662E+02  0.68080656984E+01  0.14639896652E+02  0.00000000000E+00 0. -1.
</event>
<event>
 7    1  0.4963616E-011  0.5052892E+02  0.7816164E-02  0.1300439E+00
        -11   -1    0    0    0    0  0.00000000000E+00  0.00000000000E+00  0.45593999997E+02  0.45594000000E+02  0.51100000000E-03 0.  1.
         11   -1    0    0    0    0 -0.00000000000E+00 -0.00000000000E+00 -0.45593999997E+02  0.45594000000E+02  0.51100000000E-03 0. -1.
    9900012    2    1    2    0    0  0.18239056005E+02  0.21169117105E+02 -0.29535846116E+02  0.50528918743E+02  0.30000179010E+02 0.  0.
        -12    1    1    2    0    0 -0.18239056005E+02 -0.21169117105E+02  0.29535846116E+02  0.40659081257E+02  0.00000000000E+00 0.  1.
         11    1    3    3    0    0  0.42750798717E+01  0.38065854469E+01 -0.20761565023E+01  0.60890743761E+01  0.51100000000E-03 0. -1.
        -11    1    3    3    0    0  0.17967584386E+02  0.81978919874E+01 -0.28181632853E+02  0.34412845744E+02  0.51100000000E-03 0.  1.
        -12    1    3    3    0    0 -0.40036082532E+01  0.91646396702E+01  0.72194323939E+00  0.10026998622E+02  0.00000000000E+00 0.  1.
</event>
<event>
 7    1  0.4963616E-011  0.5052887E+02  0.7816164E-02  0.1300439E+00
        -11   -1    0    0    0    0  0.00000000000E+00  0.00000000000E+00  0.45593999997E+02  0.45594000000E+02  0.51100000000E-03 0. -1.
         11   -1    0    0    0    0 -0.00000000000E+00 -0.00000000000E+00 -0.45593999997E+02  0.45594000000E+02  0.51100000000E-03 0.  1.
    9900012    2    1    2    0    0 -0.20447772361E+01 -0.38359665829E+02 -0.13323642681E+02  0.50528873955E+02  0.30000042874E+02 0.  0.
        -12    1    1    2    0    0  0.20447772361E+01  0.38359665829E+02  0.13323642681E+02  0.40659126045E+02  0.00000000000E+00 0.  1.
         11    1    3    3    0    0 -0.59724857811E+01 -0.14541927928E+02  0.67527144727E+01  0.17109570634E+02  0.51100000000E-03 0. -1.
        -11    1    3    3    0    0  0.70826544740E+01 -0.13988969967E+02 -0.82369079127E+01  0.17711632544E+02  0.51100000000E-03 0.  1.
        -12    1    3    3    0    0 -0.31549459291E+01 -0.98287679335E+01 -0.11839449241E+02  0.15707670777E+02  0.00000000000E+00 0.  1.
</event>
<event>
 7    1  0.4963616E-011  0.5052885E+02  0.7816164E-02  0.1300439E+00
        -11   -1    0    0    0    0  0.00000000000E+00  0.00000000000E+00  0.45593999997E+02  0.45594000000E+02  0.51100000000E-03 0. -1.
         11   -1    0    0    0    0 -0.00000000000E+00 -0.00000000000E+00 -0.45593999997E+02  0.45594000000E+02  0.51100000000E-03 0.  1.
    9900012    2    1    2    0    0 -0.30508955948E+02 -0.62389634818E+01  0.26142784924E+02  0.50528852666E+02  0.29999978162E+02 0.  0.
        -12    1    1    2    0    0  0.30508955948E+02  0.62389634818E+01 -0.26142784924E+02  0.40659147334E+02  0.00000000000E+00 0.  1.
         11    1    3    3    0    0 -0.19000857339E+02 -0.12379643801E+02  0.16639986697E+02  0.28127874392E+02  0.51100000000E-03 0. -1.
        -11    1    3    3    0    0  0.31325873700E+01  0.22949226097E+01 -0.95932773230E+00  0.40000104217E+01  0.51100000000E-03 0.  1.
         12    1    3    3    0    0 -0.14640685979E+02  0.38457577098E+01  0.10462125959E+02  0.18400967852E+02  0.00000000000E+00 0. -1.
</event>
<event>
 7    1  0.4963616E-011  0.5052885E+02  0.7816164E-02  0.1300439E+00
        -11   -1    0    0    0    0  0.00000000000E+00  0.00000000000E+00  0.45593999997E+02  0.45594000000E+02  0.51100000000E-03 0.  1.
         11   -1    0    0    0    0 -0.00000000000E+00 -0.00000000000E+00 -0.45593999997E+02  0.45594000000E+02  0.51100000000E-03 0. -1.
    9900012    2    1    2    0    0  0.28812025264E+00 -0.30549017649E+02 -0.26829845609E+02  0.50528854559E+02  0.29999983916E+02 0.  0.
        -12    1    1    2    0    0 -0.28812025264E+00  0.30549017649E+02  0.26829845609E+02  0.40659145441E+02  0.00000000000E+00 0.  1.
         11    1    3    3    0    0  0.35212380723E+01 -0.29657446825E+01 -0.41924036678E+01  0.62266369621E+01  0.51100000000E-03 0. -1.
        -11    1    3    3    0    0 -0.11724678602E+02 -0.25856787034E+02 -0.21391765904E+02  0.35547843434E+02  0.51100000000E-03 0.  1.
        -12    1    3    3    0    0  0.84915607819E+01 -0.17264859321E+01 -0.12456760374E+01  0.87543741625E+01  0.00000000000E+00 0.  1.
</event>
<event>
 7    1  0.4963616E-011  0.5052886E+02  0.7816164E-02  0.1300439E+00
        -11   -1    0    0    0    0  0.00000000000E+00  0.00000000000E+00  0.45593999997E+02  0.45594000000E+02  0.51100000000E-03 0.  1.
         11   -1    0    0    0    0 -0.00000000000E+00 -0.00000000000E+00 -0.45593999997E+02  0.45594000000E+02  0.51100000000E-03 0. -1.
    9900012    2    1    2    0    0 -0.10493820265E+01  0.29909103433E+02 -0.27522898741E+02  0.50528860487E+02  0.30000001937E+02 0.  0.
        -12    1    1    2    0    0  0.10493820265E+01 -0.29909103433E+02  0.27522898741E+02  0.40659139513E+02  0.00000000000E+00 0.  1.
         11    1    3    3    0    0 -0.21903075014E+01 -0.48795584652E+00 -0.12327587949E+02  0.12530162520E+02  0.51100000000E-03 0. -1.
        -11    1    3    3    0    0 -0.59718575411E+01  0.20457928685E+02 -0.45530616287E+01  0.21792666176E+02  0.51100000000E-03 0.  1.
         12    1    3    3    0    0  0.71127830161E+01  0.99391305943E+01 -0.10642249163E+02  0.16206031792E+02  0.00000000000E+00 0. -1.
</event>
<event>
 7    1  0.4963616E-011  0.5052887E+02  0.7816164E-02  0.1300439E+00
        -11   -1    0    0    0    0  0.00000000000E+00  0.00000000000E+00  0.45593999997E+02  0.45594000000E+02  0.51100000000E-03 0.  1.
         11   -1    0    0    0    0 -0.00000000000E+00 -0.00000000000E+00 -0.45593999997E+02  0.45594000000E+02  0.51100000000E-03 0. -1.
    9900012    2    1    2    0    0  0.86670947024E+01  0.38507042569E+02 -0.97598132474E+01  0.50528870488E+02  0.30000032336E+02 0.  0.
        -12    1    1    2    0    0 -0.86670947024E+01 -0.38507042569E+02  0.97598132474E+01  0.40659129512E+02  0.00000000000E+00 0.  1.
         11    1    3    3    0    0  0.16145288734E+02  0.10930895200E+02 -0.95298118001E+01  0.21701892346E+02  0.51100000000E-03 0. -1.
        -11    1    3    3    0    0 -0.19729547131E+01  0.80274939663E+01 -0.17904478194E+01  0.84580679433E+01  0.51100000000E-03 0.  1.
         12    1    3    3    0    0 -0.55052393186E+01  0.19548653403E+02  0.15604463721E+01  0.20368910199E+02  0.00000000000E+00 0. -1.
</event>
<event>
 7    1  0.4963616E-011  0.5052887E+02  0.7816164E-02  0.1300439E+00
        -11   -1    0    0    0    0  0.00000000000E+00  0.00000000000E+00  0.45593999997E+02  0.45594000000E+02  0.51100000000E-03 0.  1.
         11   -1    0    0    0    0 -0.00000000000E+00 -0.00000000000E+00 -0.45593999997E+02  0.45594000000E+02  0.51100000000E-03 0. -1.
    9900012    2    1    2    0    0  0.22748077283E+02 -0.21559795755E+02 -0.25901061157E+02  0.50528870863E+02  0.30000033476E+02 0.  0.
        -12    1    1    2    0    0 -0.22748077283E+02  0.21559795755E+02  0.25901061157E+02  0.40659129137E+02  0.00000000000E+00 0.  1.
         11    1    3    3    0    0  0.10843131518E+02  0.30790303552E+01 -0.10109455838E+02  0.15141169923E+02  0.51100000000E-03 0. -1.
        -11    1    3    3    0    0  0.73558456152E+01 -0.10573234000E+02  0.11163053356E+01  0.12928568358E+02  0.51100000000E-03 0.  1.
         12    1    3    3    0    0  0.45491001498E+01 -0.14065592110E+02 -0.16907910655E+02  0.22459132581E+02  0.00000000000E+00 0. -1.
</event>
<event>
 7    1  0.4963616E-011  0.5052886E+02  0.7816164E-02  0.1300439E+00
        -11   -1    0    0    0    0  0.00000000000E+00  0.00000000000E+00  0.45593999997E+02  0.45594000000E+02  0.51100000000E-03 0. -1.
         11   -1    0    0    0    0 -0.00000000000E+00 -0.00000000000E+00 -0.45593999997E+02  0.45594000000E+02  0.51100000000E-03 0.  1.
    9900012    2    1    2    0    0  0.39972300230E+02  0.36921091807E+01  0.64613662465E+01  0.50528859458E+02  0.29999998808E+02 0.  0.
        -12    1    1    2    0    0 -0.39972300230E+02 -0.36921091807E+01 -0.64613662465E+01  0.40659140542E+02  0.00000000000E+00 0.  1.
         11    1    3    3    0    0  0.17171576812E+02 -0.57971836891E+01  0.13999098525E+02  0.22900767426E+02  0.51100000000E-03 0. -1.
        -11    1    3    3    0    0 -0.44835569753E+00  0.15164853978E+00  0.10429141996E+01  0.11452905308E+01  0.51100000000E-03 0.  1.
         12    1    3    3    0    0  0.23249079116E+02  0.93376443300E+01 -0.85806464780E+01  0.26482801501E+02  0.00000000000E+00 0. -1.
</event>
<event>
 7    1  0.4963616E-011  0.5052886E+02  0.7816164E-02  0.1300439E+00
        -11   -1    0    0    0    0  0.00000000000E+00  0.00000000000E+00  0.45593999997E+02  0.45594000000E+02  0.51100000000E-03 0.  1.
         11   -1    0    0    0    0 -0.00000000000E+00 -0.00000000000E+00 -0.45593999997E+02  0.45594000000E+02  0.51100000000E-03 0. -1.
    9900012    2    1    2    0    0  0.20497883844E+02 -0.29422299876E+02 -0.19165874474E+02  0.50528859374E+02  0.29999998554E+02 0.  0.
        -12    1    1    2    0    0 -0.20497883844E+02  0.29422299876E+02  0.19165874474E+02  0.40659140626E+02  0.00000000000E+00 0.  1.
         11    1    3    3    0    0  0.52336821326E+01 -0.12237284350E+02  0.43821017905E+01  0.14012329332E+02  0.51100000000E-03 0. -1.
        -11    1    3    3    0    0  0.59521099028E+01  0.13573391704E+01 -0.10063650530E+02  0.11770600842E+02  0.51100000000E-03 0.  1.
        -12    1    3    3    0    0  0.93120918088E+01 -0.18542354696E+02 -0.13484325734E+02  0.24745929201E+02  0.00000000000E+00 0.  1.
</event>
<event>
 7    1  0.4963616E-011  0.5052893E+02  0.7816164E-02  0.1300439E+00
        -11   -1    0    0    0    0  0.00000000000E+00  0.00000000000E+00  0.45593999997E+02  0.45594000000E+02  0.51100000000E-03 0.  1.
         11   -1    0    0    0    0 -0.00000000000E+00 -0.00000000000E+00 -0.45593999997E+02  0.45594000000E+02  0.51100000000E-03 0. -1.
    9900012    2    1    2    0    0 -0.82070691958E+01 -0.25797617299E+02 -0.30336235093E+02  0.50528927178E+02  0.30000204650E+02 0.  0.
        -12    1    1    2    0    0  0.82070691958E+01  0.25797617299E+02  0.30336235093E+02  0.40659072822E+02  0.00000000000E+00 0.  1.
         11    1    3    3    0    0 -0.35962647262E+01 -0.30197452060E+02 -0.25423942901E+02  0.39638316107E+02  0.51100000000E-03 0. -1.
        -11    1    3    3    0    0  0.20006739132E+01  0.74708607636E+00 -0.73192775857E+00  0.22575544772E+01  0.51100000000E-03 0.  1.
         12    1    3    3    0    0 -0.66114783828E+01  0.36527486843E+01 -0.41803644337E+01  0.86330565940E+01  0.00000000000E+00 0. -1.
</event>
<event>
 7    1  0.4963616E-011  0.5052886E+02  0.7816164E-02  0.1300439E+00
        -11   -1    0    0    0    0  0.00000000000E+00  0.00000000000E+00  0.45593999997E+02  0.45594000000E+02  0.51100000000E-03 0.  1.
         11   -1    0    0    0    0 -0.00000000000E+00 -0.00000000000E+00 -0.45593999997E+02  0.45594000000E+02  0.51100000000E-03 0. -1.
    9900012    2    1    2    0    0  0.12221576565E+01 -0.15134872778E+02 -0.37717471558E+02  0.50528859526E+02  0.29999999016E+02 0.  0.
        -12    1    1    2    0    0 -0.12221576565E+01  0.15134872778E+02  0.37717471558E+02  0.40659140474E+02  0.00000000000E+00 0.  1.
         11    1    3    3    0    0  0.38862454098E+01 -0.58915182943E+01 -0.29200302531E+00  0.70638627694E+01  0.51100000000E-03 0.  1.
        -11    1    3    3    0    0  0.33503329546E+01 -0.11284199016E+02 -0.34536893048E+02  0.36487735747E+02  0.51100000000E-03 0. -1.
         12    1    3    3    0    0 -0.60144207079E+01  0.20408445324E+01 -0.28885754853E+01  0.69772610093E+01  0.00000000000E+00 0. -1.
</event>
<event>
 7    1  0.4963616E-011  0.5052887E+02  0.7816164E-02  0.1300439E+00
        -11   -1    0    0    0    0  0.00000000000E+00  0.00000000000E+00  0.45593999997E+02  0.45594000000E+02  0.51100000000E-03 0.  1.
         11   -1    0    0    0    0 -0.00000000000E+00 -0.00000000000E+00 -0.45593999997E+02  0.45594000000E+02  0.51100000000E-03 0. -1.
    9900012    2    1    2    0    0  0.91667867815E+01 -0.23763467885E+01 -0.39540967956E+02  0.50528866329E+02  0.30000019695E+02 0.  0.
        -12    1    1    2    0    0 -0.91667867815E+01  0.23763467885E+01  0.39540967956E+02  0.40659133671E+02  0.00000000000E+00 0.  1.
         11    1    3    3    0    0  0.70960302031E+01  0.19636949359E+01 -0.32916875534E+02  0.33730259970E+02  0.51100000000E-03 0. -1.
        -11    1    3    3    0    0 -0.21006710615E+01 -0.87713142661E+01 -0.22261596152E+01  0.92900247447E+01  0.51100000000E-03 0.  1.
        -12    1    3    3    0    0  0.41714276399E+01  0.44312725417E+01 -0.43979328063E+01  0.75085816146E+01  0.00000000000E+00 0.  1.
</event>
<event>
 7    1  0.4963616E-011  0.5052886E+02  0.7816164E-02  0.1300439E+00
        -11   -1    0    0    0    0  0.00000000000E+00  0.00000000000E+00  0.45593999997E+02  0.45594000000E+02  0.51100000000E-03 0.  1.
         11   -1    0    0    0    0 -0.00000000000E+00 -0.00000000000E+00 -0.45593999997E+02  0.45594000000E+02  0.51100000000E-03 0. -1.
    9900012    2    1    2    0    0  0.21177534300E+02  0.67416016525E+01 -0.34047439100E+02  0.50528864974E+02  0.30000015574E+02 0.  0.
        -12    1    1    2    0    0 -0.21177534300E+02 -0.67416016525E+01  0.34047439100E+02  0.40659135026E+02  0.00000000000E+00 0.  1.
         11    1    3    3    0    0 -0.40461771967E+01  0.38603225657E-01 -0.92315678118E+01  0.10079428785E+02  0.51100000000E-03 0. -1.
        -11    1    3    3    0    0  0.14034280528E+02 -0.48480405827E+01 -0.68956680200E+01  0.16371156500E+02  0.51100000000E-03 0.  1.
        -12    1    3    3    0    0  0.11189430968E+02  0.11551039010E+02 -0.17920203268E+02  0.24078279689E+02  0.00000000000E+00 0.  1.
</event>
<event>
 7    1  0.4963616E-011  0.5052887E+02  0.7816164E-02  0.1300439E+00
        -11   -1    0    0    0    0  0.00000000000E+00  0.00000000000E+00  0.45593999997E+02  0.45594000000E+02  0.51100000000E-03 0.  1.
         11   -1    0    0    0    0 -0.00000000000E+00 -0.00000000000E+00 -0.45593999997E+02  0.45594000000E+02  0.51100000000E-03 0. -1.
    9900012    2    1    2    0    0  0.16685441517E+02  0.36806460376E+02 -0.44772344935E+01  0.50528866797E+02  0.30000021118E+02 0.  0.
        -12    1    1    2    0    0 -0.16685441517E+02 -0.36806460376E+02  0.44772344935E+01  0.40659133203E+02  0.00000000000E+00 0.  1.
         11    1    3    3    0    0  0.17494409093E+01  0.33264704797E+01 -0.11029486775E+02  0.11652275663E+02  0.51100000000E-03 0. -1.
        -11    1    3    3    0    0  0.10086552721E+02  0.12845281402E+02  0.67670805421E+01  0.17678607960E+02  0.51100000000E-03 0.  1.
        -12    1    3    3    0    0  0.48494478874E+01  0.20634708495E+02 -0.21482826056E+00  0.21197983174E+02  0.00000000000E+00 0.  1.
</event>
<event>
 7    1  0.4963616E-011  0.5052886E+02  0.7816164E-02  0.1300439E+00
        -11   -1    0    0    0    0  0.00000000000E+00  0.00000000000E+00  0.45593999997E+02  0.45594000000E+02  0.51100000000E-03 0.  1.
         11   -1    0    0    0    0 -0.00000000000E+00 -0.00000000000E+00 -0.45593999997E+02  0.45594000000E+02  0.51100000000E-03 0. -1.
    9900012    2    1    2    0    0  0.11451857207E+02  0.38579270924E+02 -0.58017378199E+01  0.50528864001E+02  0.30000012617E+02 0.  0.
        -12    1    1    2    0    0 -0.11451857207E+02 -0.38579270924E+02  0.58017378199E+01  0.40659135999E+02  0.00000000000E+00 0.  1.
         11    1    3    3    0    0 -0.52816559713E+01  0.67347596798E+01  0.56937493035E+01  0.10279672132E+02  0.51100000000E-03 0. -1.
        -11    1    3    3    0    0  0.13607904017E+02  0.31006107615E+02 -0.67845035451E+01  0.34533798659E+02  0.51100000000E-03 0.  1.
        -12    1    3    3    0    0  0.31256091610E+01  0.83840362828E+00 -0.47109835783E+01  0.57153932101E+01  0.00000000000E+00 0.  1.
</event>
<event>
 7    1  0.4963616E-011  0.5052886E+02  0.7816164E-02  0.1300439E+00
        -11   -1    0    0    0    0  0.00000000000E+00  0.00000000000E+00  0.45593999997E+02  0.45594000000E+02  0.51100000000E-03 0. -1.
         11   -1    0    0    0    0 -0.00000000000E+00 -0.00000000000E+00 -0.45593999997E+02  0.45594000000E+02  0.51100000000E-03 0.  1.
    9900012    2    1    2    0    0 -0.12253990506E+02  0.38239460002E+02  0.63834938847E+01  0.50528861067E+02  0.30000003699E+02 0.  0.
        -12    1    1    2    0    0  0.12253990506E+02 -0.38239460002E+02 -0.63834938847E+01  0.40659138933E+02  0.00000000000E+00 0.  1.
         11    1    3    3    0    0 -0.67742054831E+01  0.19661093929E+02  0.63634786584E+01  0.21747237418E+02  0.51100000000E-03 0. -1.
        -11    1    3    3    0    0 -0.99303285774E+00 -0.23932066338E+01  0.59846444508E+01  0.65214662241E+01  0.51100000000E-03 0.  1.
        -12    1    3    3    0    0 -0.44867521653E+01  0.20971572707E+02 -0.59646292245E+01  0.22260157425E+02  0.00000000000E+00 0.  1.
</event>
<event>
 7    1  0.4963616E-011  0.5052887E+02  0.7816164E-02  0.1300439E+00
        -11   -1    0    0    0    0  0.00000000000E+00  0.00000000000E+00  0.45593999997E+02  0.45594000000E+02  0.51100000000E-03 0. -1.
         11   -1    0    0    0    0 -0.00000000000E+00 -0.00000000000E+00 -0.45593999997E+02  0.45594000000E+02  0.51100000000E-03 0.  1.
    9900012    2    1    2    0    0 -0.12148435040E+02  0.45785727410E+01  0.38530729122E+02  0.50528869550E+02  0.30000029485E+02 0.  0.
        -12    1    1    2    0    0  0.12148435040E+02 -0.45785727410E+01 -0.38530729122E+02  0.40659130450E+02  0.00000000000E+00 0.  1.
         11    1    3    3    0    0  0.87171149287E+01  0.29660952185E+01  0.14459832218E+02  0.17142711616E+02  0.51100000000E-03 0. -1.
        -11    1    3    3    0    0 -0.50973010819E+01  0.42402121903E+01  0.10493146460E+02  0.12412413167E+02  0.51100000000E-03 0.  1.
         12    1    3    3    0    0 -0.15768248886E+02 -0.26277346678E+01  0.13577750444E+02  0.20973744767E+02  0.00000000000E+00 0. -1.
</event>
<event>
 7    1  0.4963616E-011  0.5052887E+02  0.7816164E-02  0.1300439E+00
        -11   -1    0    0    0    0  0.00000000000E+00  0.00000000000E+00  0.45593999997E+02  0.45594000000E+02  0.51100000000E-03 0.  1.
         11   -1    0    0    0    0 -0.00000000000E+00 -0.00000000000E+00 -0.45593999997E+02  0.45594000000E+02  0.51100000000E-03 0. -1.
    9900012    2    1    2    0    0 -0.45762961591E+01  0.31632952668E+02 -0.25131223375E+02  0.50528873480E+02  0.30000041430E+02 0.  0.
        -12    1    1    2    0    0  0.45762961591E+01 -0.31632952668E+02  0.25131223375E+02  0.40659126520E+02  0.00000000000E+00 0.  1.
         11    1    3    3    0    0 -0.73364322442E+01  0.18901998418E+02 -0.17352081913E+02  0.26687141647E+02  0.51100000000E-03 0. -1.
        -11    1    3    3    0    0 -0.46615180855E+01 -0.26199076782E+01 -0.75315863965E+00  0.54000847495E+01  0.51100000000E-03 0.  1.
        -12    1    3    3    0    0  0.74216541706E+01  0.15350861928E+02 -0.70259828221E+01  0.18441647084E+02  0.00000000000E+00 0.  1.
</event>
<event>
 7    1  0.4963616E-011  0.5052885E+02  0.7816164E-02  0.1300439E+00
        -11   -1    0    0    0    0  0.00000000000E+00  0.00000000000E+00  0.45593999997E+02  0.45594000000E+02  0.51100000000E-03 0. -1.
         11   -1    0    0    0    0 -0.00000000000E+00 -0.00000000000E+00 -0.45593999997E+02  0.45594000000E+02  0.51100000000E-03 0.  1.
    9900012    2    1    2    0    0 -0.84401812822E+01 -0.12614345467E+02  0.37720124920E+02  0.50528853481E+02  0.29999980641E+02 0.  0.
        -12    1    1    2    0    0  0.84401812822E+01  0.12614345467E+02 -0.37720124920E+02  0.40659146519E+02  0.00000000000E+00 0.  1.
         11    1    3    3    0    0  0.41314680060E+01  0.55039154171E-02  0.25259704779E+02  0.25595346139E+02  0.51100000000E-03 0. -1.
        -11    1    3    3    0    0 -0.85494133783E+01 -0.13476547502E+02  0.55596760986E+01  0.16900289946E+02  0.51100000000E-03 0.  1.
        -12    1    3    3    0    0 -0.40222359100E+01  0.85669811943E+00  0.69007440427E+01  0.80332173956E+01  0.00000000000E+00 0.  1.
</event>
<event>
 7    1  0.4963616E-011  0.5052887E+02  0.7816164E-02  0.1300439E+00
        -11   -1    0    0    0    0  0.00000000000E+00  0.00000000000E+00  0.45593999997E+02  0.45594000000E+02  0.51100000000E-03 0.  1.
         11   -1    0    0    0    0 -0.00000000000E+00 -0.00000000000E+00 -0.45593999997E+02  0.45594000000E+02  0.51100000000E-03 0. -1.
    9900012    2    1    2    0    0 -0.74608287195E+01 -0.11578499885E+02 -0.38254926411E+02  0.50528867945E+02  0.30000024605E+02 0.  0.
        -12    1    1    2    0    0  0.74608287195E+01  0.11578499885E+02  0.38254926411E+02  0.40659132055E+02  0.00000000000E+00 0.  1.
         11    1    3    3    0    0 -0.10459581314E+02  0.25857724099E+01 -0.17362890480E+02  0.20434261090E+02  0.51100000000E-03 0. -1.
        -11    1    3    3    0    0  0.30133591287E+01 -0.14643610251E+02 -0.23275478822E+02  0.27663397641E+02  0.51100000000E-03 0.  1.
        -12    1    3    3    0    0 -0.14606533900E-01  0.47933795560E+00  0.23834428906E+01  0.24312092134E+01  0.00000000000E+00 0.  1.
</event>
<event>
 7    1  0.6096200E-011  0.5052886E+02  0.7816164E-02  0.1300439E+00
        -11   -1    0    0    0    0  0.00000000000E+00  0.00000000000E+00  0.45593999997E+02  0.45594000000E+02  0.51100000000E-03 0. -1.
         11   -1    0    0    0    0 -0.00000000000E+00 -0.00000000000E+00 -0.45593999997E+02  0.45594000000E+02  0.51100000000E-03 0.  1.
    9900012    2    1    2    0    0  0.32877583267E+02  0.79908704138E+01  0.22547194980E+02  0.50528862123E+02  0.30000006910E+02 0.  0.
        -12    1    1    2    0    0 -0.32877583267E+02 -0.79908704138E+01 -0.22547194980E+02  0.40659137877E+02  0.00000000000E+00 0.  1.
         11    1    3    3    0    0  0.28793259414E+02 -0.32895082594E+01  0.15591435465E+02  0.32908441355E+02  0.51100000000E-03 0. -1.
        -11    1    3    3    0    0 -0.16181268869E+01  0.69223307991E+01  0.76096228059E+01  0.10413614062E+02  0.51100000000E-03 0.  1.
        -12    1    3    3    0    0  0.57024507393E+01  0.43580478741E+01 -0.65386329151E+00  0.72068067069E+01  0.00000000000E+00 0.  1.
</event>
<event>
 7    1  0.4963616E-011  0.5052889E+02  0.7816164E-02  0.1300439E+00
        -11   -1    0    0    0    0  0.00000000000E+00  0.00000000000E+00  0.45593999997E+02  0.45594000000E+02  0.51100000000E-03 0.  1.
         11   -1    0    0    0    0 -0.00000000000E+00 -0.00000000000E+00 -0.45593999997E+02  0.45594000000E+02  0.51100000000E-03 0. -1.
    9900012    2    1    2    0    0 -0.18313764150E+02  0.29821348623E+02 -0.20699194164E+02  0.50528887490E+02  0.30000084016E+02 0.  0.
        -12    1    1    2    0    0  0.18313764150E+02 -0.29821348623E+02  0.20699194164E+02  0.40659112510E+02  0.00000000000E+00 0.  1.
         11    1    3    3    0    0 -0.34531764692E+01 -0.43965564698E+01 -0.99426960823E+01  0.11406635883E+02  0.51100000000E-03 0.  1.
        -11    1    3    3    0    0 -0.11201871625E+02  0.25287687891E+02 -0.57454502944E+01  0.28248173147E+02  0.51100000000E-03 0. -1.
        -12    1    3    3    0    0 -0.36587160562E+01  0.89302172011E+01 -0.50110477875E+01  0.10874078461E+02  0.00000000000E+00 0.  1.
</event>
<event>
 7    1  0.4963616E-011  0.5052888E+02  0.7816164E-02  0.1300439E+00
        -11   -1    0    0    0    0  0.00000000000E+00  0.00000000000E+00  0.45593999997E+02  0.45594000000E+02  0.51100000000E-03 0.  1.
         11   -1    0    0    0    0 -0.00000000000E+00 -0.00000000000E+00 -0.45593999997E+02  0.45594000000E+02  0.51100000000E-03 0. -1.
    9900012    2    1    2    0    0  0.20727190460E+02 -0.29039278535E+02 -0.19500466019E+02  0.50528876828E+02  0.30000051606E+02 0.  0.
        -12    1    1    2    0    0 -0.20727190460E+02  0.29039278535E+02  0.19500466019E+02  0.40659123172E+02  0.00000000000E+00 0.  1.
         11    1    3    3    0    0  0.13530822737E+02 -0.26908561062E+01 -0.58551863546E+01  0.14986896878E+02  0.51100000000E-03 0. -1.
        -11    1    3    3    0    0 -0.59589240569E+01 -0.84779360776E+01 -0.22805459265E+01  0.10610611011E+02  0.51100000000E-03 0.  1.
         12    1    3    3    0    0  0.13155291780E+02 -0.17870486351E+02 -0.11364733737E+02  0.24931368939E+02  0.00000000000E+00 0. -1.
</event>
<event>
 7    1  0.4963616E-011  0.5052886E+02  0.7816164E-02  0.1300439E+00
        -11   -1    0    0    0    0  0.00000000000E+00  0.00000000000E+00  0.45593999997E+02  0.45594000000E+02  0.51100000000E-03 0.  1.
         11   -1    0    0    0    0 -0.00000000000E+00 -0.00000000000E+00 -0.45593999997E+02  0.45594000000E+02  0.51100000000E-03 0. -1.
    9900012    2    1    2    0    0  0.15395998611E+01  0.37364745613E+01 -0.40457806060E+02  0.50528859809E+02  0.29999999876E+02 0.  0.
        -12    1    1    2    0    0 -0.15395998611E+01 -0.37364745613E+01  0.40457806060E+02  0.40659140191E+02  0.00000000000E+00 0.  1.
         11    1    3    3    0    0 -0.67778218533E+01 -0.86876978449E+01 -0.23319892863E+02  0.25792098913E+02  0.51100000000E-03 0. -1.
        -11    1    3    3    0    0 -0.98795867033E+00  0.26142737022E+01  0.13860226277E+00  0.27981601406E+01  0.51100000000E-03 0.  1.
         12    1    3    3    0    0  0.93053803848E+01  0.98098987040E+01 -0.17276515460E+02  0.21938600756E+02  0.00000000000E+00 0. -1.
</event>
<event>
 7    1  0.4963616E-011  0.5052886E+02  0.7816164E-02  0.1300439E+00
        -11   -1    0    0    0    0  0.00000000000E+00  0.00000000000E+00  0.45593999997E+02  0.45594000000E+02  0.51100000000E-03 0.  1.
         11   -1    0    0    0    0 -0.00000000000E+00 -0.00000000000E+00 -0.45593999997E+02  0.45594000000E+02  0.51100000000E-03 0. -1.
    9900012    2    1    2    0    0  0.20637534748E+02 -0.17480305152E+02 -0.30359463658E+02  0.50528856596E+02  0.29999990110E+02 0.  0.
        -12    1    1    2    0    0 -0.20637534748E+02  0.17480305152E+02  0.30359463658E+02  0.40659143404E+02  0.00000000000E+00 0.  1.
         11    1    3    3    0    0  0.24401197128E+01 -0.20880866901E+02 -0.13905927425E+02  0.25205943834E+02  0.51100000000E-03 0. -1.
        -11    1    3    3    0    0  0.92625796434E+01  0.14381394093E+01 -0.48711138457E+01  0.10563681980E+02  0.51100000000E-03 0.  1.
         12    1    3    3    0    0  0.89348353917E+01  0.19624223398E+01 -0.11582422387E+02  0.14759230782E+02  0.00000000000E+00 0. -1.
</event>
<event>
 7    1  0.4963616E-011  0.5052889E+02  0.7816164E-02  0.1300439E+00
        -11   -1    0    0    0    0  0.00000000000E+00  0.00000000000E+00  0.45593999997E+02  0.45594000000E+02  0.51100000000E-03 0.  1.
         11   -1    0    0    0    0 -0.00000000000E+00 -0.00000000000E+00 -0.45593999997E+02  0.45594000000E+02  0.51100000000E-03 0. -1.
    9900012    2    1    2    0    0 -0.23305331597E+02  0.12230871369E+02 -0.30990811405E+02  0.50528891711E+02  0.30000096846E+02 0.  0.
        -12    1    1    2    0    0  0.23305331597E+02 -0.12230871369E+02  0.30990811405E+02  0.40659108289E+02  0.00000000000E+00 0.  1.
         11    1    3    3    0    0 -0.54768451136E+01 -0.93709150385E+01 -0.95358970975E+01  0.14447948462E+02  0.51100000000E-03 0. -1.
        -11    1    3    3    0    0 -0.78173780206E+01  0.82323082747E+01 -0.43042195823E+01  0.12141194551E+02  0.51100000000E-03 0.  1.
         12    1    3    3    0    0 -0.10011108463E+02  0.13369478132E+02 -0.17150694725E+02  0.23939748698E+02  0.00000000000E+00 0. -1.
</event>
<event>
 7    1  0.4963616E-011  0.5052886E+02  0.7816164E-02  0.1300439E+00
        -11   -1    0    0    0    0  0.00000000000E+00  0.00000000000E+00  0.45593999997E+02  0.45594000000E+02  0.51100000000E-03 0.  1.
         11   -1    0    0    0    0 -0.00000000000E+00 -0.00000000000E+00 -0.45593999997E+02  0.45594000000E+02  0.51100000000E-03 0. -1.
    9900012    2    1    2    0    0 -0.10043685784E+02  0.13141223694E+02 -0.37142944947E+02  0.50528859040E+02  0.29999997538E+02 0.  0.
        -12    1    1    2    0    0  0.10043685784E+02 -0.13141223694E+02  0.37142944947E+02  0.40659140960E+02  0.00000000000E+00 0.  1.
         11    1    3    3    0    0 -0.10154301601E+02  0.36442126758E+01 -0.27882394539E+02  0.29896790004E+02  0.51100000000E-03 0. -1.
        -11    1    3    3    0    0  0.35564390665E+01  0.27836350455E+01  0.35633056598E+01  0.57527411194E+01  0.51100000000E-03 0.  1.
         12    1    3    3    0    0 -0.34458232491E+01  0.67133759726E+01 -0.12823856068E+02  0.14879327917E+02  0.00000000000E+00 0. -1.
</event>
<event>
 7    1  0.4963616E-011  0.5052886E+02  0.7816164E-02  0.1300439E+00
        -11   -1    0    0    0    0  0.00000000000E+00  0.00000000000E+00  0.45593999997E+02  0.45594000000E+02  0.51100000000E-03 0.  1.
         11   -1    0    0    0    0 -0.00000000000E+00 -0.00000000000E+00 -0.45593999997E+02  0.45594000000E+02  0.51100000000E-03 0. -1.
    9900012    2    1    2    0    0  0.12377582124E+02 -0.25645491989E+02 -0.29021880810E+02  0.50528863704E+02  0.30000011715E+02 0.  0.
        -12    1    1    2    0    0 -0.12377582124E+02  0.25645491989E+02  0.29021880810E+02  0.40659136296E+02  0.00000000000E+00 0.  1.
         11    1    3    3    0    0  0.24207916947E+01 -0.21993459810E+02 -0.27219013413E+02  0.35077730803E+02  0.51100000000E-03 0. -1.
        -11    1    3    3    0    0  0.11235307360E+02 -0.39739469238E+01 -0.42655206884E+01  0.12657766495E+02  0.51100000000E-03 0.  1.
        -12    1    3    3    0    0 -0.12785169315E+01  0.32191474575E+00  0.24626532908E+01  0.27933664060E+01  0.00000000000E+00 0.  1.
</event>
<event>
 7    1  0.4963616E-011  0.5052884E+02  0.7816164E-02  0.1300439E+00
        -11   -1    0    0    0    0  0.00000000000E+00  0.00000000000E+00  0.45593999997E+02  0.45594000000E+02  0.51100000000E-03 0.  1.
         11   -1    0    0    0    0 -0.00000000000E+00 -0.00000000000E+00 -0.45593999997E+02  0.45594000000E+02  0.51100000000E-03 0. -1.
    9900012    2    1    2    0    0  0.26374597756E+02 -0.18665221847E+02  0.24681116338E+02  0.50528838461E+02  0.29999934986E+02 0.  0.
        -12    1    1    2    0    0 -0.26374597756E+02  0.18665221847E+02 -0.24681116338E+02  0.40659161539E+02  0.00000000000E+00 0.  1.
         11    1    3    3    0    0  0.28308390822E+02 -0.15570728480E+02  0.11515900731E+02  0.34299104161E+02  0.51100000000E-03 0. -1.
        -11    1    3    3    0    0  0.28862085574E+01  0.10823561992E+01  0.49156817150E+01  0.58022083522E+01  0.51100000000E-03 0.  1.
         12    1    3    3    0    0 -0.48200016241E+01 -0.41768495657E+01  0.82495338921E+01  0.10427525948E+02  0.00000000000E+00 0. -1.
</event>
<event>
 7    1  0.4963616E-011  0.5052887E+02  0.7816164E-02  0.1300439E+00
        -11   -1    0    0    0    0  0.00000000000E+00  0.00000000000E+00  0.45593999997E+02  0.45594000000E+02  0.51100000000E-03 0. -1.
         11   -1    0    0    0    0 -0.00000000000E+00 -0.00000000000E+00 -0.45593999997E+02  0.45594000000E+02  0.51100000000E-03 0.  1.
    9900012    2    1    2    0    0  0.20212200499E+01 -0.13481402098E+02  0.38305761013E+02  0.50528869908E+02  0.30000030573E+02 0.  0.
        -12    1    1    2    0    0 -0.20212200499E+01  0.13481402098E+02 -0.38305761013E+02  0.40659130092E+02  0.00000000000E+00 0.  1.
         11    1    3    3    0    0  0.71412827754E+01 -0.23683243044E+01  0.27830111330E+02  0.28829186193E+02  0.51100000000E-03 0.  1.
        -11    1    3    3    0    0 -0.81703829930E+01 -0.12823798192E+02  0.99285172041E+01  0.18159857170E+02  0.51100000000E-03 0. -1.
        -12    1    3    3    0    0  0.30503202676E+01  0.17107203982E+01  0.54713247948E+00  0.35398265446E+01  0.00000000000E+00 0.  1.
</event>
<event>
 7    1  0.4963616E-011  0.5052886E+02  0.7816164E-02  0.1300439E+00
        -11   -1    0    0    0    0  0.00000000000E+00  0.00000000000E+00  0.45593999997E+02  0.45594000000E+02  0.51100000000E-03 0.  1.
         11   -1    0    0    0    0 -0.00000000000E+00 -0.00000000000E+00 -0.45593999997E+02  0.45594000000E+02  0.51100000000E-03 0. -1.
    9900012    2    1    2    0    0 -0.27706331041E+02  0.23198475644E+02 -0.18637483265E+02  0.50528857924E+02  0.29999994145E+02 0.  0.
        -12    1    1    2    0    0  0.27706331041E+02 -0.23198475644E+02  0.18637483265E+02  0.40659142076E+02  0.00000000000E+00 0.  1.
         11    1    3    3    0    0  0.23029615167E+01  0.22339945522E+01 -0.18139737074E+01  0.36857650873E+01  0.51100000000E-03 0. -1.
        -11    1    3    3    0    0 -0.19584574598E+02  0.18698200137E+02 -0.22090789410E+02  0.34945403526E+02  0.51100000000E-03 0.  1.
        -12    1    3    3    0    0 -0.10424717959E+02  0.22662809551E+01  0.52672798525E+01  0.11897689311E+02  0.00000000000E+00 0.  1.
</event>
<event>
 7    1  0.4963616E-011  0.5052884E+02  0.7816164E-02  0.1300439E+00
        -11   -1    0    0    0    0  0.00000000000E+00  0.00000000000E+00  0.45593999997E+02  0.45594000000E+02  0.51100000000E-03 0. -1.
         11   -1    0    0    0    0 -0.00000000000E+00 -0.00000000000E+00 -0.45593999997E+02  0.45594000000E+02  0.51100000000E-03 0.  1.
    9900012    2    1    2    0    0 -0.28518564071E+02 -0.22663883207E+02  0.18061202021E+02  0.50528842149E+02  0.29999946197E+02 0.  0.
        -12    1    1    2    0    0  0.28518564071E+02  0.22663883207E+02 -0.18061202021E+02  0.40659157851E+02  0.00000000000E+00 0.  1.
         11    1    3    3    0    0 -0.57132721844E+01 -0.11070350608E+02  0.11331354386E+02  0.16840241511E+02  0.51100000000E-03 0. -1.
        -11    1    3    3    0    0 -0.18045634068E+02 -0.12625579270E+02 -0.35549767593E+01  0.22308922450E+02  0.51100000000E-03 0.  1.
        -12    1    3    3    0    0 -0.47596578178E+01  0.10320466714E+01  0.10284824394E+02  0.11379678189E+02  0.00000000000E+00 0.  1.
</event>
<event>
 7    1  0.4963616E-011  0.5052886E+02  0.7816164E-02  0.1300439E+00
        -11   -1    0    0    0    0  0.00000000000E+00  0.00000000000E+00  0.45593999997E+02  0.45594000000E+02  0.51100000000E-03 0. -1.
         11   -1    0    0    0    0 -0.00000000000E+00 -0.00000000000E+00 -0.45593999997E+02  0.45594000000E+02  0.51100000000E-03 0.  1.
    9900012    2    1    2    0    0  0.36325654455E+02 -0.12451094851E+02  0.13363498974E+02  0.50528855402E+02  0.29999986480E+02 0.  0.
        -12    1    1    2    0    0 -0.36325654455E+02  0.12451094851E+02 -0.13363498974E+02  0.40659144598E+02  0.00000000000E+00 0.  1.
         11    1    3    3    0    0  0.28771728195E+02 -0.15197906148E+01  0.18491371363E+02  0.34235258462E+02  0.51100000000E-03 0. -1.
        -11    1    3    3    0    0  0.89771115206E+01 -0.75773584718E+01 -0.45820933988E+01  0.12609538962E+02  0.51100000000E-03 0.  1.
         12    1    3    3    0    0 -0.14231852602E+01 -0.33539457649E+01 -0.54577899004E+00  0.36840579779E+01  0.00000000000E+00 0. -1.
</event>
<event>
 7    1  0.4963616E-011  0.5052887E+02  0.7816164E-02  0.1300439E+00
        -11   -1    0    0    0    0  0.00000000000E+00  0.00000000000E+00  0.45593999997E+02  0.45594000000E+02  0.51100000000E-03 0.  1.
         11   -1    0    0    0    0 -0.00000000000E+00 -0.00000000000E+00 -0.45593999997E+02  0.45594000000E+02  0.51100000000E-03 0. -1.
    9900012    2    1    2    0    0 -0.22636512975E+02  0.27088079854E+02 -0.20173961524E+02  0.50528874168E+02  0.30000043521E+02 0.  0.
        -12    1    1    2    0    0  0.22636512975E+02 -0.27088079854E+02  0.20173961524E+02  0.40659125832E+02  0.00000000000E+00 0.  1.
         11    1    3    3    0    0 -0.34635374263E+01  0.21081873476E+02 -0.16836748456E+01  0.21430731253E+02  0.51100000000E-03 0. -1.
        -11    1    3    3    0    0 -0.11435182627E+02  0.10928847296E+01 -0.44254909718E+01  0.12310270889E+02  0.51100000000E-03 0.  1.
        -12    1    3    3    0    0 -0.77377929218E+01  0.49133216481E+01 -0.14064795706E+02  0.16787872027E+02  0.00000000000E+00 0.  1.
</event>
<event>
 7    1  0.4963616E-011  0.5052887E+02  0.7816164E-02  0.1300439E+00
        -11   -1    0    0    0    0  0.00000000000E+00  0.00000000000E+00  0.45593999997E+02  0.45594000000E+02  0.51100000000E-03 0.  1.
         11   -1    0    0    0    0 -0.00000000000E+00 -0.00000000000E+00 -0.45593999997E+02  0.45594000000E+02  0.51100000000E-03 0. -1.
    9900012    2    1    2    0    0  0.43122688681E+01 -0.16229878287E+02 -0.37029182559E+02  0.50528868517E+02  0.30000026343E+02 0.  0.
        -12    1    1    2    0    0 -0.43122688681E+01  0.16229878287E+02  0.37029182559E+02  0.40659131483E+02  0.00000000000E+00 0.  1.
         11    1    3    3    0    0  0.13329007004E+02 -0.61046441798E+01 -0.26039509433E+02  0.29882857294E+02  0.51100000000E-03 0. -1.
        -11    1    3    3    0    0 -0.63267342017E+01 -0.91210107034E+01 -0.13034697762E+02  0.17120857102E+02  0.51100000000E-03 0.  1.
         12    1    3    3    0    0 -0.26900039342E+01 -0.10042234034E+01  0.20450246362E+01  0.35251541204E+01  0.00000000000E+00 0. -1.
</event>
<event>
 7    1  0.4963616E-011  0.5052885E+02  0.7816164E-02  0.1300439E+00
        -11   -1    0    0    0    0  0.00000000000E+00  0.00000000000E+00  0.45593999997E+02  0.45594000000E+02  0.51100000000E-03 0. -1.
         11   -1    0    0    0    0 -0.00000000000E+00 -0.00000000000E+00 -0.45593999997E+02  0.45594000000E+02  0.51100000000E-03 0.  1.
    9900012    2    1    2    0    0 -0.77211578542E+01  0.29333467441E+02  0.27075773600E+02  0.50528854575E+02  0.29999983965E+02 0.  0.
        -12    1    1    2    0    0  0.77211578542E+01 -0.29333467441E+02 -0.27075773600E+02  0.40659145425E+02  0.00000000000E+00 0.  1.
         11    1    3    3    0    0 -0.65231644164E+01 -0.13098773732E+01  0.81346471874E+01  0.10509040768E+02  0.51100000000E-03 0. -1.
        -11    1    3    3    0    0  0.53746465244E+01  0.24924129022E+02  0.18096660189E+02  0.31266405982E+02  0.51100000000E-03 0.  1.
         12    1    3    3    0    0 -0.65726399622E+01  0.57192157921E+01  0.84446622292E+00  0.87534078250E+01  0.00000000000E+00 0. -1.
</event>
<event>
 7    1  0.4963616E-011  0.5052886E+02  0.7816164E-02  0.1300439E+00
        -11   -1    0    0    0    0  0.00000000000E+00  0.00000000000E+00  0.45593999997E+02  0.45594000000E+02  0.51100000000E-03 0.  1.
         11   -1    0    0    0    0 -0.00000000000E+00 -0.00000000000E+00 -0.45593999997E+02  0.45594000000E+02  0.51100000000E-03 0. -1.
    9900012    2    1    2    0    0  0.28150962407E+02  0.28955161984E+02  0.47209912665E+01  0.50528857750E+02  0.29999993617E+02 0.  0.
        -12    1    1    2    0    0 -0.28150962407E+02 -0.28955161984E+02 -0.47209912665E+01  0.40659142250E+02  0.00000000000E+00 0.  1.
         11    1    3    3    0    0  0.20851587759E+02  0.20056333921E+02  0.13052308028E+02  0.31739691044E+02  0.51100000000E-03 0. -1.
        -11    1    3    3    0    0 -0.30507173496E+01  0.31456156948E+01 -0.46479940285E+01  0.63879279266E+01  0.51100000000E-03 0.  1.
        -12    1    3    3    0    0  0.10350091998E+02  0.57532123676E+01 -0.36833227334E+01  0.12401238780E+02  0.00000000000E+00 0.  1.
</event>
<event>
 7    1  0.4963616E-011  0.5052886E+02  0.7816164E-02  0.1300439E+00
        -11   -1    0    0    0    0  0.00000000000E+00  0.00000000000E+00  0.45593999997E+02  0.45594000000E+02  0.51100000000E-03 0. -1.
         11   -1    0    0    0    0 -0.00000000000E+00 -0.00000000000E+00 -0.45593999997E+02  0.45594000000E+02  0.51100000000E-03 0.  1.
    9900012    2    1    2    0    0 -0.27726858473E+02 -0.19750294336E+02  0.22233145445E+02  0.50528861254E+02  0.30000004269E+02 0.  0.
        -12    1    1    2    0    0  0.27726858473E+02  0.19750294336E+02 -0.22233145445E+02  0.40659138746E+02  0.00000000000E+00 0.  1.
         11    1    3    3    0    0 -0.93921193230E+01  0.53237866912E+01  0.40182584521E+01  0.11519592500E+02  0.51100000000E-03 0.  1.
        -11    1    3    3    0    0 -0.17136453457E+02 -0.22394792808E+02  0.94093157789E+01  0.29727428508E+02  0.51100000000E-03 0. -1.
         12    1    3    3    0    0 -0.11982856937E+01 -0.26792882192E+01  0.88055712139E+01  0.92818402468E+01  0.00000000000E+00 0. -1.
</event>
<event>
 7    1  0.4963616E-011  0.5052888E+02  0.7816164E-02  0.1300439E+00
        -11   -1    0    0    0    0  0.00000000000E+00  0.00000000000E+00  0.45593999997E+02  0.45594000000E+02  0.51100000000E-03 0.  1.
         11   -1    0    0    0    0 -0.00000000000E+00 -0.00000000000E+00 -0.45593999997E+02  0.45594000000E+02  0.51100000000E-03 0. -1.
    9900012    2    1    2    0    0 -0.31972966613E+02 -0.24218247186E+02 -0.66610663560E+01  0.50528881763E+02  0.30000066606E+02 0.  0.
        -12    1    1    2    0    0  0.31972966613E+02  0.24218247186E+02  0.66610663560E+01  0.40659118237E+02  0.00000000000E+00 0.  1.
         11    1    3    3    0    0 -0.25949305096E+02 -0.13146470338E+02  0.40154287671E+01  0.29365281980E+02  0.51100000000E-03 0.  1.
        -11    1    3    3    0    0 -0.53472160897E+01  0.47355992657E+00 -0.74023228753E+01  0.91439249300E+01  0.51100000000E-03 0. -1.
         12    1    3    3    0    0 -0.67644542763E+00 -0.11545336775E+02 -0.32741722477E+01  0.12019674853E+02  0.00000000000E+00 0. -1.
</event>
<event>
 7    1  0.4963616E-011  0.5052886E+02  0.7816164E-02  0.1300439E+00
        -11   -1    0    0    0    0  0.00000000000E+00  0.00000000000E+00  0.45593999997E+02  0.45594000000E+02  0.51100000000E-03 0. -1.
         11   -1    0    0    0    0 -0.00000000000E+00 -0.00000000000E+00 -0.45593999997E+02  0.45594000000E+02  0.51100000000E-03 0.  1.
    9900012    2    1    2    0    0 -0.23282417929E+02 -0.23373926840E+02 -0.23764562718E+02  0.50528857342E+02  0.29999992376E+02 0.  0.
        -12    1    1    2    0    0  0.23282417929E+02  0.23373926840E+02  0.23764562718E+02  0.40659142658E+02  0.00000000000E+00 0.  1.
         11    1    3    3    0    0 -0.37137153564E+01  0.55821245162E+01 -0.65632180277E+01  0.93823039283E+01  0.51100000000E-03 0. -1.
        -11    1    3    3    0    0 -0.18253760392E+02 -0.24634686072E+02 -0.19233104186E+02  0.36193643409E+02  0.51100000000E-03 0.  1.
        -12    1    3    3    0    0 -0.13149421805E+01 -0.43213652850E+01  0.20317594963E+01  0.49529100047E+01  0.00000000000E+00 0.  1.
</event>
<event>
 7    1  0.4963616E-011  0.5052886E+02  0.7816164E-02  0.1300439E+00
        -11   -1    0    0    0    0  0.00000000000E+00  0.00000000000E+00  0.45593999997E+02  0.45594000000E+02  0.51100000000E-03 0.  1.
         11   -1    0    0    0    0 -0.00000000000E+00 -0.00000000000E+00 -0.45593999997E+02  0.45594000000E+02  0.51100000000E-03 0. -1.
    9900012    2    1    2    0    0  0.30063770714E+02  0.11239960755E+02 -0.24959945909E+02  0.50528856784E+02  0.29999990681E+02 0.  0.
        -12    1    1    2    0    0 -0.30063770714E+02 -0.11239960755E+02  0.24959945909E+02  0.40659143216E+02  0.00000000000E+00 0.  1.
         11    1    3    3    0    0  0.20683204313E+02  0.32047264776E+01 -0.27334163243E+02  0.34427048855E+02  0.51100000000E-03 0. -1.
        -11    1    3    3    0    0  0.81175212381E+01  0.75462974070E+01  0.57343957146E+01  0.12478944269E+02  0.51100000000E-03 0.  1.
        -12    1    3    3    0    0  0.12630451629E+01  0.48893687054E+00 -0.33601783802E+01  0.36228636593E+01  0.00000000000E+00 0.  1.
</event>
<event>
 7    1  0.4963616E-011  0.5052886E+02  0.7816164E-02  0.1300439E+00
        -11   -1    0    0    0    0  0.00000000000E+00  0.00000000000E+00  0.45593999997E+02  0.45594000000E+02  0.51100000000E-03 0.  1.
         11   -1    0    0    0    0 -0.00000000000E+00 -0.00000000000E+00 -0.45593999997E+02  0.45594000000E+02  0.51100000000E-03 0. -1.
    9900012    2    1    2    0    0 -0.34807723208E+02  0.18259108400E+02 -0.10401587032E+02  0.50528860224E+02  0.30000001138E+02 0.  0.
        -12    1    1    2    0    0  0.34807723208E+02 -0.18259108400E+02  0.10401587032E+02  0.40659139776E+02  0.00000000000E+00 0.  1.
         11    1    3    3    0    0 -0.22898966794E+02  0.77362614773E+00 -0.37269509631E+01  0.23213171722E+02  0.51100000000E-03 0. -1.
        -11    1    3    3    0    0  0.22695971904E+00  0.49855418593E+01 -0.84393686794E+01  0.98045949592E+01  0.51100000000E-03 0.  1.
         12    1    3    3    0    0 -0.12135716134E+02  0.12499940393E+02  0.17647326103E+01  0.17511093543E+02  0.00000000000E+00 0. -1.
</event>
<event>
 7    1  0.4963616E-011  0.5052887E+02  0.7816164E-02  0.1300439E+00
        -11   -1    0    0    0    0  0.00000000000E+00  0.00000000000E+00  0.45593999997E+02  0.45594000000E+02  0.51100000000E-03 0. -1.
         11   -1    0    0    0    0 -0.00000000000E+00 -0.00000000000E+00 -0.45593999997E+02  0.45594000000E+02  0.51100000000E-03 0.  1.
    9900012    2    1    2    0    0  0.37628960887E+02  0.17264500555E+01  0.15305077682E+02  0.50528871503E+02  0.30000035422E+02 0.  0.
        -12    1    1    2    0    0 -0.37628960887E+02 -0.17264500555E+01 -0.15305077682E+02  0.40659128497E+02  0.00000000000E+00 0.  1.
         11    1    3    3    0    0  0.29822563708E+02  0.49060479433E+00 -0.32562507906E+01  0.30003819234E+02  0.51100000000E-03 0.  1.
        -11    1    3    3    0    0  0.43705927200E+01 -0.81469703794E+00  0.12453919804E+02  0.13223688243E+02  0.51100000000E-03 0. -1.
        -12    1    3    3    0    0  0.34358044595E+01  0.20505422991E+01  0.61074086682E+01  0.73013640263E+01  0.00000000000E+00 0.  1.
</event>
<event>
 7    1  0.4963616E-011  0.5052886E+02  0.7816164E-02  0.1300439E+00
        -11   -1    0    0    0    0  0.00000000000E+00  0.00000000000E+00  0.45593999997E+02  0.45594000000E+02  0.51100000000E-03 0.  1.
         11   -1    0    0    0    0 -0.00000000000E+00 -0.00000000000E+00 -0.45593999997E+02  0.45594000000E+02  0.51100000000E-03 0. -1.
    9900012    2    1    2    0    0  0.15024529104E+02 -0.75426129195E+01 -0.37020777677E+02  0.50528862475E+02  0.30000007980E+02 0.  0.
        -12    1    1    2    0    0 -0.15024529104E+02  0.75426129195E+01  0.37020777677E+02  0.40659137525E+02  0.00000000000E+00 0.  1.
         11    1    3    3    0    0  0.16786786139E+02 -0.71927035383E+01 -0.23691911243E+02  0.29913840136E+02  0.51100000000E-03 0. -1.
        -11    1    3    3    0    0 -0.10584225202E+01  0.76361339797E+01 -0.65964834303E+01  0.10146151699E+02  0.51100000000E-03 0.  1.
        -12    1    3    3    0    0 -0.70383451485E+00 -0.79860433610E+01 -0.67323830034E+01  0.10468870641E+02  0.00000000000E+00 0.  1.
</event>
<event>
 7    1  0.4963616E-011  0.5052887E+02  0.7816164E-02  0.1300439E+00
        -11   -1    0    0    0    0  0.00000000000E+00  0.00000000000E+00  0.45593999997E+02  0.45594000000E+02  0.51100000000E-03 0.  1.
         11   -1    0    0    0    0 -0.00000000000E+00 -0.00000000000E+00 -0.45593999997E+02  0.45594000000E+02  0.51100000000E-03 0. -1.
    9900012    2    1    2    0    0 -0.14597827134E+02  0.35145823718E+02  0.14312224006E+02  0.50528865259E+02  0.30000016443E+02 0.  0.
        -12    1    1    2    0    0  0.14597827134E+02 -0.35145823718E+02 -0.14312224006E+02  0.40659134741E+02  0.00000000000E+00 0.  1.
         11    1    3    3    0    0  0.44534916619E+01  0.43500182852E+01  0.16888779248E+00  0.62277419995E+01  0.51100000000E-03 0. -1.
        -11    1    3    3    0    0 -0.22673955445E+02  0.21000684239E+02  0.71177075563E+01  0.31714330438E+02  0.51100000000E-03 0.  1.
        -12    1    3    3    0    0  0.36226366498E+01  0.97951211941E+01  0.70256286572E+01  0.12586792822E+02  0.00000000000E+00 0.  1.
</event>
<event>
 7    1  0.4963616E-011  0.5052887E+02  0.7816164E-02  0.1300439E+00
        -11   -1    0    0    0    0  0.00000000000E+00  0.00000000000E+00  0.45593999997E+02  0.45594000000E+02  0.51100000000E-03 0.  1.
         11   -1    0    0    0    0 -0.00000000000E+00 -0.00000000000E+00 -0.45593999997E+02  0.45594000000E+02  0.51100000000E-03 0. -1.
    9900012    2    1    2    0    0  0.26911869396E+02 -0.30337081104E+02 -0.29287571595E+01  0.50528870363E+02  0.30000031957E+02 0.  0.
        -12    1    1    2    0    0 -0.26911869396E+02  0.30337081104E+02  0.29287571595E+01  0.40659129637E+02  0.00000000000E+00 0.  1.
         11    1    3    3    0    0  0.79754059146E+01 -0.10192396998E+02 -0.14304129121E+02  0.19289898036E+02  0.51100000000E-03 0. -1.
        -11    1    3    3    0    0  0.16916685386E+02 -0.14602386962E+02  0.11897446969E+02  0.25317053424E+02  0.51100000000E-03 0.  1.
         12    1    3    3    0    0  0.20197780950E+01 -0.55422971440E+01 -0.52207500732E+00  0.59219189034E+01  0.00000000000E+00 0. -1.
</event>
<event>
 7    1  0.4963616E-011  0.5052886E+02  0.7816164E-02  0.1300439E+00
        -11   -1    0    0    0    0  0.00000000000E+00  0.00000000000E+00  0.45593999997E+02  0.45594000000E+02  0.51100000000E-03 0. -1.
         11   -1    0    0    0    0 -0.00000000000E+00 -0.00000000000E+00 -0.45593999997E+02  0.45594000000E+02  0.51100000000E-03 0.  1.
    9900012    2    1    2    0    0 -0.11215047885E+02 -0.38952512809E+02  0.31765092018E+01  0.50528858791E+02  0.29999996780E+02 0.  0.
        -12    1    1    2    0    0  0.11215047885E+02  0.38952512809E+02 -0.31765092018E+01  0.40659141209E+02  0.00000000000E+00 0.  1.
         11    1    3    3    0    0  0.82760440976E+00 -0.25343530182E+02  0.10151628920E+02  0.27313641668E+02  0.51100000000E-03 0. -1.
        -11    1    3    3    0    0 -0.73548753027E+01 -0.61621369523E+00  0.69951623856E+00  0.74137192599E+01  0.51100000000E-03 0.  1.
         12    1    3    3    0    0 -0.46877769926E+01 -0.12992768931E+02 -0.76746359572E+01  0.15801497863E+02  0.00000000000E+00 0. -1.
</event>
<event>
 7    1  0.4963616E-011  0.5052886E+02  0.7816164E-02  0.1300439E+00
        -11   -1    0    0    0    0  0.00000000000E+00  0.00000000000E+00  0.45593999997E+02  0.45594000000E+02  0.51100000000E-03 0. -1.
         11   -1    0    0    0    0 -0.00000000000E+00 -0.00000000000E+00 -0.45593999997E+02  0.45594000000E+02  0.51100000000E-03 0.  1.
    9900012    2    1    2    0    0  0.11161692272E+02 -0.19742314141E+02  0.33746452314E+02  0.50528863440E+02  0.30000010913E+02 0.  0.
        -12    1    1    2    0    0 -0.11161692272E+02  0.19742314141E+02 -0.33746452314E+02  0.40659136560E+02  0.00000000000E+00 0.  1.
         11    1    3    3    0    0  0.13371262011E+01 -0.21034429804E+02  0.13827950291E+02  0.25208081108E+02  0.51100000000E-03 0. -1.
        -11    1    3    3    0    0  0.11861947872E+02 -0.31423735128E+00  0.19296123454E+02  0.22652702556E+02  0.51100000000E-03 0.  1.
        -12    1    3    3    0    0 -0.20373818012E+01  0.16063530143E+01  0.62237856825E+00  0.26680797764E+01  0.00000000000E+00 0.  1.
</event>
<event>
 7    1  0.4963616E-011  0.5052884E+02  0.7816164E-02  0.1300439E+00
        -11   -1    0    0    0    0  0.00000000000E+00  0.00000000000E+00  0.45593999997E+02  0.45594000000E+02  0.51100000000E-03 0. -1.
         11   -1    0    0    0    0 -0.00000000000E+00 -0.00000000000E+00 -0.45593999997E+02  0.45594000000E+02  0.51100000000E-03 0.  1.
    9900012    2    1    2    0    0 -0.85541733506E+01 -0.35700666189E+02  0.17477283805E+02  0.50528844853E+02  0.29999954415E+02 0.  0.
        -12    1    1    2    0    0  0.85541733506E+01  0.35700666189E+02 -0.17477283805E+02  0.40659155147E+02  0.00000000000E+00 0.  1.
         11    1    3    3    0    0 -0.80761491328E+01 -0.88725712782E+01  0.35036391344E+01  0.12498887684E+02  0.51100000000E-03 0. -1.
        -11    1    3    3    0    0  0.48197537465E+01 -0.22239453281E+02  0.40644042257E+00  0.22759360766E+02  0.51100000000E-03 0.  1.
        -12    1    3    3    0    0 -0.52977779643E+01 -0.45886416303E+01  0.13567204249E+02  0.15270596403E+02  0.00000000000E+00 0.  1.
</event>
<event>
 7    1  0.4963616E-011  0.5052885E+02  0.7816164E-02  0.1300439E+00
        -11   -1    0    0    0    0  0.00000000000E+00  0.00000000000E+00  0.45593999997E+02  0.45594000000E+02  0.51100000000E-03 0.  1.
         11   -1    0    0    0    0 -0.00000000000E+00 -0.00000000000E+00 -0.45593999997E+02  0.45594000000E+02  0.51100000000E-03 0. -1.
    9900012    2    1    2    0    0  0.16431928859E+02  0.29777295256E+02 -0.22281620200E+02  0.50528853458E+02  0.29999980572E+02 0.  0.
        -12    1    1    2    0    0 -0.16431928859E+02 -0.29777295256E+02  0.22281620200E+02  0.40659146542E+02  0.00000000000E+00 0.  1.
         11    1    3    3    0    0 -0.53254633738E+01  0.16087568037E+02 -0.15137930138E+02  0.22722837293E+02  0.51100000000E-03 0. -1.
        -11    1    3    3    0    0  0.23695684417E+01 -0.97346280162E+00 -0.56802185381E+00  0.26239537941E+01  0.51100000000E-03 0.  1.
         12    1    3    3    0    0  0.19387823791E+02  0.14663190020E+02 -0.65756682081E+01  0.25182062371E+02  0.00000000000E+00 0. -1.
</event>
<event>
 7    1  0.4963616E-011  0.5052886E+02  0.7816164E-02  0.1300439E+00
        -11   -1    0    0    0    0  0.00000000000E+00  0.00000000000E+00  0.45593999997E+02  0.45594000000E+02  0.51100000000E-03 0.  1.
         11   -1    0    0    0    0 -0.00000000000E+00 -0.00000000000E+00 -0.45593999997E+02  0.45594000000E+02  0.51100000000E-03 0. -1.
    9900012    2    1    2    0    0 -0.94384385705E+01 -0.34227191283E+02 -0.19813653963E+02  0.50528860447E+02  0.30000001815E+02 0.  0.
        -12    1    1    2    0    0  0.94384385705E+01  0.34227191283E+02  0.19813653963E+02  0.40659139553E+02  0.00000000000E+00 0.  1.
         11    1    3    3    0    0  0.43308673035E+00 -0.17923836472E+02  0.36560227912E+01  0.18298032160E+02  0.51100000000E-03 0.  1.
        -11    1    3    3    0    0 -0.28177827431E+00 -0.10457515415E+02 -0.14378053929E+02  0.17781098468E+02  0.51100000000E-03 0. -1.
        -12    1    3    3    0    0 -0.95897470266E+01 -0.58458393958E+01 -0.90916228253E+01  0.14449729820E+02  0.00000000000E+00 0.  1.
</event>
<event>
 7    1  0.4963616E-011  0.5052887E+02  0.7816164E-02  0.1300439E+00
        -11   -1    0    0    0    0  0.00000000000E+00  0.00000000000E+00  0.45593999997E+02  0.45594000000E+02  0.51100000000E-03 0.  1.
         11   -1    0    0    0    0 -0.00000000000E+00 -0.00000000000E+00 -0.45593999997E+02  0.45594000000E+02  0.51100000000E-03 0. -1.
    9900012    2    1    2    0    0  0.18837532809E+02  0.30244259990E+01 -0.35904944892E+02  0.50528869873E+02  0.30000030466E+02 0.  0.
        -12    1    1    2    0    0 -0.18837532809E+02 -0.30244259990E+01  0.35904944892E+02  0.40659130127E+02  0.00000000000E+00 0.  1.
         11    1    3    3    0    0  0.92799702708E+01  0.12082481410E+02 -0.20535352679E+02  0.25569609210E+02  0.51100000000E-03 0. -1.
        -11    1    3    3    0    0  0.12187045723E+02 -0.55457367409E+01 -0.61201510037E+01  0.14721940362E+02  0.51100000000E-03 0.  1.
         12    1    3    3    0    0 -0.26294831843E+01 -0.35123186701E+01 -0.92494412093E+01  0.10237320301E+02  0.00000000000E+00 0. -1.
</event>
<event>
 7    1  0.4963616E-011  0.5052886E+02  0.7816164E-02  0.1300439E+00
        -11   -1    0    0    0    0  0.00000000000E+00  0.00000000000E+00  0.45593999997E+02  0.45594000000E+02  0.51100000000E-03 0.  1.
         11   -1    0    0    0    0 -0.00000000000E+00 -0.00000000000E+00 -0.45593999997E+02  0.45594000000E+02  0.51100000000E-03 0. -1.
    9900012    2    1    2    0    0 -0.35373726979E+02  0.18793830959E+02 -0.69754471855E+01  0.50528861963E+02  0.30000006423E+02 0.  0.
        -12    1    1    2    0    0  0.35373726979E+02 -0.18793830959E+02  0.69754471855E+01  0.40659138037E+02  0.00000000000E+00 0.  1.
         11    1    3    3    0    0 -0.29448219935E+02  0.16214379105E+02 -0.69761679691E+01  0.34333229777E+02  0.51100000000E-03 0. -1.
        -11    1    3    3    0    0 -0.51778489123E+01 -0.56251312380E+01 -0.15795378411E+01  0.78068662635E+01  0.51100000000E-03 0.  1.
        -12    1    3    3    0    0 -0.74765813163E+00  0.82045830914E+01  0.15802586248E+01  0.83887659228E+01  0.00000000000E+00 0.  1.
</event>
<event>
 7    1  0.4963616E-011  0.5052889E+02  0.7816164E-02  0.1300439E+00
        -11   -1    0    0    0    0  0.00000000000E+00  0.00000000000E+00  0.45593999997E+02  0.45594000000E+02  0.51100000000E-03 0. -1.
         11   -1    0    0    0    0 -0.00000000000E+00 -0.00000000000E+00 -0.45593999997E+02  0.45594000000E+02  0.51100000000E-03 0.  1.
    9900012    2    1    2    0    0  0.35366434069E+02  0.54180307924E+01  0.19313820034E+02  0.50528888343E+02  0.30000086607E+02 0.  0.
        -12    1    1    2    0    0 -0.35366434069E+02 -0.54180307924E+01 -0.19313820034E+02  0.40659111657E+02  0.00000000000E+00 0.  1.
         11    1    3    3    0    0  0.95563427371E+00 -0.49793338040E+01  0.74967363615E+01  0.90503070849E+01  0.51100000000E-03 0. -1.
        -11    1    3    3    0    0  0.27970883420E+02  0.89045693929E+00  0.10624795589E+02  0.29934086163E+02  0.51100000000E-03 0.  1.
        -12    1    3    3    0    0  0.64399163750E+01  0.95069076571E+01  0.11922880834E+01  0.11544495095E+02  0.00000000000E+00 0.  1.
</event>
<event>
 7    1  0.4963616E-011  0.5052886E+02  0.7816164E-02  0.1300439E+00
        -11   -1    0    0    0    0  0.00000000000E+00  0.00000000000E+00  0.45593999997E+02  0.45594000000E+02  0.51100000000E-03 0.  1.
         11   -1    0    0    0    0 -0.00000000000E+00 -0.00000000000E+00 -0.45593999997E+02  0.45594000000E+02  0.51100000000E-03 0. -1.
    9900012    2    1    2    0    0  0.52366161517E+01  0.13269535531E+02 -0.38074441842E+02  0.50528857812E+02  0.29999993804E+02 0.  0.
        -12    1    1    2    0    0 -0.52366161517E+01 -0.13269535531E+02  0.38074441842E+02  0.40659142188E+02  0.00000000000E+00 0.  1.
         11    1    3    3    0    0  0.26093518278E+01  0.36123122573E+01 -0.12823041991E+01  0.46370056206E+01  0.51100000000E-03 0. -1.
        -11    1    3    3    0    0  0.65048647848E+01  0.63525858419E+01 -0.39211503057E+02  0.40251839523E+02  0.51100000000E-03 0.  1.
        -12    1    3    3    0    0 -0.38776004609E+01  0.33046374319E+01  0.24193654140E+01  0.56400126682E+01  0.00000000000E+00 0.  1.
</event>
<event>
 7    1  0.4963616E-011  0.5052892E+02  0.7816164E-02  0.1300439E+00
        -11   -1    0    0    0    0  0.00000000000E+00  0.00000000000E+00  0.45593999997E+02  0.45594000000E+02  0.51100000000E-03 0.  1.
         11   -1    0    0    0    0 -0.00000000000E+00 -0.00000000000E+00 -0.45593999997E+02  0.45594000000E+02  0.51100000000E-03 0. -1.
    9900012    2    1    2    0    0 -0.31787679096E+02  0.79961019894E-01 -0.25351486351E+02  0.50528919879E+02  0.30000182464E+02 0.  0.
        -12    1    1    2    0    0  0.31787679096E+02 -0.79961019894E-01  0.25351486351E+02  0.40659080121E+02  0.00000000000E+00 0.  1.
         11    1    3    3    0    0 -0.31468234424E+02  0.20336941061E+01 -0.18318551556E+02  0.36468548379E+02  0.51100000000E-03 0. -1.
        -11    1    3    3    0    0 -0.26009455637E+01  0.43991683888E+01 -0.14823718294E+01  0.53211866008E+01  0.51100000000E-03 0.  1.
         12    1    3    3    0    0  0.22815008922E+01 -0.63529014750E+01 -0.55505629653E+01  0.87391848993E+01  0.00000000000E+00 0. -1.
</event>
<event>
 7    1  0.4963616E-011  0.5052889E+02  0.7816164E-02  0.1300439E+00
        -11   -1    0    0    0    0  0.00000000000E+00  0.00000000000E+00  0.45593999997E+02  0.45594000000E+02  0.51100000000E-03 0. -1.
         11   -1    0    0    0    0 -0.00000000000E+00 -0.00000000000E+00 -0.45593999997E+02  0.45594000000E+02  0.51100000000E-03 0.  1.
    9900012    2    1    2    0    0  0.25091698446E+02 -0.12355620581E+02  0.29511165446E+02  0.50528885686E+02  0.30000078531E+02 0.  0.
        -12    1    1    2    0    0 -0.25091698446E+02  0.12355620581E+02 -0.29511165446E+02  0.40659114314E+02  0.00000000000E+00 0.  1.
         11    1    3    3    0    0 -0.38672459457E+01  0.30686890594E+01 -0.15024856364E+01  0.51604173374E+01  0.51100000000E-03 0.  1.
        -11    1    3    3    0    0  0.11059051864E+02 -0.68324476729E+01  0.95555073176E+01  0.16133588866E+02  0.51100000000E-03 0. -1.
         12    1    3    3    0    0  0.17899892527E+02 -0.85918619675E+01  0.21458143765E+02  0.29234879483E+02  0.00000000000E+00 0. -1.
</event>
<event>
 7    1  0.4963616E-011  0.5052886E+02  0.7816164E-02  0.1300439E+00
        -11   -1    0    0    0    0  0.00000000000E+00  0.00000000000E+00  0.45593999997E+02  0.45594000000E+02  0.51100000000E-03 0. -1.
         11   -1    0    0    0    0 -0.00000000000E+00 -0.00000000000E+00 -0.45593999997E+02  0.45594000000E+02  0.51100000000E-03 0.  1.
    9900012    2    1    2    0    0  0.18565140506E+02  0.29293769784E+02  0.21222063054E+02  0.50528863875E+02  0.30000012233E+02 0.  0.
        -12    1    1    2    0    0 -0.18565140506E+02 -0.29293769784E+02 -0.21222063054E+02  0.40659136125E+02  0.00000000000E+00 0.  1.
         11    1    3    3    0    0  0.19008316752E+02  0.10157634963E+02  0.22329325490E+02  0.31033730535E+02  0.51100000000E-03 0. -1.
        -11    1    3    3    0    0 -0.19384018604E+01  0.10414385071E+02 -0.14774478166E+00  0.10594274254E+02  0.51100000000E-03 0.  1.
        -12    1    3    3    0    0  0.14952256145E+01  0.87217497502E+01 -0.95951765432E+00  0.89008590861E+01  0.00000000000E+00 0.  1.
</event>
<event>
 7    1  0.4963616E-011  0.5052886E+02  0.7816164E-02  0.1300439E+00
        -11   -1    0    0    0    0  0.00000000000E+00  0.00000000000E+00  0.45593999997E+02  0.45594000000E+02  0.51100000000E-03 0.  1.
         11   -1    0    0    0    0 -0.00000000000E+00 -0.00000000000E+00 -0.45593999997E+02  0.45594000000E+02  0.51100000000E-03 0. -1.
    9900012    2    1    2    0    0 -0.38920240246E+02  0.11556486205E+02 -0.21974049682E+01  0.50528855115E+02  0.29999985608E+02 0.  0.
        -12    1    1    2    0    0  0.38920240246E+02 -0.11556486205E+02  0.21974049682E+01  0.40659144885E+02  0.00000000000E+00 0.  1.
         11    1    3    3    0    0 -0.17639274065E+02  0.15299356210E+02 -0.61420308076E+01  0.24144126257E+02  0.51100000000E-03 0. -1.
        -11    1    3    3    0    0 -0.17308974729E+02 -0.80819615024E+01 -0.34218783045E+00  0.19105910098E+02  0.51100000000E-03 0.  1.
        -12    1    3    3    0    0 -0.39719914509E+01  0.43390914969E+01  0.42868136699E+01  0.72788187602E+01  0.00000000000E+00 0.  1.
</event>
<event>
 7    1  0.4963616E-011  0.5052885E+02  0.7816164E-02  0.1300439E+00
        -11   -1    0    0    0    0  0.00000000000E+00  0.00000000000E+00  0.45593999997E+02  0.45594000000E+02  0.51100000000E-03 0. -1.
         11   -1    0    0    0    0 -0.00000000000E+00 -0.00000000000E+00 -0.45593999997E+02  0.45594000000E+02  0.51100000000E-03 0.  1.
    9900012    2    1    2    0    0  0.14538310068E+02 -0.28430434365E+02  0.25169706779E+02  0.50528853462E+02  0.29999980584E+02 0.  0.
        -12    1    1    2    0    0 -0.14538310068E+02  0.28430434365E+02 -0.25169706779E+02  0.40659146538E+02  0.00000000000E+00 0.  1.
         11    1    3    3    0    0  0.14392476551E+02 -0.21638353554E+02  0.85996258232E+01  0.27373623990E+02  0.51100000000E-03 0. -1.
        -11    1    3    3    0    0  0.97073204296E+00 -0.92746920328E+01  0.17927575681E+02  0.20207924264E+02  0.51100000000E-03 0.  1.
        -12    1    3    3    0    0 -0.82489852640E+00  0.24826112218E+01 -0.13574947253E+01  0.29473052076E+01  0.00000000000E+00 0.  1.
</event>
<event>
 7    1  0.4963616E-011  0.5052887E+02  0.7816164E-02  0.1300439E+00
        -11   -1    0    0    0    0  0.00000000000E+00  0.00000000000E+00  0.45593999997E+02  0.45594000000E+02  0.51100000000E-03 0.  1.
         11   -1    0    0    0    0 -0.00000000000E+00 -0.00000000000E+00 -0.45593999997E+02  0.45594000000E+02  0.51100000000E-03 0. -1.
    9900012    2    1    2    0    0 -0.29324486017E+02  0.70676757220E+01 -0.27263302664E+02  0.50528865818E+02  0.30000018141E+02 0.  0.
        -12    1    1    2    0    0  0.29324486017E+02 -0.70676757220E+01  0.27263302664E+02  0.40659134182E+02  0.00000000000E+00 0.  1.
         11    1    3    3    0    0 -0.12345827627E+02  0.51787909277E+01 -0.24690749256E+02  0.28086872990E+02  0.51100000000E-03 0. -1.
        -11    1    3    3    0    0 -0.46246718916E+00 -0.24929471857E+01  0.34874007855E+01  0.43116848298E+01  0.51100000000E-03 0.  1.
         12    1    3    3    0    0 -0.16516191201E+02  0.43818319800E+01 -0.60599541936E+01  0.18130307998E+02  0.00000000000E+00 0. -1.
</event>
<event>
 7    1  0.4963616E-011  0.5052887E+02  0.7816164E-02  0.1300439E+00
        -11   -1    0    0    0    0  0.00000000000E+00  0.00000000000E+00  0.45593999997E+02  0.45594000000E+02  0.51100000000E-03 0. -1.
         11   -1    0    0    0    0 -0.00000000000E+00 -0.00000000000E+00 -0.45593999997E+02  0.45594000000E+02  0.51100000000E-03 0.  1.
    9900012    2    1    2    0    0  0.64818977963E+01 -0.16644211269E+02  0.36525610580E+02  0.50528868233E+02  0.30000025481E+02 0.  0.
        -12    1    1    2    0    0 -0.64818977963E+01  0.16644211269E+02 -0.36525610580E+02  0.40659131767E+02  0.00000000000E+00 0.  1.
         11    1    3    3    0    0  0.24249010687E+01  0.77073666913E+01  0.14413856204E+02  0.16524009726E+02  0.51100000000E-03 0.  1.
        -11    1    3    3    0    0 -0.19460931648E+00 -0.11254741073E+01  0.42420655051E+01  0.43931406491E+01  0.51100000000E-03 0. -1.
         12    1    3    3    0    0  0.42516060441E+01 -0.23226103853E+02  0.17869688871E+02  0.29611717858E+02  0.00000000000E+00 0. -1.
</event>
<event>
 7    1  0.4963616E-011  0.5052886E+02  0.7816164E-02  0.1300439E+00
        -11   -1    0    0    0    0  0.00000000000E+00  0.00000000000E+00  0.45593999997E+02  0.45594000000E+02  0.51100000000E-03 0.  1.
         11   -1    0    0    0    0 -0.00000000000E+00 -0.00000000000E+00 -0.45593999997E+02  0.45594000000E+02  0.51100000000E-03 0. -1.
    9900012    2    1    2    0    0 -0.17059879813E+02 -0.17962282458E+02 -0.32241004296E+02  0.50528862671E+02  0.30000008574E+02 0.  0.
        -12    1    1    2    0    0  0.17059879813E+02  0.17962282458E+02  0.32241004296E+02  0.40659137329E+02  0.00000000000E+00 0.  1.
         11    1    3    3    0    0 -0.67621481935E+01 -0.15320227063E+02 -0.29761573451E+02  0.34149484037E+02  0.51100000000E-03 0. -1.
        -11    1    3    3    0    0 -0.11865539969E+02 -0.24842961140E+01 -0.52351964343E+01  0.13204925138E+02  0.51100000000E-03 0.  1.
         12    1    3    3    0    0  0.15678083495E+01 -0.15775928132E+00  0.27557655894E+01  0.31744534956E+01  0.00000000000E+00 0. -1.
</event>
<event>
 7    1  0.4963616E-011  0.5052887E+02  0.7816164E-02  0.1300439E+00
        -11   -1    0    0    0    0  0.00000000000E+00  0.00000000000E+00  0.45593999997E+02  0.45594000000E+02  0.51100000000E-03 0.  1.
         11   -1    0    0    0    0 -0.00000000000E+00 -0.00000000000E+00 -0.45593999997E+02  0.45594000000E+02  0.51100000000E-03 0. -1.
    9900012    2    1    2    0    0  0.34256129727E+02  0.11117409529E+02 -0.18870240907E+02  0.50528865597E+02  0.30000017469E+02 0.  0.
        -12    1    1    2    0    0 -0.34256129727E+02 -0.11117409529E+02  0.18870240907E+02  0.40659134403E+02  0.00000000000E+00 0.  1.
         11    1    3    3    0    0  0.27242085051E+02  0.12526371521E+02 -0.24189419355E+02  0.38524916488E+02  0.51100000000E-03 0. -1.
        -11    1    3    3    0    0  0.78417129780E+01 -0.34322911891E+01  0.44883968183E+01  0.96653396989E+01  0.51100000000E-03 0.  1.
        -12    1    3    3    0    0 -0.82766830218E+00  0.20233291968E+01  0.83078162995E+00  0.23386094102E+01  0.00000000000E+00 0.  1.
</event>
<event>
 7    1  0.4963616E-011  0.5052886E+02  0.7816164E-02  0.1300439E+00
        -11   -1    0    0    0    0  0.00000000000E+00  0.00000000000E+00  0.45593999997E+02  0.45594000000E+02  0.51100000000E-03 0. -1.
         11   -1    0    0    0    0 -0.00000000000E+00 -0.00000000000E+00 -0.45593999997E+02  0.45594000000E+02  0.51100000000E-03 0.  1.
    9900012    2    1    2    0    0  0.23563993963E+02  0.15619864287E+02 -0.29221971815E+02  0.50528860701E+02  0.30000002585E+02 0.  0.
        -12    1    1    2    0    0 -0.23563993963E+02 -0.15619864287E+02  0.29221971815E+02  0.40659139299E+02  0.00000000000E+00 0.  1.
         11    1    3    3    0    0  0.22315793319E+02  0.26753055775E+01 -0.12962451143E+02  0.25945655345E+02  0.51100000000E-03 0. -1.
        -11    1    3    3    0    0 -0.19626888426E+01  0.81231725359E+01 -0.16801603123E+02  0.18765179118E+02  0.51100000000E-03 0.  1.
        -12    1    3    3    0    0  0.32108894865E+01  0.48213861731E+01  0.54208245071E+00  0.58180262382E+01  0.00000000000E+00 0.  1.
</event>
<event>
 7    1  0.4963616E-011  0.5052886E+02  0.7816164E-02  0.1300439E+00
        -11   -1    0    0    0    0  0.00000000000E+00  0.00000000000E+00  0.45593999997E+02  0.45594000000E+02  0.51100000000E-03 0.  1.
         11   -1    0    0    0    0 -0.00000000000E+00 -0.00000000000E+00 -0.45593999997E+02  0.45594000000E+02  0.51100000000E-03 0. -1.
    9900012    2    1    2    0    0 -0.60170431787E+01  0.34092829172E+02 -0.21322285942E+02  0.50528859732E+02  0.29999999641E+02 0.  0.
        -12    1    1    2    0    0  0.60170431787E+01 -0.34092829172E+02  0.21322285942E+02  0.40659140268E+02  0.00000000000E+00 0.  1.
         11    1    3    3    0    0  0.96297596280E+00  0.27046654865E+02 -0.18411379096E+02  0.32732670875E+02  0.51100000000E-03 0. -1.
        -11    1    3    3    0    0  0.21293914109E+01 -0.29896201559E+01 -0.20762185477E+01  0.42169681261E+01  0.51100000000E-03 0.  1.
        -12    1    3    3    0    0 -0.91094105523E+01  0.10035794463E+02 -0.83468829773E+00  0.13579220731E+02  0.00000000000E+00 0.  1.
</event>
<event>
 7    1  0.4963616E-011  0.5052884E+02  0.7816164E-02  0.1300439E+00
        -11   -1    0    0    0    0  0.00000000000E+00  0.00000000000E+00  0.45593999997E+02  0.45594000000E+02  0.51100000000E-03 0. -1.
         11   -1    0    0    0    0 -0.00000000000E+00 -0.00000000000E+00 -0.45593999997E+02  0.45594000000E+02  0.51100000000E-03 0.  1.
    9900012    2    1    2    0    0  0.36584393002E+02  0.13634922970E+02  0.11350687128E+02  0.50528843172E+02  0.29999949305E+02 0.  0.
        -12    1    1    2    0    0 -0.36584393002E+02 -0.13634922970E+02 -0.11350687128E+02  0.40659156828E+02  0.00000000000E+00 0.  1.
         11    1    3    3    0    0  0.90468803436E+01  0.21174877810E+01 -0.95414069781E+00  0.93402453494E+01  0.51100000000E-03 0. -1.
        -11    1    3    3    0    0  0.21938504590E+02  0.10811027848E+02  0.20036062754E+02  0.31616769565E+02  0.51100000000E-03 0.  1.
        -12    1    3    3    0    0  0.55990080680E+01  0.70640734100E+00 -0.77312349281E+01  0.95718282574E+01  0.00000000000E+00 0.  1.
</event>
<event>
 7    1  0.4963616E-011  0.5052886E+02  0.7816164E-02  0.1300439E+00
        -11   -1    0    0    0    0  0.00000000000E+00  0.00000000000E+00  0.45593999997E+02  0.45594000000E+02  0.51100000000E-03 0.  1.
         11   -1    0    0    0    0 -0.00000000000E+00 -0.00000000000E+00 -0.45593999997E+02  0.45594000000E+02  0.51100000000E-03 0. -1.
    9900012    2    1    2    0    0 -0.32752294567E+02 -0.10712875037E+02 -0.21579781417E+02  0.50528862565E+02  0.30000008252E+02 0.  0.
        -12    1    1    2    0    0  0.32752294567E+02  0.10712875037E+02  0.21579781417E+02  0.40659137435E+02  0.00000000000E+00 0.  1.
         11    1    3    3    0    0  0.14280717858E+01  0.87299555686E+00 -0.40959621455E+01  0.44247504366E+01  0.51100000000E-03 0.  1.
        -11    1    3    3    0    0 -0.28591110193E+02 -0.84899244875E+01 -0.22999671803E+02  0.37663182329E+02  0.51100000000E-03 0. -1.
        -12    1    3    3    0    0 -0.55892561606E+01 -0.30959461061E+01  0.55158525316E+01  0.84409297990E+01  0.00000000000E+00 0.  1.
</event>
<event>
 7    1  0.4963616E-011  0.5052885E+02  0.7816164E-02  0.1300439E+00
        -11   -1    0    0    0    0  0.00000000000E+00  0.00000000000E+00  0.45593999997E+02  0.45594000000E+02  0.51100000000E-03 0. -1.
         11   -1    0    0    0    0 -0.00000000000E+00 -0.00000000000E+00 -0.45593999997E+02  0.45594000000E+02  0.51100000000E-03 0.  1.
    9900012    2    1    2    0    0  0.34226376291E+02  0.15264591392E+02  0.15770669929E+02  0.50528848332E+02  0.29999964988E+02 0.  0.
        -12    1    1    2    0    0 -0.34226376291E+02 -0.15264591392E+02 -0.15770669929E+02  0.40659151668E+02  0.00000000000E+00 0.  1.
         11    1    3    3    0    0  0.21494840448E+02  0.14592997097E+02 -0.71050223701E+00  0.25990162444E+02  0.51100000000E-03 0. -1.
        -11    1    3    3    0    0  0.79641889450E+01  0.29848990315E+01  0.17203131637E+02  0.19190770338E+02  0.51100000000E-03 0.  1.
         12    1    3    3    0    0  0.47673468980E+01 -0.23133047366E+01 -0.72195947079E+00  0.53479155498E+01  0.00000000000E+00 0. -1.
</event>
<event>
 7    1  0.4963616E-011  0.5052887E+02  0.7816164E-02  0.1300439E+00
        -11   -1    0    0    0    0  0.00000000000E+00  0.00000000000E+00  0.45593999997E+02  0.45594000000E+02  0.51100000000E-03 0.  1.
         11   -1    0    0    0    0 -0.00000000000E+00 -0.00000000000E+00 -0.45593999997E+02  0.45594000000E+02  0.51100000000E-03 0. -1.
    9900012    2    1    2    0    0  0.47270933594E+01  0.14999782689E+02 -0.37494349870E+02  0.50528866161E+02  0.30000019184E+02 0.  0.
        -12    1    1    2    0    0 -0.47270933594E+01 -0.14999782689E+02  0.37494349870E+02  0.40659133839E+02  0.00000000000E+00 0.  1.
         11    1    3    3    0    0 -0.23875454194E+01  0.74189772143E+01 -0.29518944321E+02  0.30530471174E+02  0.51100000000E-03 0. -1.
        -11    1    3    3    0    0 -0.22179251169E+01  0.40662876954E+01  0.27229753634E+01  0.53729398412E+01  0.51100000000E-03 0.  1.
         12    1    3    3    0    0  0.93325638957E+01  0.35145177789E+01 -0.10698380912E+02  0.14625455146E+02  0.00000000000E+00 0. -1.
</event>
<event>
 7    1  0.4963616E-011  0.5052886E+02  0.7816164E-02  0.1300439E+00
        -11   -1    0    0    0    0  0.00000000000E+00  0.00000000000E+00  0.45593999997E+02  0.45594000000E+02  0.51100000000E-03 0.  1.
         11   -1    0    0    0    0 -0.00000000000E+00 -0.00000000000E+00 -0.45593999997E+02  0.45594000000E+02  0.51100000000E-03 0. -1.
    9900012    2    1    2    0    0  0.23562608056E+02  0.33120163806E+02  0.10119140690E+01  0.50528859342E+02  0.29999998457E+02 0.  0.
        -12    1    1    2    0    0 -0.23562608056E+02 -0.33120163806E+02 -0.10119140690E+01  0.40659140658E+02  0.00000000000E+00 0.  1.
         11    1    3    3    0    0 -0.42764961794E+01  0.12128685388E+02 -0.38527963713E+01  0.13425254894E+02  0.51100000000E-03 0. -1.
        -11    1    3    3    0    0  0.21725515910E+02  0.18985206765E+02 -0.29889785646E+00  0.28853517249E+02  0.51100000000E-03 0.  1.
        -12    1    3    3    0    0  0.61135883255E+01  0.20062716528E+01  0.51636082968E+01  0.82500871997E+01  0.00000000000E+00 0.  1.
</event>
<event>
 7    1  0.4963616E-011  0.5052887E+02  0.7816164E-02  0.1300439E+00
        -11   -1    0    0    0    0  0.00000000000E+00  0.00000000000E+00  0.45593999997E+02  0.45594000000E+02  0.51100000000E-03 0.  1.
         11   -1    0    0    0    0 -0.00000000000E+00 -0.00000000000E+00 -0.45593999997E+02  0.45594000000E+02  0.51100000000E-03 0. -1.
    9900012    2    1    2    0    0  0.37699183524E+02 -0.11331809665E-01 -0.15229449938E+02  0.50528871724E+02  0.30000036092E+02 0.  0.
        -12    1    1    2    0    0 -0.37699183524E+02  0.11331809665E-01  0.15229449938E+02  0.40659128276E+02  0.00000000000E+00 0.  1.
         11    1    3    3    0    0  0.72120450400E+01 -0.22400298830E+01 -0.40967850776E+01  0.85915642213E+01  0.51100000000E-03 0. -1.
        -11    1    3    3    0    0  0.14152091052E+02  0.12790959396E+02  0.84226520613E+00  0.19094494870E+02  0.51100000000E-03 0.  1.
        -12    1    3    3    0    0  0.16335047432E+02 -0.10562261323E+02 -0.11974930067E+02  0.22842812632E+02  0.00000000000E+00 0.  1.
</event>
<event>
 7    1  0.4963616E-011  0.5052886E+02  0.7816164E-02  0.1300439E+00
        -11   -1    0    0    0    0  0.00000000000E+00  0.00000000000E+00  0.45593999997E+02  0.45594000000E+02  0.51100000000E-03 0. -1.
         11   -1    0    0    0    0 -0.00000000000E+00 -0.00000000000E+00 -0.45593999997E+02  0.45594000000E+02  0.51100000000E-03 0.  1.
    9900012    2    1    2    0    0 -0.18727789637E+02  0.35490500237E+02  0.65467644105E+01  0.50528857904E+02  0.29999994084E+02 0.  0.
        -12    1    1    2    0    0  0.18727789637E+02 -0.35490500237E+02 -0.65467644105E+01  0.40659142096E+02  0.00000000000E+00 0.  1.
         11    1    3    3    0    0 -0.47408340775E+01  0.17399479420E+02 -0.79444595721E+01  0.19706136861E+02  0.51100000000E-03 0. -1.
        -11    1    3    3    0    0  0.88743768142E+00 -0.18431602604E+01  0.24423624735E+01  0.31858939244E+01  0.51100000000E-03 0.  1.
         12    1    3    3    0    0 -0.14874393241E+02  0.19934181078E+02  0.12048861509E+02  0.27636827119E+02  0.00000000000E+00 0. -1.
</event>
<event>
 7    1  0.4963616E-011  0.5052886E+02  0.7816164E-02  0.1300439E+00
        -11   -1    0    0    0    0  0.00000000000E+00  0.00000000000E+00  0.45593999997E+02  0.45594000000E+02  0.51100000000E-03 0.  1.
         11   -1    0    0    0    0 -0.00000000000E+00 -0.00000000000E+00 -0.45593999997E+02  0.45594000000E+02  0.51100000000E-03 0. -1.
    9900012    2    1    2    0    0  0.60547729276E+00  0.32291682146E+02 -0.24699120977E+02  0.50528856925E+02  0.29999991109E+02 0.  0.
        -12    1    1    2    0    0 -0.60547729276E+00 -0.32291682146E+02  0.24699120977E+02  0.40659143075E+02  0.00000000000E+00 0.  1.
         11    1    3    3    0    0  0.13914113267E+02  0.13176639416E+02 -0.11760419303E+02  0.22484079629E+02  0.51100000000E-03 0. -1.
        -11    1    3    3    0    0 -0.82019239502E+01  0.46552356420E+01 -0.36293375237E+01  0.10105190077E+02  0.51100000000E-03 0.  1.
         12    1    3    3    0    0 -0.51067120238E+01  0.14459807088E+02 -0.93093641503E+01  0.17939587219E+02  0.00000000000E+00 0. -1.
</event>
<event>
 7    1  0.4963616E-011  0.5052886E+02  0.7816164E-02  0.1300439E+00
        -11   -1    0    0    0    0  0.00000000000E+00  0.00000000000E+00  0.45593999997E+02  0.45594000000E+02  0.51100000000E-03 0. -1.
         11   -1    0    0    0    0 -0.00000000000E+00 -0.00000000000E+00 -0.45593999997E+02  0.45594000000E+02  0.51100000000E-03 0.  1.
    9900012    2    1    2    0    0 -0.29158690060E+02  0.65496274344E+01  0.27568804298E+02  0.50528858396E+02  0.29999995582E+02 0.  0.
        -12    1    1    2    0    0  0.29158690060E+02 -0.65496274344E+01 -0.27568804298E+02  0.40659141604E+02  0.00000000000E+00 0.  1.
         11    1    3    3    0    0 -0.26471027947E+02  0.29335387804E+01  0.23558561968E+02  0.35557373534E+02  0.51100000000E-03 0. -1.
        -11    1    3    3    0    0 -0.66077664645E+00  0.73590445427E+01 -0.19553699114E+01  0.76430121097E+01  0.51100000000E-03 0.  1.
        -12    1    3    3    0    0 -0.20268854661E+01 -0.37429558887E+01  0.59656122415E+01  0.73284727531E+01  0.00000000000E+00 0.  1.
</event>
<event>
 7    1  0.4963616E-011  0.5052884E+02  0.7816164E-02  0.1300439E+00
        -11   -1    0    0    0    0  0.00000000000E+00  0.00000000000E+00  0.45593999997E+02  0.45594000000E+02  0.51100000000E-03 0. -1.
         11   -1    0    0    0    0 -0.00000000000E+00 -0.00000000000E+00 -0.45593999997E+02  0.45594000000E+02  0.51100000000E-03 0.  1.
    9900012    2    1    2    0    0 -0.39527121011E+02  0.53500796109E+01  0.78835556100E+01  0.50528842405E+02  0.29999946975E+02 0.  0.
        -12    1    1    2    0    0  0.39527121011E+02 -0.53500796109E+01 -0.78835556100E+01  0.40659157595E+02  0.00000000000E+00 0.  1.
         11    1    3    3    0    0 -0.27043740130E+02 -0.91060024207E+00 -0.56042133634E+01  0.27633318308E+02  0.51100000000E-03 0. -1.
        -11    1    3    3    0    0 -0.11022170744E+02  0.97513126054E+01  0.10780048676E+02  0.18242417470E+02  0.51100000000E-03 0.  1.
        -12    1    3    3    0    0 -0.14612101374E+01 -0.34906327524E+01  0.27077202974E+01  0.46531066275E+01  0.00000000000E+00 0.  1.
</event>
<event>
 7    1  0.4963616E-011  0.5052885E+02  0.7816164E-02  0.1300439E+00
        -11   -1    0    0    0    0  0.00000000000E+00  0.00000000000E+00  0.45593999997E+02  0.45594000000E+02  0.51100000000E-03 0. -1.
         11   -1    0    0    0    0 -0.00000000000E+00 -0.00000000000E+00 -0.45593999997E+02  0.45594000000E+02  0.51100000000E-03 0.  1.
    9900012    2    1    2    0    0 -0.69751454158E+01  0.13303330219E+02  0.37782738892E+02  0.50528848427E+02  0.29999965278E+02 0.  0.
        -12    1    1    2    0    0  0.69751454158E+01 -0.13303330219E+02 -0.37782738892E+02  0.40659151573E+02  0.00000000000E+00 0.  1.
         11    1    3    3    0    0  0.67960063758E+01  0.32330492043E+01  0.14469280894E+02  0.16309457369E+02  0.51100000000E-03 0. -1.
        -11    1    3    3    0    0 -0.11815697385E+02  0.14455193825E+02  0.22681047280E+02  0.29376746573E+02  0.51100000000E-03 0.  1.
        -12    1    3    3    0    0 -0.19554544063E+01 -0.43849128105E+01  0.63241071716E+00  0.48426444848E+01  0.00000000000E+00 0.  1.
</event>
<event>
 7    1  0.4963616E-011  0.5052886E+02  0.7816164E-02  0.1300439E+00
        -11   -1    0    0    0    0  0.00000000000E+00  0.00000000000E+00  0.45593999997E+02  0.45594000000E+02  0.51100000000E-03 0. -1.
         11   -1    0    0    0    0 -0.00000000000E+00 -0.00000000000E+00 -0.45593999997E+02  0.45594000000E+02  0.51100000000E-03 0.  1.
    9900012    2    1    2    0    0  0.11193810408E+02  0.32606807569E+02  0.21555981563E+02  0.50528860407E+02  0.30000001693E+02 0.  0.
        -12    1    1    2    0    0 -0.11193810408E+02 -0.32606807569E+02 -0.21555981563E+02  0.40659139593E+02  0.00000000000E+00 0.  1.
         11    1    3    3    0    0 -0.23806923615E+01  0.12444620697E+02  0.64034567945E+01  0.14196497441E+02  0.51100000000E-03 0. -1.
        -11    1    3    3    0    0  0.87035777493E+01 -0.12572176538E+01 -0.12977868126E+01  0.88891570320E+01  0.51100000000E-03 0.  1.
        -12    1    3    3    0    0  0.48709250198E+01  0.21419404526E+02  0.16450311582E+02  0.27443205934E+02  0.00000000000E+00 0.  1.
</event>
<event>
 7    1  0.4963616E-011  0.5052886E+02  0.7816164E-02  0.1300439E+00
        -11   -1    0    0    0    0  0.00000000000E+00  0.00000000000E+00  0.45593999997E+02  0.45594000000E+02  0.51100000000E-03 0.  1.
         11   -1    0    0    0    0 -0.00000000000E+00 -0.00000000000E+00 -0.45593999997E+02  0.45594000000E+02  0.51100000000E-03 0. -1.
    9900012    2    1    2    0    0  0.27031674209E+01  0.51549339239E+01 -0.40240338880E+02  0.50528864113E+02  0.30000012959E+02 0.  0.
        -12    1    1    2    0    0 -0.27031674209E+01 -0.51549339239E+01  0.40240338880E+02  0.40659135887E+02  0.00000000000E+00 0.  1.
         11    1    3    3    0    0  0.39690295944E+01  0.91944495710E+01 -0.38233053901E+02  0.39522873247E+02  0.51100000000E-03 0. -1.
        -11    1    3    3    0    0 -0.58574604660E+00 -0.37379722153E+01  0.36753750969E+01  0.52748381091E+01  0.51100000000E-03 0.  1.
        -12    1    3    3    0    0 -0.68011612692E+00 -0.30154343182E+00 -0.56826600756E+01  0.57311527569E+01  0.00000000000E+00 0.  1.
</event>
<event>
 7    1  0.4963616E-011  0.5052886E+02  0.7816164E-02  0.1300439E+00
        -11   -1    0    0    0    0  0.00000000000E+00  0.00000000000E+00  0.45593999997E+02  0.45594000000E+02  0.51100000000E-03 0.  1.
         11   -1    0    0    0    0 -0.00000000000E+00 -0.00000000000E+00 -0.45593999997E+02  0.45594000000E+02  0.51100000000E-03 0. -1.
    9900012    2    1    2    0    0  0.23798816135E+02 -0.14903498889E+02 -0.29405233084E+02  0.50528860052E+02  0.30000000615E+02 0.  0.
        -12    1    1    2    0    0 -0.23798816135E+02  0.14903498889E+02  0.29405233084E+02  0.40659139948E+02  0.00000000000E+00 0.  1.
         11    1    3    3    0    0  0.27931578810E+02 -0.13348130847E+02 -0.14935036891E+02  0.34371514647E+02  0.51100000000E-03 0. -1.
        -11    1    3    3    0    0 -0.22889552328E+01 -0.36121962912E+01 -0.10330972885E+02  0.11181067888E+02  0.51100000000E-03 0.  1.
         12    1    3    3    0    0 -0.18438074422E+01  0.20568282494E+01 -0.41392233083E+01  0.49762775171E+01  0.00000000000E+00 0. -1.
</event>
<event>
 7    1  0.4963616E-011  0.5052886E+02  0.7816164E-02  0.1300439E+00
        -11   -1    0    0    0    0  0.00000000000E+00  0.00000000000E+00  0.45593999997E+02  0.45594000000E+02  0.51100000000E-03 0. -1.
         11   -1    0    0    0    0 -0.00000000000E+00 -0.00000000000E+00 -0.45593999997E+02  0.45594000000E+02  0.51100000000E-03 0.  1.
    9900012    2    1    2    0    0  0.59743567577E+01  0.30431819353E+02  0.26294045198E+02  0.50528863503E+02  0.30000011104E+02 0.  0.
        -12    1    1    2    0    0 -0.59743567577E+01 -0.30431819353E+02 -0.26294045198E+02  0.40659136497E+02  0.00000000000E+00 0.  1.
         11    1    3    3    0    0  0.57332428999E+01  0.15834286520E+02  0.24635359427E+01  0.17019509786E+02  0.51100000000E-03 0. -1.
        -11    1    3    3    0    0 -0.40688849794E+01  0.38670715804E+01  0.20815454222E+02  0.21559063113E+02  0.51100000000E-03 0.  1.
        -12    1    3    3    0    0  0.43099988372E+01  0.10730461253E+02  0.30150550331E+01  0.11950290604E+02  0.00000000000E+00 0.  1.
</event>
<event>
 7    1  0.4963616E-011  0.5052887E+02  0.7816164E-02  0.1300439E+00
        -11   -1    0    0    0    0  0.00000000000E+00  0.00000000000E+00  0.45593999997E+02  0.45594000000E+02  0.51100000000E-03 0.  1.
         11   -1    0    0    0    0 -0.00000000000E+00 -0.00000000000E+00 -0.45593999997E+02  0.45594000000E+02  0.51100000000E-03 0. -1.
    9900012    2    1    2    0    0  0.46357090586E+00  0.16150263064E+02 -0.37311115369E+02  0.50528865416E+02  0.30000016920E+02 0.  0.
        -12    1    1    2    0    0 -0.46357090586E+00 -0.16150263064E+02  0.37311115369E+02  0.40659134584E+02  0.00000000000E+00 0.  1.
         11    1    3    3    0    0  0.52338039875E+01  0.14071266773E+02 -0.39918989734E+02  0.42648786553E+02  0.51100000000E-03 0. -1.
        -11    1    3    3    0    0 -0.43493508263E+01  0.33653834105E+01  0.70412198127E+00  0.55442263784E+01  0.51100000000E-03 0.  1.
         12    1    3    3    0    0 -0.42088225533E+00 -0.12863871203E+01  0.19037523834E+01  0.23358524854E+01  0.00000000000E+00 0. -1.
</event>
<event>
 7    1  0.4963616E-011  0.5052887E+02  0.7816164E-02  0.1300439E+00
        -11   -1    0    0    0    0  0.00000000000E+00  0.00000000000E+00  0.45593999997E+02  0.45594000000E+02  0.51100000000E-03 0.  1.
         11   -1    0    0    0    0 -0.00000000000E+00 -0.00000000000E+00 -0.45593999997E+02  0.45594000000E+02  0.51100000000E-03 0. -1.
    9900012    2    1    2    0    0  0.23358272287E+02 -0.11661593813E+02 -0.31169911351E+02  0.50528867839E+02  0.30000024283E+02 0.  0.
        -12    1    1    2    0    0 -0.23358272287E+02  0.11661593813E+02  0.31169911351E+02  0.40659132161E+02  0.00000000000E+00 0.  1.
         11    1    3    3    0    0 -0.10762158281E+01  0.39138537757E+01 -0.10013395265E+02  0.10804840437E+02  0.51100000000E-03 0. -1.
        -11    1    3    3    0    0  0.18993486656E+02 -0.18915689155E+02 -0.14402584051E+02  0.30430088057E+02  0.51100000000E-03 0.  1.
        -12    1    3    3    0    0  0.54410014589E+01  0.33402415667E+01 -0.67539320353E+01  0.92939393444E+01  0.00000000000E+00 0.  1.
</event>
<event>
 7    1  0.4963616E-011  0.5052888E+02  0.7816164E-02  0.1300439E+00
        -11   -1    0    0    0    0  0.00000000000E+00  0.00000000000E+00  0.45593999997E+02  0.45594000000E+02  0.51100000000E-03 0.  1.
         11   -1    0    0    0    0 -0.00000000000E+00 -0.00000000000E+00 -0.45593999997E+02  0.45594000000E+02  0.51100000000E-03 0. -1.
    9900012    2    1    2    0    0 -0.24314299826E+02  0.31111560932E+02  0.96979305101E+01  0.50528877336E+02  0.30000053150E+02 0.  0.
        -12    1    1    2    0    0  0.24314299826E+02 -0.31111560932E+02 -0.96979305101E+01  0.40659122664E+02  0.00000000000E+00 0.  1.
         11    1    3    3    0    0 -0.72540309887E+01  0.84031415184E+01  0.86502851121E+01  0.14073421252E+02  0.51100000000E-03 0. -1.
        -11    1    3    3    0    0 -0.15911566921E+02  0.19154372894E+02 -0.84131874210E+01  0.26284019588E+02  0.51100000000E-03 0.  1.
        -12    1    3    3    0    0 -0.11487019167E+01  0.35540465187E+01  0.94608328190E+01  0.10171436495E+02  0.00000000000E+00 0.  1.
</event>
<event>
 7    1  0.4963616E-011  0.5052886E+02  0.7816164E-02  0.1300439E+00
        -11   -1    0    0    0    0  0.00000000000E+00  0.00000000000E+00  0.45593999997E+02  0.45594000000E+02  0.51100000000E-03 0.  1.
         11   -1    0    0    0    0 -0.00000000000E+00 -0.00000000000E+00 -0.45593999997E+02  0.45594000000E+02  0.51100000000E-03 0. -1.
    9900012    2    1    2    0    0 -0.13353059218E+02  0.37534224477E+02 -0.81267029365E+01  0.50528862058E+02  0.30000006712E+02 0.  0.
        -12    1    1    2    0    0  0.13353059218E+02 -0.37534224477E+02  0.81267029365E+01  0.40659137942E+02  0.00000000000E+00 0.  1.
         11    1    3    3    0    0 -0.47133624599E+01  0.28496546729E+02 -0.87816510461E+01  0.30189176149E+02  0.51100000000E-03 0. -1.
        -11    1    3    3    0    0 -0.20374745526E+01 -0.19341874582E+01  0.58744583575E+01  0.65116545464E+01  0.51100000000E-03 0.  1.
         12    1    3    3    0    0 -0.66022222058E+01  0.10971865206E+02 -0.52195102479E+01  0.13828031363E+02  0.00000000000E+00 0. -1.
</event>
<event>
 7    1  0.4963616E-011  0.5052886E+02  0.7816164E-02  0.1300439E+00
        -11   -1    0    0    0    0  0.00000000000E+00  0.00000000000E+00  0.45593999997E+02  0.45594000000E+02  0.51100000000E-03 0.  1.
         11   -1    0    0    0    0 -0.00000000000E+00 -0.00000000000E+00 -0.45593999997E+02  0.45594000000E+02  0.51100000000E-03 0. -1.
    9900012    2    1    2    0    0 -0.33676547293E+02  0.11465536996E+02 -0.19687492763E+02  0.50528858993E+02  0.29999997394E+02 0.  0.
        -12    1    1    2    0    0  0.33676547293E+02 -0.11465536996E+02  0.19687492763E+02  0.40659141007E+02  0.00000000000E+00 0.  1.
         11    1    3    3    0    0 -0.11960105244E+02 -0.94914864737E+01 -0.35188727071E+01  0.15668915033E+02  0.51100000000E-03 0. -1.
        -11    1    3    3    0    0 -0.12600616030E+02  0.16248404994E+02 -0.97377431358E+01  0.22751040214E+02  0.51100000000E-03 0.  1.
         12    1    3    3    0    0 -0.91158260193E+01  0.47086184758E+01 -0.64308769199E+01  0.12108903746E+02  0.00000000000E+00 0. -1.
</event>
<event>
 7    1  0.4963616E-011  0.5052890E+02  0.7816164E-02  0.1300439E+00
        -11   -1    0    0    0    0  0.00000000000E+00  0.00000000000E+00  0.45593999997E+02  0.45594000000E+02  0.51100000000E-03 0.  1.
         11   -1    0    0    0    0 -0.00000000000E+00 -0.00000000000E+00 -0.45593999997E+02  0.45594000000E+02  0.51100000000E-03 0. -1.
    9900012    2    1    2    0    0 -0.15922773048E+01 -0.94107152714E+01 -0.39522972966E+02  0.50528901375E+02  0.30000126220E+02 0.  0.
        -12    1    1    2    0    0  0.15922773048E+01  0.94107152714E+01  0.39522972966E+02  0.40659098625E+02  0.00000000000E+00 0.  1.
         11    1    3    3    0    0 -0.19790232403E+01 -0.38991299151E+01 -0.15459586520E+02  0.16066068676E+02  0.51100000000E-03 0. -1.
        -11    1    3    3    0    0 -0.91886833333E+00  0.34162489710E+01  0.37899797629E+01  0.51844983277E+01  0.51100000000E-03 0.  1.
        -12    1    3    3    0    0  0.13056142688E+01 -0.89278343273E+01 -0.27853366209E+02  0.29278334371E+02  0.00000000000E+00 0.  1.
</event>
<event>
 7    1  0.4963616E-011  0.5052886E+02  0.7816164E-02  0.1300439E+00
        -11   -1    0    0    0    0  0.00000000000E+00  0.00000000000E+00  0.45593999997E+02  0.45594000000E+02  0.51100000000E-03 0.  1.
         11   -1    0    0    0    0 -0.00000000000E+00 -0.00000000000E+00 -0.45593999997E+02  0.45594000000E+02  0.51100000000E-03 0. -1.
    9900012    2    1    2    0    0 -0.14805590430E+02 -0.18789951122E+02 -0.32877012846E+02  0.50528859026E+02  0.29999997494E+02 0.  0.
        -12    1    1    2    0    0  0.14805590430E+02  0.18789951122E+02  0.32877012846E+02  0.40659140974E+02  0.00000000000E+00 0.  1.
         11    1    3    3    0    0  0.44270595437E+01 -0.17774486505E+01 -0.21505761928E+02  0.22028526421E+02  0.51100000000E-03 0. -1.
        -11    1    3    3    0    0 -0.33531320742E+01 -0.28635371598E+01 -0.57554620296E-01  0.44098358890E+01  0.51100000000E-03 0.  1.
         12    1    3    3    0    0 -0.15879517899E+02 -0.14148965312E+02 -0.11313696297E+02  0.24090496716E+02  0.00000000000E+00 0. -1.
</event>
<event>
 7    1  0.4963616E-011  0.5052886E+02  0.7816164E-02  0.1300439E+00
        -11   -1    0    0    0    0  0.00000000000E+00  0.00000000000E+00  0.45593999997E+02  0.45594000000E+02  0.51100000000E-03 0.  1.
         11   -1    0    0    0    0 -0.00000000000E+00 -0.00000000000E+00 -0.45593999997E+02  0.45594000000E+02  0.51100000000E-03 0. -1.
    9900012    2    1    2    0    0  0.95466973025E+01  0.32070656269E+02 -0.23097601150E+02  0.50528860784E+02  0.30000002838E+02 0.  0.
        -12    1    1    2    0    0 -0.95466973025E+01 -0.32070656269E+02  0.23097601150E+02  0.40659139216E+02  0.00000000000E+00 0.  1.
         11    1    3    3    0    0  0.17700974766E+02  0.18570153731E+02 -0.22667760346E+02  0.34234521709E+02  0.51100000000E-03 0. -1.
        -11    1    3    3    0    0 -0.37262205745E+01  0.49996949721E+01 -0.20698681519E+01  0.65700855407E+01  0.51100000000E-03 0.  1.
         12    1    3    3    0    0 -0.44280568891E+01  0.85008075660E+01  0.16400273479E+01  0.97242535338E+01  0.00000000000E+00 0. -1.
</event>
<event>
 7    1  0.4963616E-011  0.5052886E+02  0.7816164E-02  0.1300439E+00
        -11   -1    0    0    0    0  0.00000000000E+00  0.00000000000E+00  0.45593999997E+02  0.45594000000E+02  0.51100000000E-03 0.  1.
         11   -1    0    0    0    0 -0.00000000000E+00 -0.00000000000E+00 -0.45593999997E+02  0.45594000000E+02  0.51100000000E-03 0. -1.
    9900012    2    1    2    0    0 -0.24800612449E+02 -0.10818362323E+02 -0.30348942076E+02  0.50528860482E+02  0.30000001920E+02 0.  0.
        -12    1    1    2    0    0  0.24800612449E+02  0.10818362323E+02  0.30348942076E+02  0.40659139518E+02  0.00000000000E+00 0.  1.
         11    1    3    3    0    0 -0.23438591757E+02 -0.14878067024E+02 -0.14431549414E+02  0.31288881103E+02  0.51100000000E-03 0.  1.
        -11    1    3    3    0    0 -0.53926844134E+00  0.18023990126E+01 -0.16628337163E+02  0.16734427081E+02  0.51100000000E-03 0. -1.
        -12    1    3    3    0    0 -0.82275225116E+00  0.22573056878E+01  0.71094450097E+00  0.25055522981E+01  0.00000000000E+00 0.  1.
</event>
<event>
 7    1  0.4963616E-011  0.5052886E+02  0.7816164E-02  0.1300439E+00
        -11   -1    0    0    0    0  0.00000000000E+00  0.00000000000E+00  0.45593999997E+02  0.45594000000E+02  0.51100000000E-03 0. -1.
         11   -1    0    0    0    0 -0.00000000000E+00 -0.00000000000E+00 -0.45593999997E+02  0.45594000000E+02  0.51100000000E-03 0.  1.
    9900012    2    1    2    0    0 -0.19687974394E+02  0.73337932690E+01  0.34810407384E+02  0.50528864229E+02  0.30000013310E+02 0.  0.
        -12    1    1    2    0    0  0.19687974394E+02 -0.73337932690E+01 -0.34810407384E+02  0.40659135771E+02  0.00000000000E+00 0.  1.
         11    1    3    3    0    0 -0.10852115739E+02 -0.22428133435E+01  0.30147116594E+02  0.32119266288E+02  0.51100000000E-03 0. -1.
        -11    1    3    3    0    0 -0.67878024538E+01  0.96361142961E+01 -0.15304492832E+01  0.11885757702E+02  0.51100000000E-03 0.  1.
        -12    1    3    3    0    0 -0.20480562004E+01 -0.59507683589E-01  0.61937400732E+01  0.65238402386E+01  0.00000000000E+00 0.  1.
</event>
<event>
 7    1  0.4963616E-011  0.5052885E+02  0.7816164E-02  0.1300439E+00
        -11   -1    0    0    0    0  0.00000000000E+00  0.00000000000E+00  0.45593999997E+02  0.45594000000E+02  0.51100000000E-03 0. -1.
         11   -1    0    0    0    0 -0.00000000000E+00 -0.00000000000E+00 -0.45593999997E+02  0.45594000000E+02  0.51100000000E-03 0.  1.
    9900012    2    1    2    0    0  0.24476780052E+02  0.11316527525E+02  0.30430077474E+02  0.50528853771E+02  0.29999981524E+02 0.  0.
        -12    1    1    2    0    0 -0.24476780052E+02 -0.11316527525E+02 -0.30430077474E+02  0.40659146229E+02  0.00000000000E+00 0.  1.
         11    1    3    3    0    0  0.37230692529E+01  0.47710823088E+01  0.14217158381E+02  0.15451603922E+02  0.51100000000E-03 0. -1.
        -11    1    3    3    0    0 -0.20114022044E+00 -0.34821618022E+01 -0.32527553757E+01  0.47693108517E+01  0.51100000000E-03 0.  1.
        -12    1    3    3    0    0  0.20954851020E+02  0.10027607018E+02  0.19465674469E+02  0.30307938998E+02  0.00000000000E+00 0.  1.
</event>
<event>
 7    1  0.4963616E-011  0.5052886E+02  0.7816164E-02  0.1300439E+00
        -11   -1    0    0    0    0  0.00000000000E+00  0.00000000000E+00  0.45593999997E+02  0.45594000000E+02  0.51100000000E-03 0.  1.
         11   -1    0    0    0    0 -0.00000000000E+00 -0.00000000000E+00 -0.45593999997E+02  0.45594000000E+02  0.51100000000E-03 0. -1.
    9900012    2    1    2    0    0  0.14328447234E+02  0.37413291252E+02 -0.69359090234E+01  0.50528860850E+02  0.30000003039E+02 0.  0.
        -12    1    1    2    0    0 -0.14328447234E+02 -0.37413291252E+02  0.69359090234E+01  0.40659139150E+02  0.00000000000E+00 0.  1.
         11    1    3    3    0    0  0.43914269386E+01  0.35874752578E+02  0.17757315379E+01  0.36186126152E+02  0.51100000000E-03 0. -1.
        -11    1    3    3    0    0  0.87391582541E+01  0.26494862102E+01 -0.88324791397E+01  0.12704540613E+02  0.51100000000E-03 0.  1.
        -12    1    3    3    0    0  0.11978620411E+01 -0.11109475364E+01  0.12083857839E+00  0.16381940850E+01  0.00000000000E+00 0.  1.
</event>
<event>
 7    1  0.4963616E-011  0.5052886E+02  0.7816164E-02  0.1300439E+00
        -11   -1    0    0    0    0  0.00000000000E+00  0.00000000000E+00  0.45593999997E+02  0.45594000000E+02  0.51100000000E-03 0.  1.
         11   -1    0    0    0    0 -0.00000000000E+00 -0.00000000000E+00 -0.45593999997E+02  0.45594000000E+02  0.51100000000E-03 0. -1.
    9900012    2    1    2    0    0 -0.34396310874E+02 -0.23747774893E+01 -0.21550399132E+02  0.50528862372E+02  0.30000007667E+02 0.  0.
        -12    1    1    2    0    0  0.34396310874E+02  0.23747774893E+01  0.21550399132E+02  0.40659137628E+02  0.00000000000E+00 0.  1.
         11    1    3    3    0    0 -0.15091132318E+02 -0.29985499354E+01 -0.22521244864E+02  0.27275264377E+02  0.51100000000E-03 0. -1.
        -11    1    3    3    0    0 -0.10198488958E+02  0.50874690110E+01  0.48622520720E+01  0.12390843936E+02  0.51100000000E-03 0.  1.
        -12    1    3    3    0    0 -0.91066895978E+01 -0.44636965648E+01 -0.38914063401E+01  0.10862754060E+02  0.00000000000E+00 0.  1.
</event>
<event>
 7    1  0.4963616E-011  0.5052886E+02  0.7816164E-02  0.1300439E+00
        -11   -1    0    0    0    0  0.00000000000E+00  0.00000000000E+00  0.45593999997E+02  0.45594000000E+02  0.51100000000E-03 0.  1.
         11   -1    0    0    0    0 -0.00000000000E+00 -0.00000000000E+00 -0.45593999997E+02  0.45594000000E+02  0.51100000000E-03 0. -1.
    9900012    2    1    2    0    0 -0.80615001914E+01 -0.12544099388E+02 -0.37826229051E+02  0.50528858113E+02  0.29999994721E+02 0.  0.
        -12    1    1    2    0    0  0.80615001914E+01  0.12544099388E+02  0.37826229051E+02  0.40659141887E+02  0.00000000000E+00 0.  1.
         11    1    3    3    0    0 -0.17277708345E+00 -0.28030859480E+01 -0.98379312119E+01  0.10230935126E+02  0.51100000000E-03 0. -1.
        -11    1    3    3    0    0  0.44546050450E+00 -0.12771369664E+02 -0.21225477752E+01  0.12954208871E+02  0.51100000000E-03 0.  1.
        -12    1    3    3    0    0 -0.83341836124E+01  0.30303562243E+01 -0.25865750064E+02  0.27343714116E+02  0.00000000000E+00 0.  1.
</event>
<event>
 7    1  0.5411781E-011  0.5052886E+02  0.7816164E-02  0.1300439E+00
        -11   -1    0    0    0    0  0.00000000000E+00  0.00000000000E+00  0.45593999997E+02  0.45594000000E+02  0.51100000000E-03 0.  1.
         11   -1    0    0    0    0 -0.00000000000E+00 -0.00000000000E+00 -0.45593999997E+02  0.45594000000E+02  0.51100000000E-03 0. -1.
    9900012    2    1    2    0    0 -0.27051089256E+02 -0.20672344236E+02 -0.22227432441E+02  0.50528855898E+02  0.29999987987E+02 0.  0.
        -12    1    1    2    0    0  0.27051089256E+02  0.20672344236E+02  0.22227432441E+02  0.40659144102E+02  0.00000000000E+00 0.  1.
         11    1    3    3    0    0 -0.20100717855E+02 -0.73594985021E+01 -0.15493035168E+02  0.26424140770E+02  0.51100000000E-03 0. -1.
        -11    1    3    3    0    0 -0.16359153517E+01 -0.13027739579E+01  0.56675773550E+01  0.60410986053E+01  0.51100000000E-03 0.  1.
        -12    1    3    3    0    0 -0.53144560499E+01 -0.12010071776E+02 -0.12401974629E+02  0.18063616522E+02  0.00000000000E+00 0.  1.
</event>
<event>
 7    1  0.4963616E-011  0.5052885E+02  0.7816164E-02  0.1300439E+00
        -11   -1    0    0    0    0  0.00000000000E+00  0.00000000000E+00  0.45593999997E+02  0.45594000000E+02  0.51100000000E-03 0. -1.
         11   -1    0    0    0    0 -0.00000000000E+00 -0.00000000000E+00 -0.45593999997E+02  0.45594000000E+02  0.51100000000E-03 0.  1.
    9900012    2    1    2    0    0 -0.11787862957E+02  0.24476588899E+01  0.38835826331E+02  0.50528853993E+02  0.29999982198E+02 0.  0.
        -12    1    1    2    0    0  0.11787862957E+02 -0.24476588899E+01 -0.38835826331E+02  0.40659146007E+02  0.00000000000E+00 0.  1.
         11    1    3    3    0    0  0.10946681324E+01  0.72066608804E+01  0.10110835078E+02  0.12464479356E+02  0.51100000000E-03 0. -1.
        -11    1    3    3    0    0 -0.27176023016E+01 -0.82153654476E+01  0.14781870966E+01  0.87785322840E+01  0.51100000000E-03 0.  1.
        -12    1    3    3    0    0 -0.10164928788E+02  0.34563634571E+01  0.27246804157E+02  0.29285842354E+02  0.00000000000E+00 0.  1.
</event>
<event>
 7    1  0.4963616E-011  0.5052886E+02  0.7816164E-02  0.1300439E+00
        -11   -1    0    0    0    0  0.00000000000E+00  0.00000000000E+00  0.45593999997E+02  0.45594000000E+02  0.51100000000E-03 0.  1.
         11   -1    0    0    0    0 -0.00000000000E+00 -0.00000000000E+00 -0.45593999997E+02  0.45594000000E+02  0.51100000000E-03 0. -1.
    9900012    2    1    2    0    0 -0.14061965654E+02 -0.31682712965E+02 -0.21251655741E+02  0.50528855265E+02  0.29999986062E+02 0.  0.
        -12    1    1    2    0    0  0.14061965654E+02  0.31682712965E+02  0.21251655741E+02  0.40659144735E+02  0.00000000000E+00 0.  1.
         11    1    3    3    0    0  0.31479600795E+01 -0.19519246839E+01 -0.14293489473E+02  0.14765618991E+02  0.51100000000E-03 0. -1.
        -11    1    3    3    0    0 -0.41309019359E+01 -0.36734798723E+01  0.81882553862E+00  0.55883164459E+01  0.51100000000E-03 0.  1.
         12    1    3    3    0    0 -0.13079023798E+02 -0.26057308409E+02 -0.77769918067E+01  0.30174919827E+02  0.00000000000E+00 0. -1.
</event>
<event>
 7    1  0.4963616E-011  0.5052886E+02  0.7816164E-02  0.1300439E+00
        -11   -1    0    0    0    0  0.00000000000E+00  0.00000000000E+00  0.45593999997E+02  0.45594000000E+02  0.51100000000E-03 0.  1.
         11   -1    0    0    0    0 -0.00000000000E+00 -0.00000000000E+00 -0.45593999997E+02  0.45594000000E+02  0.51100000000E-03 0. -1.
    9900012    2    1    2    0    0  0.11089563580E+02  0.38262546976E+02 -0.81341680486E+01  0.50528860666E+02  0.30000002482E+02 0.  0.
        -12    1    1    2    0    0 -0.11089563580E+02 -0.38262546976E+02  0.81341680486E+01  0.40659139334E+02  0.00000000000E+00 0.  1.
         11    1    3    3    0    0 -0.62107230386E+00  0.26514403464E+02 -0.12228576373E+02  0.29205092060E+02  0.51100000000E-03 0. -1.
        -11    1    3    3    0    0  0.87041100036E+01  0.10934776133E+02  0.81741904726E+01  0.16190992872E+02  0.51100000000E-03 0.  1.
         12    1    3    3    0    0  0.30065258805E+01  0.81336737867E+00 -0.40797821479E+01  0.51327757342E+01  0.00000000000E+00 0. -1.
</event>
<event>
 7    1  0.4963616E-011  0.5052885E+02  0.7816164E-02  0.1300439E+00
        -11   -1    0    0    0    0  0.00000000000E+00  0.00000000000E+00  0.45593999997E+02  0.45594000000E+02  0.51100000000E-03 0.  1.
         11   -1    0    0    0    0 -0.00000000000E+00 -0.00000000000E+00 -0.45593999997E+02  0.45594000000E+02  0.51100000000E-03 0. -1.
    9900012    2    1    2    0    0 -0.64179833056E+01 -0.34137922518E+02 -0.21132390368E+02  0.50528853597E+02  0.29999980993E+02 0.  0.
        -12    1    1    2    0    0  0.64179833056E+01  0.34137922518E+02  0.21132390368E+02  0.40659146403E+02  0.00000000000E+00 0.  1.
         11    1    3    3    0    0  0.20568504970E+01 -0.19729790697E+02 -0.17193409229E+02  0.26250878006E+02  0.51100000000E-03 0. -1.
        -11    1    3    3    0    0 -0.10257000421E+02 -0.35204514073E+01  0.29912522216E+01  0.11249321129E+02  0.51100000000E-03 0.  1.
        -12    1    3    3    0    0  0.17821666187E+01 -0.10887680414E+02 -0.69302333603E+01  0.13028654462E+02  0.00000000000E+00 0.  1.
</event>
<event>
 7    1  0.4963616E-011  0.5052896E+02  0.7816164E-02  0.1300438E+00
        -11   -1    0    0    0    0  0.00000000000E+00  0.00000000000E+00  0.45593999997E+02  0.45594000000E+02  0.51100000000E-03 0.  1.
         11   -1    0    0    0    0 -0.00000000000E+00 -0.00000000000E+00 -0.45593999997E+02  0.45594000000E+02  0.51100000000E-03 0. -1.
    9900012    2    1    2    0    0 -0.15269796375E+02 -0.32972963936E+02 -0.18242114239E+02  0.50528957168E+02  0.30000295807E+02 0.  0.
        -12    1    1    2    0    0  0.15269796375E+02  0.32972963936E+02  0.18242114239E+02  0.40659042832E+02  0.00000000000E+00 0.  1.
         11    1    3    3    0    0  0.51597194007E+01 -0.26023640871E+01 -0.57765230884E+01  0.81708764760E+01  0.51100000000E-03 0.  1.
        -11    1    3    3    0    0 -0.13015094514E+02 -0.29601529391E+02 -0.69232627290E+01  0.33069242424E+02  0.51100000000E-03 0. -1.
        -12    1    3    3    0    0 -0.74144212626E+01 -0.76907045869E+00 -0.55423284216E+01  0.92888382676E+01  0.00000000000E+00 0.  1.
</event>
<event>
 7    1  0.4963616E-011  0.5052885E+02  0.7816164E-02  0.1300439E+00
        -11   -1    0    0    0    0  0.00000000000E+00  0.00000000000E+00  0.45593999997E+02  0.45594000000E+02  0.51100000000E-03 0.  1.
         11   -1    0    0    0    0 -0.00000000000E+00 -0.00000000000E+00 -0.45593999997E+02  0.45594000000E+02  0.51100000000E-03 0. -1.
    9900012    2    1    2    0    0 -0.55045709813E+01 -0.35062976035E+02 -0.19835668484E+02  0.50528851776E+02  0.29999975458E+02 0.  0.
        -12    1    1    2    0    0  0.55045709813E+01  0.35062976035E+02  0.19835668484E+02  0.40659148224E+02  0.00000000000E+00 0.  1.
         11    1    3    3    0    0  0.79104228233E+01 -0.36724629989E+01 -0.84121874947E+01  0.12117205636E+02  0.51100000000E-03 0. -1.
        -11    1    3    3    0    0 -0.54996292178E+01 -0.20789854672E+02 -0.92917214362E+00  0.21525039837E+02  0.51100000000E-03 0.  1.
         12    1    3    3    0    0 -0.79153645867E+01 -0.10600658364E+02 -0.10494308846E+02  0.16886606303E+02  0.00000000000E+00 0. -1.
</event>
<event>
 7    1  0.4963616E-011  0.5052886E+02  0.7816164E-02  0.1300439E+00
        -11   -1    0    0    0    0  0.00000000000E+00  0.00000000000E+00  0.45593999997E+02  0.45594000000E+02  0.51100000000E-03 0. -1.
         11   -1    0    0    0    0 -0.00000000000E+00 -0.00000000000E+00 -0.45593999997E+02  0.45594000000E+02  0.51100000000E-03 0.  1.
    9900012    2    1    2    0    0 -0.12984497876E+02  0.17676394599E+02  0.34236140484E+02  0.50528862941E+02  0.30000009396E+02 0.  0.
        -12    1    1    2    0    0  0.12984497876E+02 -0.17676394599E+02 -0.34236140484E+02  0.40659137059E+02  0.00000000000E+00 0.  1.
         11    1    3    3    0    0 -0.15426558093E+02  0.18205277204E+02  0.22943429296E+02  0.33103047606E+02  0.51100000000E-03 0. -1.
        -11    1    3    3    0    0 -0.43471931160E+00 -0.40560553805E+01  0.12130278895E+02  0.12797821396E+02  0.51100000000E-03 0.  1.
         12    1    3    3    0    0  0.28767795286E+01  0.35271727751E+01 -0.83756770686E+00  0.46279939396E+01  0.00000000000E+00 0. -1.
</event>
<event>
 7    1  0.4963616E-011  0.5052886E+02  0.7816164E-02  0.1300439E+00
        -11   -1    0    0    0    0  0.00000000000E+00  0.00000000000E+00  0.45593999997E+02  0.45594000000E+02  0.51100000000E-03 0. -1.
         11   -1    0    0    0    0 -0.00000000000E+00 -0.00000000000E+00 -0.45593999997E+02  0.45594000000E+02  0.51100000000E-03 0.  1.
    9900012    2    1    2    0    0 -0.28757421902E+00 -0.38084722252E+02 -0.14235053943E+02  0.50528861682E+02  0.30000005570E+02 0.  0.
        -12    1    1    2    0    0  0.28757421902E+00  0.38084722252E+02  0.14235053943E+02  0.40659138318E+02  0.00000000000E+00 0.  1.
         11    1    3    3    0    0 -0.73515636096E+01 -0.28245550945E+02 -0.17247133229E+02  0.33901625928E+02  0.51100000000E-03 0. -1.
        -11    1    3    3    0    0 -0.86069243587E-02  0.21376362951E+01  0.15519622307E+01  0.26416188286E+01  0.51100000000E-03 0.  1.
        -12    1    3    3    0    0  0.70725963149E+01 -0.11976807602E+02  0.14601170553E+01  0.13985616926E+02  0.00000000000E+00 0.  1.
</event>
<event>
 7    1  0.4963616E-011  0.5052890E+02  0.7816164E-02  0.1300439E+00
        -11   -1    0    0    0    0  0.00000000000E+00  0.00000000000E+00  0.45593999997E+02  0.45594000000E+02  0.51100000000E-03 0.  1.
         11   -1    0    0    0    0 -0.00000000000E+00 -0.00000000000E+00 -0.45593999997E+02  0.45594000000E+02  0.51100000000E-03 0. -1.
    9900012    2    1    2    0    0  0.22457624541E+02 -0.31534254687E+02 -0.12426120893E+02  0.50528897708E+02  0.30000115074E+02 0.  0.
        -12    1    1    2    0    0 -0.22457624541E+02  0.31534254687E+02  0.12426120893E+02  0.40659102292E+02  0.00000000000E+00 0.  1.
         11    1    3    3    0    0  0.49073040206E+01 -0.10413542552E+02 -0.58473858863E+01  0.12911832681E+02  0.51100000000E-03 0. -1.
        -11    1    3    3    0    0 -0.59839393335E+01 -0.27359644455E+01  0.13535554079E+01  0.67175251318E+01  0.51100000000E-03 0.  1.
        -12    1    3    3    0    0  0.23534259854E+02 -0.18384747690E+02 -0.79322904147E+01  0.30899539895E+02  0.00000000000E+00 0.  1.
</event>
<event>
 7    1  0.4963616E-011  0.5052886E+02  0.7816164E-02  0.1300439E+00
        -11   -1    0    0    0    0  0.00000000000E+00  0.00000000000E+00  0.45593999997E+02  0.45594000000E+02  0.51100000000E-03 0.  1.
         11   -1    0    0    0    0 -0.00000000000E+00 -0.00000000000E+00 -0.45593999997E+02  0.45594000000E+02  0.51100000000E-03 0. -1.
    9900012    2    1    2    0    0  0.11558627801E+01  0.18745006588E+02 -0.36061817481E+02  0.50528856246E+02  0.29999989046E+02 0.  0.
        -12    1    1    2    0    0 -0.11558627801E+01 -0.18745006588E+02  0.36061817481E+02  0.40659143754E+02  0.00000000000E+00 0.  1.
         11    1    3    3    0    0  0.29271545110E+01 -0.41315462820E+01 -0.45204520085E+00  0.50835276469E+01  0.51100000000E-03 0. -1.
        -11    1    3    3    0    0 -0.22449068585E+01  0.20583362246E+02 -0.17286101393E+02  0.26972647438E+02  0.51100000000E-03 0.  1.
         12    1    3    3    0    0  0.47361512753E+00  0.22931906236E+01 -0.18323670887E+02  0.18472681162E+02  0.00000000000E+00 0. -1.
</event>
<event>
 7    1  0.4963616E-011  0.5052886E+02  0.7816164E-02  0.1300439E+00
        -11   -1    0    0    0    0  0.00000000000E+00  0.00000000000E+00  0.45593999997E+02  0.45594000000E+02  0.51100000000E-03 0.  1.
         11   -1    0    0    0    0 -0.00000000000E+00 -0.00000000000E+00 -0.45593999997E+02  0.45594000000E+02  0.51100000000E-03 0. -1.
    9900012    2    1    2    0    0  0.39650133148E+02  0.75886434171E+01 -0.48420528373E+01  0.50528855355E+02  0.29999986337E+02 0.  0.
        -12    1    1    2    0    0 -0.39650133148E+02 -0.75886434171E+01  0.48420528373E+01  0.40659144645E+02  0.00000000000E+00 0.  1.
         11    1    3    3    0    0  0.32551301268E+02  0.76652575976E+01  0.82816451317E+01  0.34451836448E+02  0.51100000000E-03 0. -1.
        -11    1    3    3    0    0  0.52687769138E+01  0.22135952396E+01 -0.11190752816E+02  0.12565546661E+02  0.51100000000E-03 0.  1.
        -12    1    3    3    0    0  0.18300549660E+01 -0.22902094201E+01 -0.19329451531E+01  0.35114722456E+01  0.00000000000E+00 0.  1.
</event>
<event>
 7    1  0.4963616E-011  0.5052886E+02  0.7816164E-02  0.1300439E+00
        -11   -1    0    0    0    0  0.00000000000E+00  0.00000000000E+00  0.45593999997E+02  0.45594000000E+02  0.51100000000E-03 0.  1.
         11   -1    0    0    0    0 -0.00000000000E+00 -0.00000000000E+00 -0.45593999997E+02  0.45594000000E+02  0.51100000000E-03 0. -1.
    9900012    2    1    2    0    0  0.37935173412E+02  0.12115470906E+02 -0.82038572236E+01  0.50528864613E+02  0.30000014477E+02 0.  0.
        -12    1    1    2    0    0 -0.37935173412E+02 -0.12115470906E+02  0.82038572236E+01  0.40659135387E+02  0.00000000000E+00 0.  1.
         11    1    3    3    0    0  0.27480646863E+02  0.12561495330E+02 -0.26140888130E+01  0.30328379078E+02  0.51100000000E-03 0. -1.
        -11    1    3    3    0    0 -0.16230302258E+01 -0.35273930479E+01  0.31311773015E+01  0.49880858436E+01  0.51100000000E-03 0.  1.
         12    1    3    3    0    0  0.12077556775E+02  0.30813686241E+01 -0.87209457121E+01  0.15212399691E+02  0.00000000000E+00 0. -1.
</event>
<event>
 7    1  0.4963616E-011  0.5052886E+02  0.7816164E-02  0.1300439E+00
        -11   -1    0    0    0    0  0.00000000000E+00  0.00000000000E+00  0.45593999997E+02  0.45594000000E+02  0.51100000000E-03 0.  1.
         11   -1    0    0    0    0 -0.00000000000E+00 -0.00000000000E+00 -0.45593999997E+02  0.45594000000E+02  0.51100000000E-03 0. -1.
    9900012    2    1    2    0    0  0.22473404131E+02  0.20946332981E+02 -0.26633868512E+02  0.50528859447E+02  0.29999998776E+02 0.  0.
        -12    1    1    2    0    0 -0.22473404131E+02 -0.20946332981E+02  0.26633868512E+02  0.40659140553E+02  0.00000000000E+00 0.  1.
         11    1    3    3    0    0 -0.35993546138E+01  0.12323325611E+02 -0.12229366707E+02  0.17730682955E+02  0.51100000000E-03 0. -1.
        -11    1    3    3    0    0  0.18440677697E+02  0.10999070794E+02 -0.10586785806E+02  0.23939886930E+02  0.51100000000E-03 0.  1.
         12    1    3    3    0    0  0.76320810480E+01 -0.23760634246E+01 -0.38177159992E+01  0.88582895624E+01  0.00000000000E+00 0. -1.
</event>
<event>
 7    1  0.4963616E-011  0.5052885E+02  0.7816164E-02  0.1300439E+00
        -11   -1    0    0    0    0  0.00000000000E+00  0.00000000000E+00  0.45593999997E+02  0.45594000000E+02  0.51100000000E-03 0.  1.
         11   -1    0    0    0    0 -0.00000000000E+00 -0.00000000000E+00 -0.45593999997E+02  0.45594000000E+02  0.51100000000E-03 0. -1.
    9900012    2    1    2    0    0 -0.19788827014E+02  0.35080541348E+02 -0.55609548466E+01  0.50528852509E+02  0.29999977688E+02 0.  0.
        -12    1    1    2    0    0  0.19788827014E+02 -0.35080541348E+02  0.55609548466E+01  0.40659147491E+02  0.00000000000E+00 0.  1.
         11    1    3    3    0    0 -0.26733615872E+02  0.33107132381E+02 -0.23480760906E+01  0.42617858858E+02  0.51100000000E-03 0. -1.
        -11    1    3    3    0    0  0.44590486851E+01  0.11058059932E+01 -0.21376233671E+01  0.50670855520E+01  0.51100000000E-03 0.  1.
         12    1    3    3    0    0  0.24857401727E+01  0.86760297409E+00 -0.10752553889E+01  0.28439080994E+01  0.00000000000E+00 0. -1.
</event>
<event>
 7    1  0.4963616E-011  0.5052885E+02  0.7816164E-02  0.1300439E+00
        -11   -1    0    0    0    0  0.00000000000E+00  0.00000000000E+00  0.45593999997E+02  0.45594000000E+02  0.51100000000E-03 0.  1.
         11   -1    0    0    0    0 -0.00000000000E+00 -0.00000000000E+00 -0.45593999997E+02  0.45594000000E+02  0.51100000000E-03 0. -1.
    9900012    2    1    2    0    0  0.15826654462E+02  0.36148436054E+02  0.97966203633E+01  0.50528853536E+02  0.29999980809E+02 0.  0.
        -12    1    1    2    0    0 -0.15826654462E+02 -0.36148436054E+02 -0.97966203633E+01  0.40659146464E+02  0.00000000000E+00 0.  1.
         11    1    3    3    0    0  0.11926067188E+02  0.31315270720E+02  0.11946128789E+02  0.35575093143E+02  0.51100000000E-03 0. -1.
        -11    1    3    3    0    0 -0.29837066587E+01  0.66038758270E+01 -0.29010915051E+01  0.78057679664E+01  0.51100000000E-03 0.  1.
         12    1    3    3    0    0  0.68842939328E+01 -0.17707104935E+01  0.75158307931E+00  0.71479924265E+01  0.00000000000E+00 0. -1.
</event>
<event>
 7    1  0.4963616E-011  0.5052886E+02  0.7816164E-02  0.1300439E+00
        -11   -1    0    0    0    0  0.00000000000E+00  0.00000000000E+00  0.45593999997E+02  0.45594000000E+02  0.51100000000E-03 0.  1.
         11   -1    0    0    0    0 -0.00000000000E+00 -0.00000000000E+00 -0.45593999997E+02  0.45594000000E+02  0.51100000000E-03 0. -1.
    9900012    2    1    2    0    0 -0.68304564853E+01 -0.32042245630E+00 -0.40080019075E+02  0.50528859141E+02  0.29999997844E+02 0.  0.
        -12    1    1    2    0    0  0.68304564853E+01  0.32042245630E+00  0.40080019075E+02  0.40659140859E+02  0.00000000000E+00 0.  1.
         11    1    3    3    0    0 -0.97550542642E+01 -0.93114213701E+01 -0.35100876956E+02  0.37602329914E+02  0.51100000000E-03 0. -1.
        -11    1    3    3    0    0  0.34833735029E+01  0.98289082938E+00 -0.29291398961E+00  0.36312207603E+01  0.51100000000E-03 0.  1.
         12    1    3    3    0    0 -0.55877572406E+00  0.80081080844E+01 -0.46862281297E+01  0.92953084664E+01  0.00000000000E+00 0. -1.
</event>
<event>
 7    1  0.4963616E-011  0.5052887E+02  0.7816164E-02  0.1300439E+00
        -11   -1    0    0    0    0  0.00000000000E+00  0.00000000000E+00  0.45593999997E+02  0.45594000000E+02  0.51100000000E-03 0. -1.
         11   -1    0    0    0    0 -0.00000000000E+00 -0.00000000000E+00 -0.45593999997E+02  0.45594000000E+02  0.51100000000E-03 0.  1.
    9900012    2    1    2    0    0  0.20146064389E+02  0.17821577545E+02  0.30490862563E+02  0.50528865277E+02  0.30000016497E+02 0.  0.
        -12    1    1    2    0    0 -0.20146064389E+02 -0.17821577545E+02 -0.30490862563E+02  0.40659134723E+02  0.00000000000E+00 0.  1.
         11    1    3    3    0    0  0.10399021028E+02  0.13288140973E+02  0.60346002470E+01  0.17920120794E+02  0.51100000000E-03 0.  1.
        -11    1    3    3    0    0  0.12370353360E+02 -0.36400589326E+01  0.16119972847E+02  0.20642896990E+02  0.51100000000E-03 0. -1.
        -12    1    3    3    0    0 -0.26233099997E+01  0.81734955049E+01  0.83362894693E+01  0.11965847494E+02  0.00000000000E+00 0.  1.
</event>
<event>
 7    1  0.4963616E-011  0.5052886E+02  0.7816164E-02  0.1300439E+00
        -11   -1    0    0    0    0  0.00000000000E+00  0.00000000000E+00  0.45593999997E+02  0.45594000000E+02  0.51100000000E-03 0.  1.
         11   -1    0    0    0    0 -0.00000000000E+00 -0.00000000000E+00 -0.45593999997E+02  0.45594000000E+02  0.51100000000E-03 0. -1.
    9900012    2    1    2    0    0 -0.36032376428E+02  0.62508421606E+01 -0.17769651576E+02  0.50528859627E+02  0.29999999322E+02 0.  0.
        -12    1    1    2    0    0  0.36032376428E+02 -0.62508421606E+01  0.17769651576E+02  0.40659140373E+02  0.00000000000E+00 0.  1.
         11    1    3    3    0    0 -0.23543596836E+02  0.17190300733E+02 -0.15002391070E+02  0.32785349310E+02  0.51100000000E-03 0. -1.
        -11    1    3    3    0    0 -0.30392302600E+00 -0.16968648905E+01  0.99968536549E+00  0.19927595825E+01  0.51100000000E-03 0.  1.
         12    1    3    3    0    0 -0.12184856565E+02 -0.92425936824E+01 -0.37669458711E+01  0.15750750734E+02  0.00000000000E+00 0. -1.
</event>
<event>
 7    1  0.4963616E-011  0.5052886E+02  0.7816164E-02  0.1300439E+00
        -11   -1    0    0    0    0  0.00000000000E+00  0.00000000000E+00  0.45593999997E+02  0.45594000000E+02  0.51100000000E-03 0. -1.
         11   -1    0    0    0    0 -0.00000000000E+00 -0.00000000000E+00 -0.45593999997E+02  0.45594000000E+02  0.51100000000E-03 0.  1.
    9900012    2    1    2    0    0 -0.25880137501E+01  0.33944536248E+02  0.22231419053E+02  0.50528863888E+02  0.30000012275E+02 0.  0.
        -12    1    1    2    0    0  0.25880137501E+01 -0.33944536248E+02 -0.22231419053E+02  0.40659136112E+02  0.00000000000E+00 0.  1.
         11    1    3    3    0    0 -0.13047206351E+02  0.13184031949E+02  0.41693024705E+01  0.19011348594E+02  0.51100000000E-03 0. -1.
        -11    1    3    3    0    0  0.98411073253E+01  0.22056927602E+02  0.15881289093E+02  0.28906241405E+02  0.51100000000E-03 0.  1.
        -12    1    3    3    0    0  0.61808527536E+00 -0.12964233038E+01  0.21808274893E+01  0.26112738899E+01  0.00000000000E+00 0.  1.
</event>
<event>
 7    1  0.4963616E-011  0.5052886E+02  0.7816164E-02  0.1300439E+00
        -11   -1    0    0    0    0  0.00000000000E+00  0.00000000000E+00  0.45593999997E+02  0.45594000000E+02  0.51100000000E-03 0.  1.
         11   -1    0    0    0    0 -0.00000000000E+00 -0.00000000000E+00 -0.45593999997E+02  0.45594000000E+02  0.51100000000E-03 0. -1.
    9900012    2    1    2    0    0  0.31670248943E+02  0.21873234757E+01 -0.25404259407E+02  0.50528862674E+02  0.30000008583E+02 0.  0.
        -12    1    1    2    0    0 -0.31670248943E+02 -0.21873234757E+01  0.25404259407E+02  0.40659137326E+02  0.00000000000E+00 0.  1.
         11    1    3    3    0    0  0.29748776226E+01 -0.57485145947E+01 -0.32309512237E+01  0.72342493036E+01  0.51100000000E-03 0. -1.
        -11    1    3    3    0    0  0.22261716596E+02  0.11341414063E+02 -0.25131278638E+02  0.35437167847E+02  0.51100000000E-03 0.  1.
        -12    1    3    3    0    0  0.64336547237E+01 -0.34055759927E+01  0.29579704541E+01  0.78574455234E+01  0.00000000000E+00 0.  1.
</event>
<event>
 7    1  0.4963616E-011  0.5052885E+02  0.7816164E-02  0.1300439E+00
        -11   -1    0    0    0    0  0.00000000000E+00  0.00000000000E+00  0.45593999997E+02  0.45594000000E+02  0.51100000000E-03 0.  1.
         11   -1    0    0    0    0 -0.00000000000E+00 -0.00000000000E+00 -0.45593999997E+02  0.45594000000E+02  0.51100000000E-03 0. -1.
    9900012    2    1    2    0    0 -0.11188013472E+02 -0.23510220545E+02 -0.31229218819E+02  0.50528853138E+02  0.29999979599E+02 0.  0.
        -12    1    1    2    0    0  0.11188013472E+02  0.23510220545E+02  0.31229218819E+02  0.40659146862E+02  0.00000000000E+00 0.  1.
         11    1    3    3    0    0  0.28261010935E+01 -0.13421803337E+02 -0.82032462550E+01  0.15982018070E+02  0.51100000000E-03 0. -1.
        -11    1    3    3    0    0 -0.60916216910E+01 -0.15350251561E+01 -0.21958365749E+02  0.22839307863E+02  0.51100000000E-03 0.  1.
        -12    1    3    3    0    0 -0.79224928749E+01 -0.85533920511E+01 -0.10676068145E+01  0.11707527204E+02  0.00000000000E+00 0.  1.
</event>
<event>
 7    1  0.4963616E-011  0.5052882E+02  0.7816164E-02  0.1300439E+00
        -11   -1    0    0    0    0  0.00000000000E+00  0.00000000000E+00  0.45593999997E+02  0.45594000000E+02  0.51100000000E-03 0.  1.
         11   -1    0    0    0    0 -0.00000000000E+00 -0.00000000000E+00 -0.45593999997E+02  0.45594000000E+02  0.51100000000E-03 0. -1.
    9900012    2    1    2    0    0 -0.20833492954E+02 -0.33380438528E+02  0.10241116604E+02  0.50528824230E+02  0.29999891729E+02 0.  0.
        -12    1    1    2    0    0  0.20833492954E+02  0.33380438528E+02 -0.10241116604E+02  0.40659175770E+02  0.00000000000E+00 0.  1.
         11    1    3    3    0    0 -0.77402118541E+01 -0.20087892019E+01 -0.43975738404E+01  0.91260489560E+01  0.51100000000E-03 0. -1.
        -11    1    3    3    0    0 -0.10506674473E+02 -0.27029885023E+02  0.19047613297E+02  0.34696058356E+02  0.51100000000E-03 0.  1.
        -12    1    3    3    0    0 -0.25866066263E+01 -0.43417643035E+01 -0.44089228523E+01  0.67067169184E+01  0.00000000000E+00 0.  1.
</event>
<event>
 7    1  0.4963616E-011  0.5052886E+02  0.7816164E-02  0.1300439E+00
        -11   -1    0    0    0    0  0.00000000000E+00  0.00000000000E+00  0.45593999997E+02  0.45594000000E+02  0.51100000000E-03 0.  1.
         11   -1    0    0    0    0 -0.00000000000E+00 -0.00000000000E+00 -0.45593999997E+02  0.45594000000E+02  0.51100000000E-03 0. -1.
    9900012    2    1    2    0    0 -0.28367568091E+02 -0.14367845770E+02 -0.25337942916E+02  0.50528864954E+02  0.30000015515E+02 0.  0.
        -12    1    1    2    0    0  0.28367568091E+02  0.14367845770E+02  0.25337942916E+02  0.40659135046E+02  0.00000000000E+00 0.  1.
         11    1    3    3    0    0 -0.19126684119E+02 -0.65177361097E+01 -0.63321391490E+01  0.21175620790E+02  0.51100000000E-03 0. -1.
        -11    1    3    3    0    0  0.53463925406E+01 -0.24882020106E+01 -0.17958442833E+01  0.61644236872E+01  0.51100000000E-03 0.  1.
        -12    1    3    3    0    0 -0.14587276512E+02 -0.53619076493E+01 -0.17209959483E+02  0.23188820477E+02  0.00000000000E+00 0.  1.
</event>
<event>
 7    1  0.4963616E-011  0.5052886E+02  0.7816164E-02  0.1300439E+00
        -11   -1    0    0    0    0  0.00000000000E+00  0.00000000000E+00  0.45593999997E+02  0.45594000000E+02  0.51100000000E-03 0.  1.
         11   -1    0    0    0    0 -0.00000000000E+00 -0.00000000000E+00 -0.45593999997E+02  0.45594000000E+02  0.51100000000E-03 0. -1.
    9900012    2    1    2    0    0  0.13848630550E+02 -0.14995948350E+02 -0.35163934814E+02  0.50528863921E+02  0.30000012375E+02 0.  0.
        -12    1    1    2    0    0 -0.13848630550E+02  0.14995948350E+02  0.35163934814E+02  0.40659136079E+02  0.00000000000E+00 0.  1.
         11    1    3    3    0    0  0.77956323702E+01  0.16099735534E+01 -0.24658181658E+02  0.25911191054E+02  0.51100000000E-03 0. -1.
        -11    1    3    3    0    0 -0.17295640219E+01 -0.12616502881E+02 -0.29768232634E+01  0.13077806148E+02  0.51100000000E-03 0.  1.
         12    1    3    3    0    0  0.77825622019E+01 -0.39894190230E+01 -0.75289298934E+01  0.11539866720E+02  0.00000000000E+00 0. -1.
</event>
<event>
 7    1  0.4963616E-011  0.5052885E+02  0.7816164E-02  0.1300439E+00
        -11   -1    0    0    0    0  0.00000000000E+00  0.00000000000E+00  0.45593999997E+02  0.45594000000E+02  0.51100000000E-03 0.  1.
         11   -1    0    0    0    0 -0.00000000000E+00 -0.00000000000E+00 -0.45593999997E+02  0.45594000000E+02  0.51100000000E-03 0. -1.
    9900012    2    1    2    0    0 -0.17378302274E+01 -0.36869748952E+02 -0.17051919344E+02  0.50528851030E+02  0.29999973189E+02 0.  0.
        -12    1    1    2    0    0  0.17378302274E+01  0.36869748952E+02  0.17051919344E+02  0.40659148970E+02  0.00000000000E+00 0.  1.
         11    1    3    3    0    0 -0.43202413161E+01  0.85058550393E+00 -0.79801110022E+01  0.91142828899E+01  0.51100000000E-03 0. -1.
        -11    1    3    3    0    0  0.37076773688E+01 -0.38703999900E+02 -0.90465777152E+01  0.39919757619E+02  0.51100000000E-03 0.  1.
        -12    1    3    3    0    0 -0.11252662800E+01  0.98366544438E+00 -0.25230626762E-01  0.14948105204E+01  0.00000000000E+00 0.  1.
</event>
<event>
 7    1  0.4963616E-011  0.5052886E+02  0.7816164E-02  0.1300439E+00
        -11   -1    0    0    0    0  0.00000000000E+00  0.00000000000E+00  0.45593999997E+02  0.45594000000E+02  0.51100000000E-03 0.  1.
         11   -1    0    0    0    0 -0.00000000000E+00 -0.00000000000E+00 -0.45593999997E+02  0.45594000000E+02  0.51100000000E-03 0. -1.
    9900012    2    1    2    0    0 -0.18249583205E+02  0.25468222014E+02  0.25913084744E+02  0.50528861044E+02  0.30000003629E+02 0.  0.
        -12    1    1    2    0    0  0.18249583205E+02 -0.25468222014E+02 -0.25913084744E+02  0.40659138956E+02  0.00000000000E+00 0.  1.
         11    1    3    3    0    0 -0.41379862685E+01  0.19360601859E+02  0.68832688842E+01  0.20960325033E+02  0.51100000000E-03 0. -1.
        -11    1    3    3    0    0 -0.17287562064E+01 -0.52080086412E+01  0.71523925953E+01  0.90149138724E+01  0.51100000000E-03 0.  1.
        -12    1    3    3    0    0 -0.12382840730E+02  0.11315628796E+02  0.11877423265E+02  0.20553622138E+02  0.00000000000E+00 0.  1.
</event>
<event>
 7    1  0.4963616E-011  0.5052885E+02  0.7816164E-02  0.1300439E+00
        -11   -1    0    0    0    0  0.00000000000E+00  0.00000000000E+00  0.45593999997E+02  0.45594000000E+02  0.51100000000E-03 0.  1.
         11   -1    0    0    0    0 -0.00000000000E+00 -0.00000000000E+00 -0.45593999997E+02  0.45594000000E+02  0.51100000000E-03 0. -1.
    9900012    2    1    2    0    0 -0.14841827470E+01 -0.40015827080E+02  0.70496027477E+01  0.50528854483E+02  0.29999983686E+02 0.  0.
        -12    1    1    2    0    0  0.14841827470E+01  0.40015827080E+02 -0.70496027477E+01  0.40659145517E+02  0.00000000000E+00 0.  1.
         11    1    3    3    0    0 -0.58253093350E+01 -0.37081615759E+02  0.15144394540E+01  0.37566926721E+02  0.51100000000E-03 0. -1.
        -11    1    3    3    0    0  0.56996147543E+01 -0.90249171083E+00 -0.11145682153E+01  0.58772750662E+01  0.51100000000E-03 0.  1.
         12    1    3    3    0    0 -0.13584881663E+01 -0.20317196097E+01  0.66497315091E+01  0.70846526954E+01  0.00000000000E+00 0. -1.
</event>
<event>
 7    1  0.4963616E-011  0.5052886E+02  0.7816164E-02  0.1300439E+00
        -11   -1    0    0    0    0  0.00000000000E+00  0.00000000000E+00  0.45593999997E+02  0.45594000000E+02  0.51100000000E-03 0.  1.
         11   -1    0    0    0    0 -0.00000000000E+00 -0.00000000000E+00 -0.45593999997E+02  0.45594000000E+02  0.51100000000E-03 0. -1.
    9900012    2    1    2    0    0  0.26534049326E+02  0.28442582844E+02  0.11837616910E+02  0.50528862447E+02  0.30000007893E+02 0.  0.
        -12    1    1    2    0    0 -0.26534049326E+02 -0.28442582844E+02 -0.11837616910E+02  0.40659137553E+02  0.00000000000E+00 0.  1.
         11    1    3    3    0    0  0.17433978638E+02  0.23425326014E+02  0.17786289111E+02  0.34191250205E+02  0.51100000000E-03 0. -1.
        -11    1    3    3    0    0 -0.14634542161E+01 -0.20126962348E+01 -0.55330024375E+00  0.25492716209E+01  0.51100000000E-03 0.  1.
         12    1    3    3    0    0  0.10563524905E+02  0.70299530649E+01 -0.53953719574E+01  0.13788340621E+02  0.00000000000E+00 0. -1.
</event>
<event>
 7    1  0.4963616E-011  0.5052884E+02  0.7816164E-02  0.1300439E+00
        -11   -1    0    0    0    0  0.00000000000E+00  0.00000000000E+00  0.45593999997E+02  0.45594000000E+02  0.51100000000E-03 0.  1.
         11   -1    0    0    0    0 -0.00000000000E+00 -0.00000000000E+00 -0.45593999997E+02  0.45594000000E+02  0.51100000000E-03 0. -1.
    9900012    2    1    2    0    0  0.36061516857E+02  0.16044624806E+01 -0.18712573271E+02  0.50528835027E+02  0.29999924548E+02 0.  0.
        -12    1    1    2    0    0 -0.36061516857E+02 -0.16044624806E+01  0.18712573271E+02  0.40659164973E+02  0.00000000000E+00 0.  1.
         11    1    3    3    0    0  0.51572885796E+01  0.24523658006E+01 -0.12739799529E+02  0.13961168139E+02  0.51100000000E-03 0. -1.
        -11    1    3    3    0    0  0.27579719175E+02  0.25791575391E+01 -0.10843677111E+02  0.29746903989E+02  0.51100000000E-03 0.  1.
        -12    1    3    3    0    0  0.33245091026E+01 -0.34270608590E+01  0.48709033684E+01  0.68207628993E+01  0.00000000000E+00 0.  1.
</event>
<event>
 7    1  0.4963616E-011  0.5052885E+02  0.7816164E-02  0.1300439E+00
        -11   -1    0    0    0    0  0.00000000000E+00  0.00000000000E+00  0.45593999997E+02  0.45594000000E+02  0.51100000000E-03 0. -1.
         11   -1    0    0    0    0 -0.00000000000E+00 -0.00000000000E+00 -0.45593999997E+02  0.45594000000E+02  0.51100000000E-03 0.  1.
    9900012    2    1    2    0    0 -0.71494647206E+01 -0.12188715481E+02  0.38124617424E+02  0.50528854847E+02  0.29999984792E+02 0.  0.
        -12    1    1    2    0    0  0.71494647206E+01  0.12188715481E+02 -0.38124617424E+02  0.40659145153E+02  0.00000000000E+00 0.  1.
         11    1    3    3    0    0 -0.13551113181E+02  0.21706328315E+01  0.24903664914E+02  0.28434782253E+02  0.51100000000E-03 0. -1.
        -11    1    3    3    0    0 -0.44474721635E+00 -0.86640119790E+01  0.78132915552E+01  0.11675205730E+02  0.51100000000E-03 0.  1.
         12    1    3    3    0    0  0.68463956770E+01 -0.56953363338E+01  0.54076609545E+01  0.10418866864E+02  0.00000000000E+00 0. -1.
</event>
<event>
 7    1  0.4963616E-011  0.5052886E+02  0.7816164E-02  0.1300439E+00
        -11   -1    0    0    0    0  0.00000000000E+00  0.00000000000E+00  0.45593999997E+02  0.45594000000E+02  0.51100000000E-03 0.  1.
         11   -1    0    0    0    0 -0.00000000000E+00 -0.00000000000E+00 -0.45593999997E+02  0.45594000000E+02  0.51100000000E-03 0. -1.
    9900012    2    1    2    0    0  0.13018129036E+02  0.74906216463E+01 -0.37783392412E+02  0.50528857875E+02  0.29999993996E+02 0.  0.
        -12    1    1    2    0    0 -0.13018129036E+02 -0.74906216463E+01  0.37783392412E+02  0.40659142125E+02  0.00000000000E+00 0.  1.
         11    1    3    3    0    0  0.52443193574E+01  0.90607287334E+01 -0.35278253572E+02  0.36798843270E+02  0.51100000000E-03 0. -1.
        -11    1    3    3    0    0  0.10515873598E+02 -0.12837840655E+01 -0.11445686279E+01  0.10655596495E+02  0.51100000000E-03 0.  1.
        -12    1    3    3    0    0 -0.27420639195E+01 -0.28632302159E+00 -0.13605702121E+01  0.30744181097E+01  0.00000000000E+00 0.  1.
</event>
<event>
 7    1  0.4963616E-011  0.5052886E+02  0.7816164E-02  0.1300439E+00
        -11   -1    0    0    0    0  0.00000000000E+00  0.00000000000E+00  0.45593999997E+02  0.45594000000E+02  0.51100000000E-03 0.  1.
         11   -1    0    0    0    0 -0.00000000000E+00 -0.00000000000E+00 -0.45593999997E+02  0.45594000000E+02  0.51100000000E-03 0. -1.
    9900012    2    1    2    0    0 -0.36181761128E+00 -0.19523304842E+02 -0.35663363510E+02  0.50528857845E+02  0.29999993906E+02 0.  0.
        -12    1    1    2    0    0  0.36181761128E+00  0.19523304842E+02  0.35663363510E+02  0.40659142155E+02  0.00000000000E+00 0.  1.
         11    1    3    3    0    0 -0.45161509539E+01  0.70136024484E+01 -0.77335436341E+01  0.11375145544E+02  0.51100000000E-03 0. -1.
        -11    1    3    3    0    0  0.50443812296E+01 -0.22230144024E+02 -0.21300633680E+02  0.31198430742E+02  0.51100000000E-03 0.  1.
         12    1    3    3    0    0 -0.89004788697E+00 -0.43067632668E+01 -0.66291861956E+01  0.79552815597E+01  0.00000000000E+00 0. -1.
</event>
<event>
 7    1  0.4963616E-011  0.5052886E+02  0.7816164E-02  0.1300439E+00
        -11   -1    0    0    0    0  0.00000000000E+00  0.00000000000E+00  0.45593999997E+02  0.45594000000E+02  0.51100000000E-03 0.  1.
         11   -1    0    0    0    0 -0.00000000000E+00 -0.00000000000E+00 -0.45593999997E+02  0.45594000000E+02  0.51100000000E-03 0. -1.
    9900012    2    1    2    0    0 -0.26681590429E+02 -0.11950993654E+02 -0.28256548204E+02  0.50528855474E+02  0.29999986700E+02 0.  0.
        -12    1    1    2    0    0  0.26681590429E+02  0.11950993654E+02  0.28256548204E+02  0.40659144526E+02  0.00000000000E+00 0.  1.
         11    1    3    3    0    0 -0.22278838661E+02  0.12983024551E+01 -0.14740712992E+02  0.26745483004E+02  0.51100000000E-03 0. -1.
        -11    1    3    3    0    0 -0.80642629665E+00  0.63517379351E+00 -0.85409417265E+01  0.86024098342E+01  0.51100000000E-03 0.  1.
         12    1    3    3    0    0 -0.35963254722E+01 -0.13884469903E+02 -0.49748934849E+01  0.15180962636E+02  0.00000000000E+00 0. -1.
</event>
<event>
 7    1  0.4963616E-011  0.5052888E+02  0.7816164E-02  0.1300439E+00
        -11   -1    0    0    0    0  0.00000000000E+00  0.00000000000E+00  0.45593999997E+02  0.45594000000E+02  0.51100000000E-03 0. -1.
         11   -1    0    0    0    0 -0.00000000000E+00 -0.00000000000E+00 -0.45593999997E+02  0.45594000000E+02  0.51100000000E-03 0.  1.
    9900012    2    1    2    0    0 -0.27206732082E+02 -0.11796713623E+01  0.30192147907E+02  0.50528884290E+02  0.30000074287E+02 0.  0.
        -12    1    1    2    0    0  0.27206732082E+02  0.11796713623E+01 -0.30192147907E+02  0.40659115710E+02  0.00000000000E+00 0.  1.
         11    1    3    3    0    0 -0.17269839538E+02  0.11070362427E+02  0.12499051780E+02  0.24021377512E+02  0.51100000000E-03 0. -1.
        -11    1    3    3    0    0 -0.78561257536E+01 -0.87605563336E+01  0.43268578776E+01  0.12537454227E+02  0.51100000000E-03 0.  1.
        -12    1    3    3    0    0 -0.20807667911E+01 -0.34894774554E+01  0.13366238249E+02  0.13970052551E+02  0.00000000000E+00 0.  1.
</event>
<event>
 7    1  0.4963616E-011  0.5052886E+02  0.7816164E-02  0.1300439E+00
        -11   -1    0    0    0    0  0.00000000000E+00  0.00000000000E+00  0.45593999997E+02  0.45594000000E+02  0.51100000000E-03 0.  1.
         11   -1    0    0    0    0 -0.00000000000E+00 -0.00000000000E+00 -0.45593999997E+02  0.45594000000E+02  0.51100000000E-03 0. -1.
    9900012    2    1    2    0    0 -0.26716473058E+02  0.28771680994E+02 -0.10563451256E+02  0.50528855120E+02  0.29999985623E+02 0.  0.
        -12    1    1    2    0    0  0.26716473058E+02 -0.28771680994E+02  0.10563451256E+02  0.40659144880E+02  0.00000000000E+00 0.  1.
         11    1    3    3    0    0 -0.28371171189E+02  0.23076559655E+02 -0.11511047397E+02  0.38339994426E+02  0.51100000000E-03 0. -1.
        -11    1    3    3    0    0  0.12309185569E+01 -0.27855911382E+01 -0.14393651059E+01  0.33684492948E+01  0.51100000000E-03 0.  1.
         12    1    3    3    0    0  0.42377957421E+00  0.84807124781E+01  0.23869612460E+01  0.88204113993E+01  0.00000000000E+00 0. -1.
</event>
<event>
 7    1  0.4963616E-011  0.5052885E+02  0.7816164E-02  0.1300439E+00
        -11   -1    0    0    0    0  0.00000000000E+00  0.00000000000E+00  0.45593999997E+02  0.45594000000E+02  0.51100000000E-03 0.  1.
         11   -1    0    0    0    0 -0.00000000000E+00 -0.00000000000E+00 -0.45593999997E+02  0.45594000000E+02  0.51100000000E-03 0. -1.
    9900012    2    1    2    0    0 -0.19473024960E+02  0.23316295303E+02 -0.27024403342E+02  0.50528847233E+02  0.29999961648E+02 0.  0.
        -12    1    1    2    0    0  0.19473024960E+02 -0.23316295303E+02  0.27024403342E+02  0.40659152767E+02  0.00000000000E+00 0.  1.
         11    1    3    3    0    0 -0.20365720752E+02  0.24152241662E+02 -0.19068069003E+02  0.36901011026E+02  0.51100000000E-03 0. -1.
        -11    1    3    3    0    0  0.27377434085E+01 -0.31064533926E+01  0.95427242318E+00  0.42492267261E+01  0.51100000000E-03 0.  1.
         12    1    3    3    0    0 -0.18450476172E+01  0.22705070339E+01 -0.89106067626E+01  0.93786094800E+01  0.00000000000E+00 0. -1.
</event>
<event>
 7    1  0.4963616E-011  0.5052886E+02  0.7816164E-02  0.1300439E+00
        -11   -1    0    0    0    0  0.00000000000E+00  0.00000000000E+00  0.45593999997E+02  0.45594000000E+02  0.51100000000E-03 0. -1.
         11   -1    0    0    0    0 -0.00000000000E+00 -0.00000000000E+00 -0.45593999997E+02  0.45594000000E+02  0.51100000000E-03 0.  1.
    9900012    2    1    2    0    0  0.17145489306E+02  0.36239341359E+02 -0.67755423977E+01  0.50528860308E+02  0.30000001392E+02 0.  0.
        -12    1    1    2    0    0 -0.17145489306E+02 -0.36239341359E+02  0.67755423977E+01  0.40659139692E+02  0.00000000000E+00 0.  1.
         11    1    3    3    0    0  0.60761712268E+01  0.10397546199E+02 -0.79787611444E+01  0.14446087824E+02  0.51100000000E-03 0. -1.
        -11    1    3    3    0    0  0.44344577481E+01  0.12436344804E+02  0.11835418459E+02  0.17731447149E+02  0.51100000000E-03 0.  1.
        -12    1    3    3    0    0  0.66348603312E+01  0.13405450356E+02 -0.10632199713E+02  0.18351325336E+02  0.00000000000E+00 0.  1.
</event>
<event>
 7    1  0.4963616E-011  0.5052887E+02  0.7816164E-02  0.1300439E+00
        -11   -1    0    0    0    0  0.00000000000E+00  0.00000000000E+00  0.45593999997E+02  0.45594000000E+02  0.51100000000E-03 0. -1.
         11   -1    0    0    0    0 -0.00000000000E+00 -0.00000000000E+00 -0.45593999997E+02  0.45594000000E+02  0.51100000000E-03 0.  1.
    9900012    2    1    2    0    0 -0.24770348972E+02  0.28241716089E+02  0.15556349382E+02  0.50528871603E+02  0.30000035725E+02 0.  0.
        -12    1    1    2    0    0  0.24770348972E+02 -0.28241716089E+02 -0.15556349382E+02  0.40659128397E+02  0.00000000000E+00 0.  1.
         11    1    3    3    0    0 -0.24751390565E+02  0.18808229595E+02  0.10491976533E+02  0.32809486543E+02  0.51100000000E-03 0. -1.
        -11    1    3    3    0    0  0.20496199752E+01  0.24586583127E+01  0.89262352850E+01  0.94828065131E+01  0.51100000000E-03 0.  1.
         12    1    3    3    0    0 -0.20685783823E+01  0.69748281819E+01 -0.38618624356E+01  0.82365785471E+01  0.00000000000E+00 0. -1.
</event>
<event>
 7    1  0.4963616E-011  0.5052886E+02  0.7816164E-02  0.1300439E+00
        -11   -1    0    0    0    0  0.00000000000E+00  0.00000000000E+00  0.45593999997E+02  0.45594000000E+02  0.51100000000E-03 0.  1.
         11   -1    0    0    0    0 -0.00000000000E+00 -0.00000000000E+00 -0.45593999997E+02  0.45594000000E+02  0.51100000000E-03 0. -1.
    9900012    2    1    2    0    0 -0.64169833562E+01 -0.36726733473E+02 -0.16221438377E+02  0.50528859699E+02  0.29999999541E+02 0.  0.
        -12    1    1    2    0    0  0.64169833562E+01  0.36726733473E+02  0.16221438377E+02  0.40659140301E+02  0.00000000000E+00 0.  1.
         11    1    3    3    0    0  0.15067404182E+01 -0.79282766454E+01  0.37297292864E+01  0.88903722118E+01  0.51100000000E-03 0. -1.
        -11    1    3    3    0    0 -0.83268072938E+01 -0.10744480492E+02 -0.19250909446E+02  0.23566440026E+02  0.51100000000E-03 0.  1.
        -12    1    3    3    0    0  0.40308351944E+00 -0.18053976336E+02 -0.70025821701E+00  0.18072047461E+02  0.00000000000E+00 0.  1.
</event>
<event>
 7    1  0.4963616E-011  0.5052887E+02  0.7816164E-02  0.1300439E+00
        -11   -1    0    0    0    0  0.00000000000E+00  0.00000000000E+00  0.45593999997E+02  0.45594000000E+02  0.51100000000E-03 0. -1.
         11   -1    0    0    0    0 -0.00000000000E+00 -0.00000000000E+00 -0.45593999997E+02  0.45594000000E+02  0.51100000000E-03 0.  1.
    9900012    2    1    2    0    0  0.28078447275E+02 -0.20808544684E+02  0.20779080656E+02  0.50528869092E+02  0.30000028093E+02 0.  0.
        -12    1    1    2    0    0 -0.28078447275E+02  0.20808544684E+02 -0.20779080656E+02  0.40659130908E+02  0.00000000000E+00 0.  1.
         11    1    3    3    0    0 -0.43986942666E+01  0.22427343209E+01  0.58339922768E+01  0.76428943884E+01  0.51100000000E-03 0. -1.
        -11    1    3    3    0    0  0.24960720698E+02 -0.18581266430E+02  0.93017353033E+01  0.32478043658E+02  0.51100000000E-03 0.  1.
         12    1    3    3    0    0  0.75164208434E+01 -0.44700125756E+01  0.56433530761E+01  0.10407931046E+02  0.00000000000E+00 0. -1.
</event>
<event>
 7    1  0.4963616E-011  0.5052886E+02  0.7816164E-02  0.1300439E+00
        -11   -1    0    0    0    0  0.00000000000E+00  0.00000000000E+00  0.45593999997E+02  0.45594000000E+02  0.51100000000E-03 0.  1.
         11   -1    0    0    0    0 -0.00000000000E+00 -0.00000000000E+00 -0.45593999997E+02  0.45594000000E+02  0.51100000000E-03 0. -1.
    9900012    2    1    2    0    0  0.20157225272E+02 -0.15672911961E+02  0.31641926742E+02  0.50528862922E+02  0.30000009338E+02 0.  0.
        -12    1    1    2    0    0 -0.20157225272E+02  0.15672911961E+02 -0.31641926742E+02  0.40659137078E+02  0.00000000000E+00 0.  1.
         11    1    3    3    0    0  0.56155497699E+01  0.13011126224E+01  0.27837997771E+00  0.57710301462E+01  0.51100000000E-03 0. -1.
        -11    1    3    3    0    0  0.94245149720E+00 -0.17874942045E+02  0.14243647263E+02  0.22875385364E+02  0.51100000000E-03 0.  1.
        -12    1    3    3    0    0  0.13599224005E+02  0.90091746167E+00  0.17119899501E+02  0.21882447412E+02  0.00000000000E+00 0.  1.
</event>
<event>
 7    1  0.7587116E-011  0.5052886E+02  0.7816164E-02  0.1300439E+00
        -11   -1    0    0    0    0  0.00000000000E+00  0.00000000000E+00  0.45593999997E+02  0.45594000000E+02  0.51100000000E-03 0. -1.
         11   -1    0    0    0    0 -0.00000000000E+00 -0.00000000000E+00 -0.45593999997E+02  0.45594000000E+02  0.51100000000E-03 0.  1.
    9900012    2    1    2    0    0 -0.19428367164E+02  0.16062122225E+02  0.31901609480E+02  0.50528857013E+02  0.29999991377E+02 0.  0.
        -12    1    1    2    0    0  0.19428367164E+02 -0.16062122225E+02 -0.31901609480E+02  0.40659142987E+02  0.00000000000E+00 0.  1.
         11    1    3    3    0    0 -0.15206779464E+02  0.11145503835E+02  0.28183394647E+02  0.33908290012E+02  0.51100000000E-03 0. -1.
        -11    1    3    3    0    0  0.16478301773E+00 -0.49123799624E+01 -0.73984500089E+00  0.49705131752E+01  0.51100000000E-03 0.  1.
         12    1    3    3    0    0 -0.43863707173E+01  0.98289983522E+01  0.44580598333E+01  0.11650053826E+02  0.00000000000E+00 0. -1.
</event>
<event>
 7    1  0.4963616E-011  0.5052886E+02  0.7816164E-02  0.1300439E+00
        -11   -1    0    0    0    0  0.00000000000E+00  0.00000000000E+00  0.45593999997E+02  0.45594000000E+02  0.51100000000E-03 0.  1.
         11   -1    0    0    0    0 -0.00000000000E+00 -0.00000000000E+00 -0.45593999997E+02  0.45594000000E+02  0.51100000000E-03 0. -1.
    9900012    2    1    2    0    0 -0.23699846232E+02 -0.12317537022E+02 -0.30655525233E+02  0.50528860105E+02  0.30000000774E+02 0.  0.
        -12    1    1    2    0    0  0.23699846232E+02  0.12317537022E+02  0.30655525233E+02  0.40659139895E+02  0.00000000000E+00 0.  1.
         11    1    3    3    0    0 -0.11735612404E+02  0.24240798335E+01  0.59225199305E-01  0.11983499882E+02  0.51100000000E-03 0.  1.
        -11    1    3    3    0    0 -0.10051641418E+02 -0.14922493313E+02 -0.17187096604E+02  0.24881973229E+02  0.51100000000E-03 0. -1.
         12    1    3    3    0    0 -0.19125924097E+01  0.18087645715E+00 -0.13527653829E+02  0.13663386993E+02  0.00000000000E+00 0. -1.
</event>
<event>
 7    1  0.4963616E-011  0.5052883E+02  0.7816164E-02  0.1300439E+00
        -11   -1    0    0    0    0  0.00000000000E+00  0.00000000000E+00  0.45593999997E+02  0.45594000000E+02  0.51100000000E-03 0.  1.
         11   -1    0    0    0    0 -0.00000000000E+00 -0.00000000000E+00 -0.45593999997E+02  0.45594000000E+02  0.51100000000E-03 0. -1.
    9900012    2    1    2    0    0 -0.30239084816E+01  0.25137557158E+02 -0.31813952110E+02  0.50528826973E+02  0.29999900068E+02 0.  0.
        -12    1    1    2    0    0  0.30239084816E+01 -0.25137557158E+02  0.31813952110E+02  0.40659173027E+02  0.00000000000E+00 0.  1.
         11    1    3    3    0    0 -0.99045062289E+01  0.80694039179E+01 -0.27213383850E+01  0.13062166975E+02  0.51100000000E-03 0. -1.
        -11    1    3    3    0    0  0.69743235814E+01  0.33719493545E+01 -0.18801124661E+02  0.20334540090E+02  0.51100000000E-03 0.  1.
         12    1    3    3    0    0 -0.93725834134E-01  0.13696203885E+02 -0.10291489064E+02  0.17132119908E+02  0.00000000000E+00 0. -1.
</event>
<event>
 7    1  0.4963616E-011  0.5052887E+02  0.7816164E-02  0.1300439E+00
        -11   -1    0    0    0    0  0.00000000000E+00  0.00000000000E+00  0.45593999997E+02  0.45594000000E+02  0.51100000000E-03 0.  1.
         11   -1    0    0    0    0 -0.00000000000E+00 -0.00000000000E+00 -0.45593999997E+02  0.45594000000E+02  0.51100000000E-03 0. -1.
    9900012    2    1    2    0    0  0.26537737033E+02  0.18266961993E+02 -0.24803858089E+02  0.50528871093E+02  0.30000034175E+02 0.  0.
        -12    1    1    2    0    0 -0.26537737033E+02 -0.18266961993E+02  0.24803858089E+02  0.40659128907E+02  0.00000000000E+00 0.  1.
         11    1    3    3    0    0 -0.41422183885E+01  0.10433933700E+02 -0.71778671006E+01  0.13324665925E+02  0.51100000000E-03 0. -1.
        -11    1    3    3    0    0  0.99887173480E+01 -0.12899403922E+01 -0.42540793805E+01  0.10933234293E+02  0.51100000000E-03 0.  1.
         12    1    3    3    0    0  0.20691238074E+02  0.91229686858E+01 -0.13371911608E+02  0.26270970875E+02  0.00000000000E+00 0. -1.
</event>
<event>
 7    1  0.4963616E-011  0.5052886E+02  0.7816164E-02  0.1300439E+00
        -11   -1    0    0    0    0  0.00000000000E+00  0.00000000000E+00  0.45593999997E+02  0.45594000000E+02  0.51100000000E-03 0. -1.
         11   -1    0    0    0    0 -0.00000000000E+00 -0.00000000000E+00 -0.45593999997E+02  0.45594000000E+02  0.51100000000E-03 0.  1.
    9900012    2    1    2    0    0  0.30975964186E+00  0.39896118486E+02  0.78338503525E+01  0.50528862865E+02  0.30000009163E+02 0.  0.
        -12    1    1    2    0    0 -0.30975964186E+00 -0.39896118486E+02 -0.78338503525E+01  0.40659137135E+02  0.00000000000E+00 0.  1.
         11    1    3    3    0    0 -0.43521678416E+01  0.24010840640E+02  0.92661759080E+00  0.24419673495E+02  0.51100000000E-03 0. -1.
        -11    1    3    3    0    0  0.81680402364E+01  0.25569244963E+01 -0.30723312631E+01  0.90936221515E+01  0.51100000000E-03 0.  1.
        -12    1    3    3    0    0 -0.35061127529E+01  0.13328353349E+02  0.99795640248E+01  0.17015567218E+02  0.00000000000E+00 0.  1.
</event>
<event>
 7    1  0.4963616E-011  0.5052888E+02  0.7816164E-02  0.1300439E+00
        -11   -1    0    0    0    0  0.00000000000E+00  0.00000000000E+00  0.45593999997E+02  0.45594000000E+02  0.51100000000E-03 0.  1.
         11   -1    0    0    0    0 -0.00000000000E+00 -0.00000000000E+00 -0.45593999997E+02  0.45594000000E+02  0.51100000000E-03 0. -1.
    9900012    2    1    2    0    0  0.56172753033E+01 -0.20188896804E+02 -0.34842773205E+02  0.50528878260E+02  0.30000055960E+02 0.  0.
        -12    1    1    2    0    0 -0.56172753033E+01  0.20188896804E+02  0.34842773205E+02  0.40659121740E+02  0.00000000000E+00 0.  1.
         11    1    3    3    0    0  0.73549309298E+01 -0.73916049020E+01 -0.27475230014E+02  0.29387396900E+02  0.51100000000E-03 0. -1.
        -11    1    3    3    0    0  0.20929680145E+01 -0.11858942346E+02  0.80292355395E+00  0.12068956672E+02  0.51100000000E-03 0.  1.
         12    1    3    3    0    0 -0.38306236409E+01 -0.93834955633E+00 -0.81704667457E+01  0.90725246878E+01  0.00000000000E+00 0. -1.
</event>
<event>
 7    1  0.4963616E-011  0.5052886E+02  0.7816164E-02  0.1300439E+00
        -11   -1    0    0    0    0  0.00000000000E+00  0.00000000000E+00  0.45593999997E+02  0.45594000000E+02  0.51100000000E-03 0.  1.
         11   -1    0    0    0    0 -0.00000000000E+00 -0.00000000000E+00 -0.45593999997E+02  0.45594000000E+02  0.51100000000E-03 0. -1.
    9900012    2    1    2    0    0 -0.24349390203E+02 -0.22725285208E+02 -0.23320257281E+02  0.50528858461E+02  0.29999995777E+02 0.  0.
        -12    1    1    2    0    0  0.24349390203E+02  0.22725285208E+02  0.23320257281E+02  0.40659141539E+02  0.00000000000E+00 0.  1.
         11    1    3    3    0    0 -0.11391960629E+02 -0.15917108283E+02 -0.13856632207E+02  0.23982021587E+02  0.51100000000E-03 0. -1.
        -11    1    3    3    0    0 -0.11358414461E+02 -0.22129389103E+01  0.39899196713E+01  0.12240512119E+02  0.51100000000E-03 0.  1.
        -12    1    3    3    0    0 -0.15990151136E+01 -0.45952380154E+01 -0.13453544745E+02  0.14306324754E+02  0.00000000000E+00 0.  1.
</event>
<event>
 7    1  0.4963616E-011  0.5052887E+02  0.7816164E-02  0.1300439E+00
        -11   -1    0    0    0    0  0.00000000000E+00  0.00000000000E+00  0.45593999997E+02  0.45594000000E+02  0.51100000000E-03 0.  1.
         11   -1    0    0    0    0 -0.00000000000E+00 -0.00000000000E+00 -0.45593999997E+02  0.45594000000E+02  0.51100000000E-03 0. -1.
    9900012    2    1    2    0    0  0.22238584915E+02 -0.30605851108E+02 -0.14896045920E+02  0.50528868614E+02  0.30000026638E+02 0.  0.
        -12    1    1    2    0    0 -0.22238584915E+02  0.30605851108E+02  0.14896045920E+02  0.40659131386E+02  0.00000000000E+00 0.  1.
         11    1    3    3    0    0  0.27819118180E+01 -0.10456194254E+02 -0.10302014821E+02  0.14939964568E+02  0.51100000000E-03 0. -1.
        -11    1    3    3    0    0  0.49998920324E+01 -0.17709649866E+02  0.36622248651E+01  0.18762795899E+02  0.51100000000E-03 0.  1.
        -12    1    3    3    0    0  0.14456781064E+02 -0.24400069877E+01 -0.82562559641E+01  0.16826108147E+02  0.00000000000E+00 0.  1.
</event>
<event>
 7    1  0.4963616E-011  0.5052884E+02  0.7816164E-02  0.1300439E+00
        -11   -1    0    0    0    0  0.00000000000E+00  0.00000000000E+00  0.45593999997E+02  0.45594000000E+02  0.51100000000E-03 0.  1.
         11   -1    0    0    0    0 -0.00000000000E+00 -0.00000000000E+00 -0.45593999997E+02  0.45594000000E+02  0.51100000000E-03 0. -1.
    9900012    2    1    2    0    0  0.95893248478E+01 -0.15834726195E+02 -0.36200468999E+02  0.50528835468E+02  0.29999925888E+02 0.  0.
        -12    1    1    2    0    0 -0.95893248478E+01  0.15834726195E+02  0.36200468999E+02  0.40659164532E+02  0.00000000000E+00 0.  1.
         11    1    3    3    0    0  0.65570965795E+01  0.65351504433E+01 -0.19435860487E+02  0.21528037068E+02  0.51100000000E-03 0. -1.
        -11    1    3    3    0    0 -0.84011052627E-01 -0.95076076339E+01 -0.31559785116E+01  0.10018076732E+02  0.51100000000E-03 0.  1.
         12    1    3    3    0    0  0.31162393209E+01 -0.12862269004E+02 -0.13608630000E+02  0.18982721668E+02  0.00000000000E+00 0. -1.
</event>
<event>
 7    1  0.4963616E-011  0.5052883E+02  0.7816164E-02  0.1300439E+00
        -11   -1    0    0    0    0  0.00000000000E+00  0.00000000000E+00  0.45593999997E+02  0.45594000000E+02  0.51100000000E-03 0.  1.
         11   -1    0    0    0    0 -0.00000000000E+00 -0.00000000000E+00 -0.45593999997E+02  0.45594000000E+02  0.51100000000E-03 0. -1.
    9900012    2    1    2    0    0  0.35027101755E+02  0.20555358101E+02 -0.19358089025E+01  0.50528831783E+02  0.29999914687E+02 0.  0.
        -12    1    1    2    0    0 -0.35027101755E+02 -0.20555358101E+02  0.19358089025E+01  0.40659168217E+02  0.00000000000E+00 0.  1.
         11    1    3    3    0    0  0.29159262833E+01 -0.20950018343E+01  0.12786986146E+00  0.35927718739E+01  0.51100000000E-03 0. -1.
        -11    1    3    3    0    0  0.10037516067E+02  0.21770806835E+02  0.33098971245E+01  0.24200726813E+02  0.51100000000E-03 0.  1.
        -12    1    3    3    0    0  0.22073659404E+02  0.87955310086E+00 -0.53735758885E+01  0.22735333096E+02  0.00000000000E+00 0.  1.
</event>
<event>
 7    1  0.4963616E-011  0.5052886E+02  0.7816164E-02  0.1300439E+00
        -11   -1    0    0    0    0  0.00000000000E+00  0.00000000000E+00  0.45593999997E+02  0.45594000000E+02  0.51100000000E-03 0.  1.
         11   -1    0    0    0    0 -0.00000000000E+00 -0.00000000000E+00 -0.45593999997E+02  0.45594000000E+02  0.51100000000E-03 0. -1.
    9900012    2    1    2    0    0 -0.28618074059E+01 -0.39593718412E+02 -0.87927970198E+01  0.50528858854E+02  0.29999996971E+02 0.  0.
        -12    1    1    2    0    0  0.28618074059E+01  0.39593718412E+02  0.87927970198E+01  0.40659141146E+02  0.00000000000E+00 0.  1.
         11    1    3    3    0    0  0.62507924821E+01 -0.73841573118E+01 -0.64814991055E+01  0.11645085520E+02  0.51100000000E-03 0. -1.
        -11    1    3    3    0    0 -0.10349511636E+02 -0.25744374992E+02  0.58925607859E+01  0.28365604307E+02  0.51100000000E-03 0.  1.
        -12    1    3    3    0    0  0.12369117476E+01 -0.64651861080E+01 -0.82038587002E+01  0.10518169026E+02  0.00000000000E+00 0.  1.
</event>
<event>
 7    1  0.4963616E-011  0.5052886E+02  0.7816164E-02  0.1300439E+00
        -11   -1    0    0    0    0  0.00000000000E+00  0.00000000000E+00  0.45593999997E+02  0.45594000000E+02  0.51100000000E-03 0. -1.
         11   -1    0    0    0    0 -0.00000000000E+00 -0.00000000000E+00 -0.45593999997E+02  0.45594000000E+02  0.51100000000E-03 0.  1.
    9900012    2    1    2    0    0  0.25147692651E+02  0.30644605455E+02 -0.90370130032E+01  0.50528857200E+02  0.29999991946E+02 0.  0.
        -12    1    1    2    0    0 -0.25147692651E+02 -0.30644605455E+02  0.90370130032E+01  0.40659142800E+02  0.00000000000E+00 0.  1.
         11    1    3    3    0    0  0.12356820255E+02 -0.14567612451E+01 -0.90991593204E+01  0.15414534075E+02  0.51100000000E-03 0. -1.
        -11    1    3    3    0    0  0.74022109077E+00  0.91881526228E+01 -0.30253960243E+00  0.92228849258E+01  0.51100000000E-03 0.  1.
         12    1    3    3    0    0  0.12050651306E+02  0.22913214077E+02  0.36468591970E+00  0.25891438200E+02  0.00000000000E+00 0. -1.
</event>
<event>
 7    1  0.4963616E-011  0.5052885E+02  0.7816164E-02  0.1300439E+00
        -11   -1    0    0    0    0  0.00000000000E+00  0.00000000000E+00  0.45593999997E+02  0.45594000000E+02  0.51100000000E-03 0.  1.
         11   -1    0    0    0    0 -0.00000000000E+00 -0.00000000000E+00 -0.45593999997E+02  0.45594000000E+02  0.51100000000E-03 0. -1.
    9900012    2    1    2    0    0 -0.62316524407E+00 -0.23604345441E+01 -0.40585795088E+02  0.50528846675E+02  0.29999959954E+02 0.  0.
        -12    1    1    2    0    0  0.62316524407E+00  0.23604345441E+01  0.40585795088E+02  0.40659153325E+02  0.00000000000E+00 0.  1.
         11    1    3    3    0    0  0.31384679041E+01 -0.72482208166E+01 -0.14425131575E+02  0.16446005807E+02  0.51100000000E-03 0. -1.
        -11    1    3    3    0    0  0.33592272551E+01  0.11213223682E+02 -0.18347870936E+02  0.21763849872E+02  0.51100000000E-03 0.  1.
        -12    1    3    3    0    0 -0.71208604033E+01 -0.63254374098E+01 -0.78127925773E+01  0.12318990996E+02  0.00000000000E+00 0.  1.
</event>
<event>
 7    1  0.4963616E-011  0.5052885E+02  0.7816164E-02  0.1300439E+00
        -11   -1    0    0    0    0  0.00000000000E+00  0.00000000000E+00  0.45593999997E+02  0.45594000000E+02  0.51100000000E-03 0. -1.
         11   -1    0    0    0    0 -0.00000000000E+00 -0.00000000000E+00 -0.45593999997E+02  0.45594000000E+02  0.51100000000E-03 0.  1.
    9900012    2    1    2    0    0 -0.19122950569E+02 -0.29108017780E+02 -0.20980995087E+02  0.50528854751E+02  0.29999984500E+02 0.  0.
        -12    1    1    2    0    0  0.19122950569E+02  0.29108017780E+02  0.20980995087E+02  0.40659145249E+02  0.00000000000E+00 0.  1.
         11    1    3    3    0    0 -0.88521175466E+01 -0.67461732339E+01  0.67747316184E+01  0.13029498345E+02  0.51100000000E-03 0. -1.
        -11    1    3    3    0    0 -0.41163185235E+01 -0.15179621117E+02 -0.16450574905E+02  0.22759314366E+02  0.51100000000E-03 0.  1.
         12    1    3    3    0    0 -0.61545144986E+01 -0.71822234300E+01 -0.11305151800E+02  0.14740042040E+02  0.00000000000E+00 0. -1.
</event>
<event>
 7    1  0.4963616E-011  0.5052886E+02  0.7816164E-02  0.1300439E+00
        -11   -1    0    0    0    0  0.00000000000E+00  0.00000000000E+00  0.45593999997E+02  0.45594000000E+02  0.51100000000E-03 0. -1.
         11   -1    0    0    0    0 -0.00000000000E+00 -0.00000000000E+00 -0.45593999997E+02  0.45594000000E+02  0.51100000000E-03 0.  1.
    9900012    2    1    2    0    0  0.12468950044E+02 -0.38535034890E+02  0.35695768550E+01  0.50528861936E+02  0.30000006342E+02 0.  0.
        -12    1    1    2    0    0 -0.12468950044E+02  0.38535034890E+02 -0.35695768550E+01  0.40659138064E+02  0.00000000000E+00 0.  1.
         11    1    3    3    0    0 -0.72873103923E+01 -0.24602332177E+02  0.15496380174E+01  0.25705661236E+02  0.51100000000E-03 0. -1.
        -11    1    3    3    0    0  0.74892935812E+01 -0.23749787012E+01  0.74223938511E-01  0.78571974413E+01  0.51100000000E-03 0.  1.
         12    1    3    3    0    0  0.12266966855E+02 -0.11557724011E+02  0.19457148991E+01  0.16966003260E+02  0.00000000000E+00 0. -1.
</event>
<event>
 7    1  0.4963616E-011  0.5052886E+02  0.7816164E-02  0.1300439E+00
        -11   -1    0    0    0    0  0.00000000000E+00  0.00000000000E+00  0.45593999997E+02  0.45594000000E+02  0.51100000000E-03 0. -1.
         11   -1    0    0    0    0 -0.00000000000E+00 -0.00000000000E+00 -0.45593999997E+02  0.45594000000E+02  0.51100000000E-03 0.  1.
    9900012    2    1    2    0    0  0.13127211982E+02 -0.22431729747E+02  0.31267548362E+02  0.50528858661E+02  0.29999996387E+02 0.  0.
        -12    1    1    2    0    0 -0.13127211982E+02  0.22431729747E+02 -0.31267548362E+02  0.40659141339E+02  0.00000000000E+00 0.  1.
         11    1    3    3    0    0  0.21592974022E+02 -0.12533442176E+02  0.25707970426E+02  0.35836342497E+02  0.51100000000E-03 0. -1.
        -11    1    3    3    0    0 -0.48743902932E+01 -0.61297998132E+01  0.53462532374E+01  0.94824337814E+01  0.51100000000E-03 0.  1.
         12    1    3    3    0    0 -0.35913717467E+01 -0.37684877579E+01  0.21332469800E+00  0.52100823824E+01  0.00000000000E+00 0. -1.
</event>
<event>
 7    1  0.8024401E-011  0.5052886E+02  0.7816164E-02  0.1300439E+00
        -11   -1    0    0    0    0  0.00000000000E+00  0.00000000000E+00  0.45593999997E+02  0.45594000000E+02  0.51100000000E-03 0. -1.
         11   -1    0    0    0    0 -0.00000000000E+00 -0.00000000000E+00 -0.45593999997E+02  0.45594000000E+02  0.51100000000E-03 0.  1.
    9900012    2    1    2    0    0  0.67132011398E+01 -0.39976636132E+02 -0.31570917905E+01  0.50528859151E+02  0.29999997875E+02 0.  0.
        -12    1    1    2    0    0 -0.67132011398E+01  0.39976636132E+02  0.31570917905E+01  0.40659140849E+02  0.00000000000E+00 0.  1.
         11    1    3    3    0    0  0.72495069697E+00 -0.26456934050E+02 -0.68064520539E+01  0.27328057060E+02  0.51100000000E-03 0. -1.
        -11    1    3    3    0    0  0.18437513983E+01 -0.11538079899E+02  0.99886110327E+01  0.15372021910E+02  0.51100000000E-03 0.  1.
        -12    1    3    3    0    0  0.41444990445E+01 -0.19816221832E+01 -0.63392507693E+01  0.78287801810E+01  0.00000000000E+00 0.  1.
</event>
<event>
 7    1  0.4963616E-011  0.5052886E+02  0.7816164E-02  0.1300439E+00
        -11   -1    0    0    0    0  0.00000000000E+00  0.00000000000E+00  0.45593999997E+02  0.45594000000E+02  0.51100000000E-03 0. -1.
         11   -1    0    0    0    0 -0.00000000000E+00 -0.00000000000E+00 -0.45593999997E+02  0.45594000000E+02  0.51100000000E-03 0.  1.
    9900012    2    1    2    0    0  0.34621668150E+02 -0.21242761931E+02 -0.18030957375E+01  0.50528855959E+02  0.29999988172E+02 0.  0.
        -12    1    1    2    0    0 -0.34621668150E+02  0.21242761931E+02  0.18030957375E+01  0.40659144041E+02  0.00000000000E+00 0.  1.
         11    1    3    3    0    0  0.27260541202E+02 -0.62593125254E+01 -0.10777258833E+02  0.29974412557E+02  0.51100000000E-03 0. -1.
        -11    1    3    3    0    0  0.77914497619E+01 -0.15130155068E+02  0.67892396660E+01  0.18322719702E+02  0.51100000000E-03 0.  1.
         12    1    3    3    0    0 -0.43032281483E+00  0.14670566191E+00  0.21849234299E+01  0.22317236994E+01  0.00000000000E+00 0. -1.
</event>
<event>
 7    1  0.4963616E-011  0.5052885E+02  0.7816164E-02  0.1300439E+00
        -11   -1    0    0    0    0  0.00000000000E+00  0.00000000000E+00  0.45593999997E+02  0.45594000000E+02  0.51100000000E-03 0. -1.
         11   -1    0    0    0    0 -0.00000000000E+00 -0.00000000000E+00 -0.45593999997E+02  0.45594000000E+02  0.51100000000E-03 0.  1.
    9900012    2    1    2    0    0 -0.19299348343E+02 -0.34482503048E+02  0.95738620031E+01  0.50528847321E+02  0.29999961917E+02 0.  0.
        -12    1    1    2    0    0  0.19299348343E+02  0.34482503048E+02 -0.95738620031E+01  0.40659152679E+02  0.00000000000E+00 0.  1.
         11    1    3    3    0    0 -0.11389675435E+02 -0.13899135535E+02  0.13494245557E+02  0.22472323835E+02  0.51100000000E-03 0. -1.
        -11    1    3    3    0    0 -0.48853552931E+01 -0.15325161614E+02 -0.10420703942E+02  0.19165551016E+02  0.51100000000E-03 0.  1.
        -12    1    3    3    0    0 -0.30243176151E+01 -0.52582058987E+01  0.65003203881E+01  0.88909724697E+01  0.00000000000E+00 0.  1.
</event>
<event>
 7    1  0.4963616E-011  0.5052888E+02  0.7816164E-02  0.1300439E+00
        -11   -1    0    0    0    0  0.00000000000E+00  0.00000000000E+00  0.45593999997E+02  0.45594000000E+02  0.51100000000E-03 0.  1.
         11   -1    0    0    0    0 -0.00000000000E+00 -0.00000000000E+00 -0.45593999997E+02  0.45594000000E+02  0.51100000000E-03 0. -1.
    9900012    2    1    2    0    0 -0.68944833368E+01  0.21086803012E+02 -0.34073109223E+02  0.50528881294E+02  0.30000065182E+02 0.  0.
        -12    1    1    2    0    0  0.68944833368E+01 -0.21086803012E+02  0.34073109223E+02  0.40659118706E+02  0.00000000000E+00 0.  1.
         11    1    3    3    0    0 -0.83324207645E+01  0.14444862243E+02 -0.20085630269E+02  0.26105858051E+02  0.51100000000E-03 0. -1.
        -11    1    3    3    0    0 -0.48187763493E+01 -0.28827913004E+01  0.88702529185E+00  0.56848839317E+01  0.51100000000E-03 0.  1.
        -12    1    3    3    0    0  0.62567137771E+01  0.95247320696E+01 -0.14874504247E+02  0.18738139312E+02  0.00000000000E+00 0.  1.
</event>
<event>
 7    1  0.4963616E-011  0.5052883E+02  0.7816164E-02  0.1300439E+00
        -11   -1    0    0    0    0  0.00000000000E+00  0.00000000000E+00  0.45593999997E+02  0.45594000000E+02  0.51100000000E-03 0.  1.
         11   -1    0    0    0    0 -0.00000000000E+00 -0.00000000000E+00 -0.45593999997E+02  0.45594000000E+02  0.51100000000E-03 0. -1.
    9900012    2    1    2    0    0  0.38008627861E+02 -0.84114626543E+01 -0.11737109644E+02  0.50528828357E+02  0.29999904275E+02 0.  0.
        -12    1    1    2    0    0 -0.38008627861E+02  0.84114626543E+01  0.11737109644E+02  0.40659171643E+02  0.00000000000E+00 0.  1.
         11    1    3    3    0    0  0.17228672484E+02  0.25816277353E+01 -0.13182998977E+02  0.21846817151E+02  0.51100000000E-03 0. -1.
        -11    1    3    3    0    0  0.15104700097E+02 -0.75695667931E+01  0.85759204247E+01  0.18947208709E+02  0.51100000000E-03 0.  1.
        -12    1    3    3    0    0  0.56752552798E+01 -0.34235235966E+01 -0.71300310913E+01  0.97348024977E+01  0.00000000000E+00 0.  1.
</event>
<event>
 7    1  0.4963616E-011  0.5052886E+02  0.7816164E-02  0.1300439E+00
        -11   -1    0    0    0    0  0.00000000000E+00  0.00000000000E+00  0.45593999997E+02  0.45594000000E+02  0.51100000000E-03 0.  1.
         11   -1    0    0    0    0 -0.00000000000E+00 -0.00000000000E+00 -0.45593999997E+02  0.45594000000E+02  0.51100000000E-03 0. -1.
    9900012    2    1    2    0    0 -0.19648219536E+02  0.30303489245E+02 -0.18676509426E+02  0.50528855939E+02  0.29999988114E+02 0.  0.
        -12    1    1    2    0    0  0.19648219536E+02 -0.30303489245E+02  0.18676509426E+02  0.40659144061E+02  0.00000000000E+00 0.  1.
         11    1    3    3    0    0  0.27971737932E+00  0.10281873890E+02 -0.41683364167E+01  0.11098207119E+02  0.51100000000E-03 0. -1.
        -11    1    3    3    0    0 -0.17930982273E+02  0.72810089491E+01 -0.17611077190E+02  0.26166452886E+02  0.51100000000E-03 0.  1.
        -12    1    3    3    0    0 -0.19969546423E+01  0.12740606406E+02  0.31029041803E+01  0.13264195935E+02  0.00000000000E+00 0.  1.
</event>
<event>
 7    1  0.4963616E-011  0.5052887E+02  0.7816164E-02  0.1300439E+00
        -11   -1    0    0    0    0  0.00000000000E+00  0.00000000000E+00  0.45593999997E+02  0.45594000000E+02  0.51100000000E-03 0.  1.
         11   -1    0    0    0    0 -0.00000000000E+00 -0.00000000000E+00 -0.45593999997E+02  0.45594000000E+02  0.51100000000E-03 0. -1.
    9900012    2    1    2    0    0  0.17382001635E+02 -0.33478924215E+02 -0.15172108216E+02  0.50528865538E+02  0.30000017291E+02 0.  0.
        -12    1    1    2    0    0 -0.17382001635E+02  0.33478924215E+02  0.15172108216E+02  0.40659134462E+02  0.00000000000E+00 0.  1.
         11    1    3    3    0    0  0.20006980314E+02 -0.34003362618E+02 -0.90354504199E+01  0.40474032357E+02  0.51100000000E-03 0. -1.
        -11    1    3    3    0    0 -0.49256068334E+01 -0.77314980249E+00 -0.53175189411E+01  0.72894012954E+01  0.51100000000E-03 0.  1.
        -12    1    3    3    0    0  0.23006281542E+01  0.12975882056E+01 -0.81913885491E+00  0.27654318865E+01  0.00000000000E+00 0.  1.
</event>
<event>
 7    1  0.4963616E-011  0.5052886E+02  0.7816164E-02  0.1300439E+00
        -11   -1    0    0    0    0  0.00000000000E+00  0.00000000000E+00  0.45593999997E+02  0.45594000000E+02  0.51100000000E-03 0. -1.
         11   -1    0    0    0    0 -0.00000000000E+00 -0.00000000000E+00 -0.45593999997E+02  0.45594000000E+02  0.51100000000E-03 0.  1.
    9900012    2    1    2    0    0 -0.16238004488E+02  0.30903958121E+02  0.20843192004E+02  0.50528855024E+02  0.29999985330E+02 0.  0.
        -12    1    1    2    0    0  0.16238004488E+02 -0.30903958121E+02 -0.20843192004E+02  0.40659144976E+02  0.00000000000E+00 0.  1.
         11    1    3    3    0    0 -0.14540098641E+02  0.31535005735E+02  0.19568228347E+02  0.39859586251E+02  0.51100000000E-03 0. -1.
        -11    1    3    3    0    0  0.24981466453E+00  0.30701436081E+00 -0.44925243145E+01  0.45099268466E+01  0.51100000000E-03 0.  1.
         12    1    3    3    0    0 -0.19477205113E+01 -0.93806197494E+00  0.57674879715E+01  0.61593419259E+01  0.00000000000E+00 0. -1.
</event>
<event>
 7    1  0.4963616E-011  0.5052886E+02  0.7816164E-02  0.1300439E+00
        -11   -1    0    0    0    0  0.00000000000E+00  0.00000000000E+00  0.45593999997E+02  0.45594000000E+02  0.51100000000E-03 0.  1.
         11   -1    0    0    0    0 -0.00000000000E+00 -0.00000000000E+00 -0.45593999997E+02  0.45594000000E+02  0.51100000000E-03 0. -1.
    9900012    2    1    2    0    0  0.33645645379E+02 -0.11340700824E+01 -0.22800223756E+02  0.50528858700E+02  0.29999996503E+02 0.  0.
        -12    1    1    2    0    0 -0.33645645379E+02  0.11340700824E+01  0.22800223756E+02  0.40659141300E+02  0.00000000000E+00 0.  1.
         11    1    3    3    0    0  0.11890245806E+02 -0.55932433774E+01 -0.10067597409E+02  0.16553514268E+02  0.51100000000E-03 0. -1.
        -11    1    3    3    0    0  0.39037942656E+01  0.11587282094E+02 -0.40224335086E+01  0.12871856416E+02  0.51100000000E-03 0.  1.
        -12    1    3    3    0    0  0.17851605308E+02 -0.71281087989E+01 -0.87101928390E+01  0.21103488016E+02  0.00000000000E+00 0.  1.
</event>
<event>
 7    1  0.4963616E-011  0.5052887E+02  0.7816164E-02  0.1300439E+00
        -11   -1    0    0    0    0  0.00000000000E+00  0.00000000000E+00  0.45593999997E+02  0.45594000000E+02  0.51100000000E-03 0.  1.
         11   -1    0    0    0    0 -0.00000000000E+00 -0.00000000000E+00 -0.45593999997E+02  0.45594000000E+02  0.51100000000E-03 0. -1.
    9900012    2    1    2    0    0 -0.18198006635E+02  0.86764533539E+00 -0.36348932617E+02  0.50528866262E+02  0.30000019490E+02 0.  0.
        -12    1    1    2    0    0  0.18198006635E+02 -0.86764533539E+00  0.36348932617E+02  0.40659133738E+02  0.00000000000E+00 0.  1.
         11    1    3    3    0    0 -0.11090603442E+02  0.13340515528E+02 -0.23789254926E+02  0.29443156920E+02  0.51100000000E-03 0. -1.
        -11    1    3    3    0    0  0.17428833293E+01 -0.48044604780E+00 -0.40332501001E+00  0.18523342110E+01  0.51100000000E-03 0.  1.
         12    1    3    3    0    0 -0.88502865225E+01 -0.11992424145E+02 -0.12156352681E+02  0.19233375130E+02  0.00000000000E+00 0. -1.
</event>
<event>
 7    1  0.4963616E-011  0.5052897E+02  0.7816164E-02  0.1300438E+00
        -11   -1    0    0    0    0  0.00000000000E+00  0.00000000000E+00  0.45593999997E+02  0.45594000000E+02  0.51100000000E-03 0.  1.
         11   -1    0    0    0    0 -0.00000000000E+00 -0.00000000000E+00 -0.45593999997E+02  0.45594000000E+02  0.51100000000E-03 0. -1.
    9900012    2    1    2    0    0  0.38893350297E+02  0.83542687747E+01 -0.84065748380E+01  0.50528966507E+02  0.30000324192E+02 0.  0.
        -12    1    1    2    0    0 -0.38893350297E+02 -0.83542687747E+01  0.84065748380E+01  0.40659033493E+02  0.00000000000E+00 0.  1.
         11    1    3    3    0    0  0.25241668125E+02 -0.77800532366E+01 -0.53858939194E+01  0.26956982243E+02  0.51100000000E-03 0. -1.
        -11    1    3    3    0    0 -0.14319692308E+01  0.11818671419E+01  0.74720729900E+00  0.20014157059E+01  0.51100000000E-03 0.  1.
         12    1    3    3    0    0  0.15083651403E+02  0.14952454869E+02 -0.37678882175E+01  0.21570568558E+02  0.00000000000E+00 0. -1.
</event>
<event>
 7    1  0.4963616E-011  0.5052886E+02  0.7816164E-02  0.1300439E+00
        -11   -1    0    0    0    0  0.00000000000E+00  0.00000000000E+00  0.45593999997E+02  0.45594000000E+02  0.51100000000E-03 0.  1.
         11   -1    0    0    0    0 -0.00000000000E+00 -0.00000000000E+00 -0.45593999997E+02  0.45594000000E+02  0.51100000000E-03 0. -1.
    9900012    2    1    2    0    0 -0.24904894763E+02 -0.26090612229E+02 -0.18766781004E+02  0.50528857130E+02  0.29999991733E+02 0.  0.
        -12    1    1    2    0    0  0.24904894763E+02  0.26090612229E+02  0.18766781004E+02  0.40659142870E+02  0.00000000000E+00 0.  1.
         11    1    3    3    0    0 -0.82534565835E+01 -0.79821181278E+00 -0.14581126661E+02  0.16773966217E+02  0.51100000000E-03 0. -1.
        -11    1    3    3    0    0 -0.42359899969E+01 -0.18167204699E+02  0.59200618273E+00  0.18663906596E+02  0.51100000000E-03 0.  1.
         12    1    3    3    0    0 -0.12415448182E+02 -0.71251957170E+01 -0.47776605259E+01  0.15090984318E+02  0.00000000000E+00 0. -1.
</event>
<event>
 7    1  0.4963616E-011  0.5052886E+02  0.7816164E-02  0.1300439E+00
        -11   -1    0    0    0    0  0.00000000000E+00  0.00000000000E+00  0.45593999997E+02  0.45594000000E+02  0.51100000000E-03 0. -1.
         11   -1    0    0    0    0 -0.00000000000E+00 -0.00000000000E+00 -0.45593999997E+02  0.45594000000E+02  0.51100000000E-03 0.  1.
    9900012    2    1    2    0    0  0.20375763730E+02 -0.44629764693E+01  0.34900940080E+02  0.50528861728E+02  0.30000005707E+02 0.  0.
        -12    1    1    2    0    0 -0.20375763730E+02  0.44629764693E+01 -0.34900940080E+02  0.40659138272E+02  0.00000000000E+00 0.  1.
         11    1    3    3    0    0  0.38676602556E+01 -0.67852444705E+01  0.25762403297E+02  0.26920248183E+02  0.51100000000E-03 0. -1.
        -11    1    3    3    0    0  0.26280590598E+01  0.34340051792E+01 -0.28958422801E+01  0.52043240450E+01  0.51100000000E-03 0.  1.
        -12    1    3    3    0    0  0.13880044415E+02 -0.11117371780E+01  0.12034379064E+02  0.18404289499E+02  0.00000000000E+00 0.  1.
</event>
<event>
 7    1  0.4963616E-011  0.5052886E+02  0.7816164E-02  0.1300439E+00
        -11   -1    0    0    0    0  0.00000000000E+00  0.00000000000E+00  0.45593999997E+02  0.45594000000E+02  0.51100000000E-03 0. -1.
         11   -1    0    0    0    0 -0.00000000000E+00 -0.00000000000E+00 -0.45593999997E+02  0.45594000000E+02  0.51100000000E-03 0.  1.
    9900012    2    1    2    0    0 -0.26105404340E+02  0.27138693356E+02  0.15335096154E+02  0.50528856048E+02  0.29999988443E+02 0.  0.
        -12    1    1    2    0    0  0.26105404340E+02 -0.27138693356E+02 -0.15335096154E+02  0.40659143952E+02  0.00000000000E+00 0.  1.
         11    1    3    3    0    0 -0.11716332238E+01  0.17739239442E+02  0.12809642762E+02  0.21912103695E+02  0.51100000000E-03 0. -1.
        -11    1    3    3    0    0 -0.17131547272E+02  0.11083559361E+02  0.63573416294E+00  0.20414195018E+02  0.51100000000E-03 0.  1.
         12    1    3    3    0    0 -0.78022238447E+01 -0.16841054465E+01  0.18897192298E+01  0.82025573357E+01  0.00000000000E+00 0. -1.
</event>
<event>
 7    1  0.4963616E-011  0.5052886E+02  0.7816164E-02  0.1300439E+00
        -11   -1    0    0    0    0  0.00000000000E+00  0.00000000000E+00  0.45593999997E+02  0.45594000000E+02  0.51100000000E-03 0. -1.
         11   -1    0    0    0    0 -0.00000000000E+00 -0.00000000000E+00 -0.45593999997E+02  0.45594000000E+02  0.51100000000E-03 0.  1.
    9900012    2    1    2    0    0 -0.12037458587E+02  0.33827038951E+02 -0.19078700259E+02  0.50528858629E+02  0.29999996289E+02 0.  0.
        -12    1    1    2    0    0  0.12037458587E+02 -0.33827038951E+02  0.19078700259E+02  0.40659141371E+02  0.00000000000E+00 0.  1.
         11    1    3    3    0    0 -0.21863298926E+01  0.15737443633E+02 -0.34984053458E+01  0.16269173633E+02  0.51100000000E-03 0. -1.
        -11    1    3    3    0    0  0.59961915377E+01  0.23538566019E+01 -0.88283020096E+01  0.10928580443E+02  0.51100000000E-03 0.  1.
        -12    1    3    3    0    0 -0.15847320232E+02  0.15735738717E+02 -0.67519929036E+01  0.23331104553E+02  0.00000000000E+00 0.  1.
</event>
<event>
 7    1  0.4963616E-011  0.5052886E+02  0.7816164E-02  0.1300439E+00
        -11   -1    0    0    0    0  0.00000000000E+00  0.00000000000E+00  0.45593999997E+02  0.45594000000E+02  0.51100000000E-03 0. -1.
         11   -1    0    0    0    0 -0.00000000000E+00 -0.00000000000E+00 -0.45593999997E+02  0.45594000000E+02  0.51100000000E-03 0.  1.
    9900012    2    1    2    0    0  0.22450013917E+02 -0.33867524848E+02  0.14674448342E+01  0.50528858856E+02  0.29999996980E+02 0.  0.
        -12    1    1    2    0    0 -0.22450013917E+02  0.33867524848E+02 -0.14674448342E+01  0.40659141144E+02  0.00000000000E+00 0.  1.
         11    1    3    3    0    0  0.61106496196E+01 -0.13111078474E+02  0.13507502471E+02  0.19791236464E+02  0.51100000000E-03 0. -1.
        -11    1    3    3    0    0  0.12443792008E+02 -0.14980467152E+02 -0.36187236571E+01  0.19808016478E+02  0.51100000000E-03 0.  1.
         12    1    3    3    0    0  0.38955722891E+01 -0.57759792227E+01 -0.84213339797E+01  0.10929605914E+02  0.00000000000E+00 0. -1.
</event>
<event>
 7    1  0.4963616E-011  0.5052886E+02  0.7816164E-02  0.1300439E+00
        -11   -1    0    0    0    0  0.00000000000E+00  0.00000000000E+00  0.45593999997E+02  0.45594000000E+02  0.51100000000E-03 0.  1.
         11   -1    0    0    0    0 -0.00000000000E+00 -0.00000000000E+00 -0.45593999997E+02  0.45594000000E+02  0.51100000000E-03 0. -1.
    9900012    2    1    2    0    0 -0.53223832702E+01  0.18521793483E+02 -0.35801974469E+02  0.50528856214E+02  0.29999988948E+02 0.  0.
        -12    1    1    2    0    0  0.53223832702E+01 -0.18521793483E+02  0.35801974469E+02  0.40659143786E+02  0.00000000000E+00 0.  1.
         11    1    3    3    0    0 -0.10353419789E+02  0.16554933095E+02 -0.27184989810E+02  0.33470625664E+02  0.51100000000E-03 0. -1.
        -11    1    3    3    0    0  0.75493782658E+01 -0.37792105794E+01 -0.47105087271E+01  0.96677007366E+01  0.51100000000E-03 0.  1.
        -12    1    3    3    0    0 -0.25183417471E+01  0.57460709673E+01 -0.39064759321E+01  0.73905298136E+01  0.00000000000E+00 0.  1.
</event>
<event>
 7    1  0.4963616E-011  0.5052885E+02  0.7816164E-02  0.1300439E+00
        -11   -1    0    0    0    0  0.00000000000E+00  0.00000000000E+00  0.45593999997E+02  0.45594000000E+02  0.51100000000E-03 0. -1.
         11   -1    0    0    0    0 -0.00000000000E+00 -0.00000000000E+00 -0.45593999997E+02  0.45594000000E+02  0.51100000000E-03 0.  1.
    9900012    2    1    2    0    0 -0.39583377095E+02 -0.94757256605E+00 -0.92425624729E+01  0.50528848545E+02  0.29999965637E+02 0.  0.
        -12    1    1    2    0    0  0.39583377095E+02  0.94757256605E+00  0.92425624729E+01  0.40659151455E+02  0.00000000000E+00 0.  1.
         11    1    3    3    0    0 -0.35310314712E+02  0.93922655805E+01 -0.29891695065E+01  0.36660170654E+02  0.51100000000E-03 0. -1.
        -11    1    3    3    0    0  0.34583264243E+00 -0.60392929697E+01 -0.34408287549E+01  0.69593076216E+01  0.51100000000E-03 0.  1.
         12    1    3    3    0    0 -0.46188950252E+01 -0.43005451769E+01 -0.28125642116E+01  0.69093702692E+01  0.00000000000E+00 0. -1.
</event>
<event>
 7    1  0.4963616E-011  0.5052886E+02  0.7816164E-02  0.1300439E+00
        -11   -1    0    0    0    0  0.00000000000E+00  0.00000000000E+00  0.45593999997E+02  0.45594000000E+02  0.51100000000E-03 0.  1.
         11   -1    0    0    0    0 -0.00000000000E+00 -0.00000000000E+00 -0.45593999997E+02  0.45594000000E+02  0.51100000000E-03 0. -1.
    9900012    2    1    2    0    0  0.23749478981E+02  0.41734712658E+01 -0.32736984644E+02  0.50528858619E+02  0.29999996259E+02 0.  0.
        -12    1    1    2    0    0 -0.23749478981E+02 -0.41734712658E+01  0.32736984644E+02  0.40659141381E+02  0.00000000000E+00 0.  1.
         11    1    3    3    0    0  0.71696146153E+01 -0.82559140027E+01 -0.17041380534E+02  0.20247768779E+02  0.51100000000E-03 0. -1.
        -11    1    3    3    0    0  0.11147494803E+02  0.79899208726E+01 -0.70878822252E+00  0.13733457574E+02  0.51100000000E-03 0.  1.
        -12    1    3    3    0    0  0.54323695620E+01  0.44394643959E+01 -0.14986815887E+02  0.16547632266E+02  0.00000000000E+00 0.  1.
</event>
<event>
 7    1  0.4963616E-011  0.5052886E+02  0.7816164E-02  0.1300439E+00
        -11   -1    0    0    0    0  0.00000000000E+00  0.00000000000E+00  0.45593999997E+02  0.45594000000E+02  0.51100000000E-03 0.  1.
         11   -1    0    0    0    0 -0.00000000000E+00 -0.00000000000E+00 -0.45593999997E+02  0.45594000000E+02  0.51100000000E-03 0. -1.
    9900012    2    1    2    0    0 -0.77550774813E+01  0.87852251067E+01 -0.38933849429E+02  0.50528855417E+02  0.29999986524E+02 0.  0.
        -12    1    1    2    0    0  0.77550774813E+01 -0.87852251067E+01  0.38933849429E+02  0.40659144583E+02  0.00000000000E+00 0.  1.
         11    1    3    3    0    0 -0.41727558133E-01  0.16202797883E+02 -0.30586827991E+02  0.34613385377E+02  0.51100000000E-03 0. -1.
        -11    1    3    3    0    0 -0.89343728675E+01 -0.53661732232E+01 -0.86035593937E+01  0.13514439245E+02  0.51100000000E-03 0.  1.
         12    1    3    3    0    0  0.12210229443E+01 -0.20513995528E+01  0.25653795629E+00  0.24010307951E+01  0.00000000000E+00 0. -1.
</event>
<event>
 7    1  0.4963616E-011  0.5052886E+02  0.7816164E-02  0.1300439E+00
        -11   -1    0    0    0    0  0.00000000000E+00  0.00000000000E+00  0.45593999997E+02  0.45594000000E+02  0.51100000000E-03 0.  1.
         11   -1    0    0    0    0 -0.00000000000E+00 -0.00000000000E+00 -0.45593999997E+02  0.45594000000E+02  0.51100000000E-03 0. -1.
    9900012    2    1    2    0    0  0.99783028784E+01 -0.16330989333E+02 -0.35873355649E+02  0.50528863432E+02  0.30000010888E+02 0.  0.
        -12    1    1    2    0    0 -0.99783028784E+01  0.16330989333E+02  0.35873355649E+02  0.40659136568E+02  0.00000000000E+00 0.  1.
         11    1    3    3    0    0 -0.16415125431E+01  0.38412367728E+01 -0.23948872592E+02  0.24310453761E+02  0.51100000000E-03 0. -1.
        -11    1    3    3    0    0  0.61686593843E+01 -0.90263131503E+01 -0.59575428893E+01  0.12450662843E+02  0.51100000000E-03 0.  1.
         12    1    3    3    0    0  0.54511560371E+01 -0.11145912956E+02 -0.59669401673E+01  0.13767746828E+02  0.00000000000E+00 0. -1.
</event>
<event>
 7    1  0.4963616E-011  0.5052886E+02  0.7816164E-02  0.1300439E+00
        -11   -1    0    0    0    0  0.00000000000E+00  0.00000000000E+00  0.45593999997E+02  0.45594000000E+02  0.51100000000E-03 0. -1.
         11   -1    0    0    0    0 -0.00000000000E+00 -0.00000000000E+00 -0.45593999997E+02  0.45594000000E+02  0.51100000000E-03 0.  1.
    9900012    2    1    2    0    0 -0.26242548032E+01  0.18914691923E+02  0.35895872356E+02  0.50528856674E+02  0.29999990346E+02 0.  0.
        -12    1    1    2    0    0  0.26242548032E+01 -0.18914691923E+02 -0.35895872356E+02  0.40659143326E+02  0.00000000000E+00 0.  1.
         11    1    3    3    0    0 -0.10662322535E+02  0.44418191889E+01  0.15858289068E+02  0.19618873871E+02  0.51100000000E-03 0.  1.
        -11    1    3    3    0    0  0.21514732940E+01  0.13130708683E+02  0.41879444620E+01  0.13949309192E+02  0.51100000000E-03 0. -1.
         12    1    3    3    0    0  0.58865944377E+01  0.13421640508E+01  0.15849638826E+02  0.16960673610E+02  0.00000000000E+00 0. -1.
</event>
<event>
 7    1  0.4963616E-011  0.5052886E+02  0.7816164E-02  0.1300439E+00
        -11   -1    0    0    0    0  0.00000000000E+00  0.00000000000E+00  0.45593999997E+02  0.45594000000E+02  0.51100000000E-03 0.  1.
         11   -1    0    0    0    0 -0.00000000000E+00 -0.00000000000E+00 -0.45593999997E+02  0.45594000000E+02  0.51100000000E-03 0. -1.
    9900012    2    1    2    0    0  0.26263128107E+02 -0.23605897840E+02  0.20153798639E+02  0.50528856989E+02  0.29999991304E+02 0.  0.
        -12    1    1    2    0    0 -0.26263128107E+02  0.23605897840E+02 -0.20153798639E+02  0.40659143011E+02  0.00000000000E+00 0.  1.
         11    1    3    3    0    0  0.18789206026E+02 -0.28202919057E+02  0.21791846157E+02  0.40290488525E+02  0.51100000000E-03 0. -1.
        -11    1    3    3    0    0  0.75779925289E+01  0.28205170634E+01 -0.21863912279E+01  0.83762517952E+01  0.51100000000E-03 0.  1.
         12    1    3    3    0    0 -0.10407044825E+00  0.17765041528E+01  0.54834370943E+00  0.18621166684E+01  0.00000000000E+00 0. -1.
</event>
<event>
 7    1  0.4963616E-011  0.5052886E+02  0.7816164E-02  0.1300439E+00
        -11   -1    0    0    0    0  0.00000000000E+00  0.00000000000E+00  0.45593999997E+02  0.45594000000E+02  0.51100000000E-03 0.  1.
         11   -1    0    0    0    0 -0.00000000000E+00 -0.00000000000E+00 -0.45593999997E+02  0.45594000000E+02  0.51100000000E-03 0. -1.
    9900012    2    1    2    0    0 -0.40022746021E+02 -0.35165191919E+01 -0.62433705997E+01  0.50528858559E+02  0.29999996077E+02 0.  0.
        -12    1    1    2    0    0  0.40022746021E+02  0.35165191919E+01  0.62433705997E+01  0.40659141441E+02  0.00000000000E+00 0.  1.
         11    1    3    3    0    0 -0.26095108663E+02 -0.12949155059E+02 -0.61777929639E+01  0.29779194735E+02  0.51100000000E-03 0. -1.
        -11    1    3    3    0    0 -0.45582264600E+01 -0.26190550897E+01  0.13240490856E+01  0.54212530162E+01  0.51100000000E-03 0.  1.
         12    1    3    3    0    0 -0.93694108977E+01  0.12051690957E+02 -0.13896267213E+01  0.15328410809E+02  0.00000000000E+00 0. -1.
</event>
<event>
 7    1  0.4963616E-011  0.5052886E+02  0.7816164E-02  0.1300439E+00
        -11   -1    0    0    0    0  0.00000000000E+00  0.00000000000E+00  0.45593999997E+02  0.45594000000E+02  0.51100000000E-03 0.  1.
         11   -1    0    0    0    0 -0.00000000000E+00 -0.00000000000E+00 -0.45593999997E+02  0.45594000000E+02  0.51100000000E-03 0. -1.
    9900012    2    1    2    0    0 -0.38294259940E+02 -0.11660923884E+02  0.71231003064E+01  0.50528855295E+02  0.29999986154E+02 0.  0.
        -12    1    1    2    0    0  0.38294259940E+02  0.11660923884E+02 -0.71231003064E+01  0.40659144705E+02  0.00000000000E+00 0.  1.
         11    1    3    3    0    0 -0.22789232618E+02  0.57747530295E+01  0.28888104632E+01  0.23686327745E+02  0.51100000000E-03 0. -1.
        -11    1    3    3    0    0  0.10818916347E+01 -0.39947495216E+01 -0.20072679280E+01  0.45997432587E+01  0.51100000000E-03 0.  1.
         12    1    3    3    0    0 -0.16586918957E+02 -0.13440927392E+02  0.62415577713E+01  0.22242784292E+02  0.00000000000E+00 0. -1.
</event>
<event>
 7    1  0.4963616E-011  0.5052886E+02  0.7816164E-02  0.1300439E+00
        -11   -1    0    0    0    0  0.00000000000E+00  0.00000000000E+00  0.45593999997E+02  0.45594000000E+02  0.51100000000E-03 0.  1.
         11   -1    0    0    0    0 -0.00000000000E+00 -0.00000000000E+00 -0.45593999997E+02  0.45594000000E+02  0.51100000000E-03 0. -1.
    9900012    2    1    2    0    0  0.12766295290E+02 -0.14265302757E+02 -0.35870439835E+02  0.50528860657E+02  0.30000002452E+02 0.  0.
        -12    1    1    2    0    0 -0.12766295290E+02  0.14265302757E+02  0.35870439835E+02  0.40659139343E+02  0.00000000000E+00 0.  1.
         11    1    3    3    0    0  0.19059334164E+02 -0.13213555528E+02 -0.34542336305E+02  0.41605639835E+02  0.51100000000E-03 0. -1.
        -11    1    3    3    0    0 -0.50035185747E+01 -0.16573912193E+01 -0.34990384676E+01  0.63265641734E+01  0.51100000000E-03 0.  1.
         12    1    3    3    0    0 -0.12895202996E+01  0.60564398995E+00  0.21709349372E+01  0.25966566479E+01  0.00000000000E+00 0. -1.
</event>
<event>
 7    1  0.4963616E-011  0.5052886E+02  0.7816164E-02  0.1300439E+00
        -11   -1    0    0    0    0  0.00000000000E+00  0.00000000000E+00  0.45593999997E+02  0.45594000000E+02  0.51100000000E-03 0.  1.
         11   -1    0    0    0    0 -0.00000000000E+00 -0.00000000000E+00 -0.45593999997E+02  0.45594000000E+02  0.51100000000E-03 0. -1.
    9900012    2    1    2    0    0  0.82801846863E+01  0.35874413966E+02 -0.17251977557E+02  0.50528858771E+02  0.29999996721E+02 0.  0.
        -12    1    1    2    0    0 -0.82801846863E+01 -0.35874413966E+02  0.17251977557E+02  0.40659141229E+02  0.00000000000E+00 0.  1.
         11    1    3    3    0    0 -0.55318948369E+01  0.11605127473E+02 -0.12555945188E+02  0.17970325650E+02  0.51100000000E-03 0.  1.
        -11    1    3    3    0    0  0.14061801281E+02  0.23228844896E+02 -0.86218855857E+01  0.28489478790E+02  0.51100000000E-03 0. -1.
        -12    1    3    3    0    0 -0.24972175727E+00  0.10404415974E+01  0.39258532160E+01  0.40690543309E+01  0.00000000000E+00 0.  1.
</event>
<event>
 7    1  0.4963616E-011  0.5052886E+02  0.7816164E-02  0.1300439E+00
        -11   -1    0    0    0    0  0.00000000000E+00  0.00000000000E+00  0.45593999997E+02  0.45594000000E+02  0.51100000000E-03 0. -1.
         11   -1    0    0    0    0 -0.00000000000E+00 -0.00000000000E+00 -0.45593999997E+02  0.45594000000E+02  0.51100000000E-03 0.  1.
    9900012    2    1    2    0    0 -0.16899199004E+02  0.36715855153E+02  0.44191204999E+01  0.50528861143E+02  0.30000003932E+02 0.  0.
        -12    1    1    2    0    0  0.16899199004E+02 -0.36715855153E+02 -0.44191204999E+01  0.40659138857E+02  0.00000000000E+00 0.  1.
         11    1    3    3    0    0 -0.11550145242E+02  0.26245905143E+02  0.11706850368E+02  0.30972628847E+02  0.51100000000E-03 0. -1.
        -11    1    3    3    0    0 -0.75062287529E+00 -0.33408444197E+01 -0.24752254655E+01  0.42250937864E+01  0.51100000000E-03 0.  1.
        -12    1    3    3    0    0 -0.45984308867E+01  0.13810794429E+02 -0.48125044029E+01  0.15331138510E+02  0.00000000000E+00 0.  1.
</event>
<event>
 7    1  0.4963616E-011  0.5052886E+02  0.7816164E-02  0.1300439E+00
        -11   -1    0    0    0    0  0.00000000000E+00  0.00000000000E+00  0.45593999997E+02  0.45594000000E+02  0.51100000000E-03 0. -1.
         11   -1    0    0    0    0 -0.00000000000E+00 -0.00000000000E+00 -0.45593999997E+02  0.45594000000E+02  0.51100000000E-03 0.  1.
    9900012    2    1    2    0    0  0.34510859237E+02  0.21037087874E+02 -0.44280327365E+01  0.50528856558E+02  0.29999989993E+02 0.  0.
        -12    1    1    2    0    0 -0.34510859237E+02 -0.21037087874E+02  0.44280327365E+01  0.40659143442E+02  0.00000000000E+00 0.  1.
         11    1    3    3    0    0  0.24401267050E+02  0.95974165363E+01  0.10165582970E+02  0.28122434376E+02  0.51100000000E-03 0. -1.
        -11    1    3    3    0    0  0.84214899427E+01  0.93911801900E+01 -0.15129787447E+02  0.19698381321E+02  0.51100000000E-03 0.  1.
        -12    1    3    3    0    0  0.16881022443E+01  0.20484911479E+01  0.53617174036E+00  0.27080408611E+01  0.00000000000E+00 0.  1.
</event>
<event>
 7    1  0.4963616E-011  0.5052886E+02  0.7816164E-02  0.1300439E+00
        -11   -1    0    0    0    0  0.00000000000E+00  0.00000000000E+00  0.45593999997E+02  0.45594000000E+02  0.51100000000E-03 0.  1.
         11   -1    0    0    0    0 -0.00000000000E+00 -0.00000000000E+00 -0.45593999997E+02  0.45594000000E+02  0.51100000000E-03 0. -1.
    9900012    2    1    2    0    0 -0.29679838276E+02 -0.12090256951E+02 -0.25021956087E+02  0.50528863270E+02  0.30000010394E+02 0.  0.
        -12    1    1    2    0    0  0.29679838276E+02  0.12090256951E+02  0.25021956087E+02  0.40659136730E+02  0.00000000000E+00 0.  1.
         11    1    3    3    0    0 -0.18192530786E+02 -0.53713086124E+01 -0.20823858429E+01  0.19082857849E+02  0.51100000000E-03 0. -1.
        -11    1    3    3    0    0 -0.76570687436E+01 -0.12443839592E+02 -0.16028799839E+02  0.21688759072E+02  0.51100000000E-03 0.  1.
        -12    1    3    3    0    0 -0.38302387461E+01  0.57248912534E+01 -0.69107704054E+01  0.97572463488E+01  0.00000000000E+00 0.  1.
</event>
<event>
 7    1  0.4963616E-011  0.5052886E+02  0.7816164E-02  0.1300439E+00
        -11   -1    0    0    0    0  0.00000000000E+00  0.00000000000E+00  0.45593999997E+02  0.45594000000E+02  0.51100000000E-03 0. -1.
         11   -1    0    0    0    0 -0.00000000000E+00 -0.00000000000E+00 -0.45593999997E+02  0.45594000000E+02  0.51100000000E-03 0.  1.
    9900012    2    1    2    0    0 -0.25863728634E+02 -0.69091276046E+01  0.30602240655E+02  0.50528860361E+02  0.30000001553E+02 0.  0.
        -12    1    1    2    0    0  0.25863728634E+02  0.69091276046E+01 -0.30602240655E+02  0.40659139639E+02  0.00000000000E+00 0.  1.
         11    1    3    3    0    0  0.30382239480E+01  0.30625488231E+00  0.16789274962E+02  0.17064710687E+02  0.51100000000E-03 0. -1.
        -11    1    3    3    0    0 -0.25169684754E+02 -0.84477722816E+01  0.12084184670E+02  0.29170282936E+02  0.51100000000E-03 0.  1.
         12    1    3    3    0    0 -0.37322678275E+01  0.12323897947E+01  0.17287810224E+01  0.42938667383E+01  0.00000000000E+00 0. -1.
</event>
<event>
 7    1  0.4963616E-011  0.5052885E+02  0.7816164E-02  0.1300439E+00
        -11   -1    0    0    0    0  0.00000000000E+00  0.00000000000E+00  0.45593999997E+02  0.45594000000E+02  0.51100000000E-03 0. -1.
         11   -1    0    0    0    0 -0.00000000000E+00 -0.00000000000E+00 -0.45593999997E+02  0.45594000000E+02  0.51100000000E-03 0.  1.
    9900012    2    1    2    0    0 -0.15764463647E+02  0.15920624853E+02  0.33929067676E+02  0.50528852896E+02  0.29999978864E+02 0.  0.
        -12    1    1    2    0    0  0.15764463647E+02 -0.15920624853E+02 -0.33929067676E+02  0.40659147104E+02  0.00000000000E+00 0.  1.
         11    1    3    3    0    0 -0.13707484089E+02  0.83121072468E+01  0.36207961693E+02  0.39598014308E+02  0.51100000000E-03 0. -1.
        -11    1    3    3    0    0 -0.42811956150E+01  0.61685177947E+01 -0.11442295380E+00  0.75094833745E+01  0.51100000000E-03 0.  1.
         12    1    3    3    0    0  0.22242160562E+01  0.14399998116E+01 -0.21644710625E+01  0.34213552143E+01  0.00000000000E+00 0. -1.
</event>
<event>
 7    1  0.4963616E-011  0.5052886E+02  0.7816164E-02  0.1300439E+00
        -11   -1    0    0    0    0  0.00000000000E+00  0.00000000000E+00  0.45593999997E+02  0.45594000000E+02  0.51100000000E-03 0. -1.
         11   -1    0    0    0    0 -0.00000000000E+00 -0.00000000000E+00 -0.45593999997E+02  0.45594000000E+02  0.51100000000E-03 0.  1.
    9900012    2    1    2    0    0 -0.18956978389E+02  0.30552737406E+02 -0.18982326808E+02  0.50528861744E+02  0.30000005758E+02 0.  0.
        -12    1    1    2    0    0  0.18956978389E+02 -0.30552737406E+02  0.18982326808E+02  0.40659138256E+02  0.00000000000E+00 0.  1.
         11    1    3    3    0    0 -0.19377018526E+02  0.10685184696E+02 -0.19838303729E+02  0.29718686277E+02  0.51100000000E-03 0. -1.
        -11    1    3    3    0    0  0.30216717607E+01  0.11781209146E+02 -0.66422718544E+00  0.12180664481E+02  0.51100000000E-03 0.  1.
         12    1    3    3    0    0 -0.26016316233E+01  0.80863435635E+01  0.15202041066E+01  0.86295109859E+01  0.00000000000E+00 0. -1.
</event>
<event>
 7    1  0.4963616E-011  0.5052886E+02  0.7816164E-02  0.1300439E+00
        -11   -1    0    0    0    0  0.00000000000E+00  0.00000000000E+00  0.45593999997E+02  0.45594000000E+02  0.51100000000E-03 0. -1.
         11   -1    0    0    0    0 -0.00000000000E+00 -0.00000000000E+00 -0.45593999997E+02  0.45594000000E+02  0.51100000000E-03 0.  1.
    9900012    2    1    2    0    0  0.28728988753E+02 -0.24674809848E+02  0.14797443367E+02  0.50528863684E+02  0.30000011653E+02 0.  0.
        -12    1    1    2    0    0 -0.28728988753E+02  0.24674809848E+02 -0.14797443367E+02  0.40659136316E+02  0.00000000000E+00 0.  1.
         11    1    3    3    0    0  0.27109189090E+02 -0.23507234319E+02  0.18538754497E+02  0.40387914244E+02  0.51100000000E-03 0. -1.
        -11    1    3    3    0    0 -0.77710548797E-01  0.28036525733E+01  0.16336765227E+01  0.32458290040E+01  0.51100000000E-03 0.  1.
         12    1    3    3    0    0  0.16975102122E+01 -0.39712281016E+01 -0.53749876527E+01  0.68951204356E+01  0.00000000000E+00 0. -1.
</event>
<event>
 7    1  0.8752285E-011  0.5052886E+02  0.7816164E-02  0.1300439E+00
        -11   -1    0    0    0    0  0.00000000000E+00  0.00000000000E+00  0.45593999997E+02  0.45594000000E+02  0.51100000000E-03 0.  1.
         11   -1    0    0    0    0 -0.00000000000E+00 -0.00000000000E+00 -0.45593999997E+02  0.45594000000E+02  0.51100000000E-03 0. -1.
    9900012    2    1    2    0    0 -0.17177200177E+01  0.38611044766E+02 -0.12625473819E+02  0.50528856758E+02  0.29999990603E+02 0.  0.
        -12    1    1    2    0    0  0.17177200177E+01 -0.38611044766E+02  0.12625473819E+02  0.40659143242E+02  0.00000000000E+00 0.  1.
         11    1    3    3    0    0  0.46777746864E+00  0.21036052297E+02 -0.12172771615E+02  0.24308654448E+02  0.51100000000E-03 0. -1.
        -11    1    3    3    0    0 -0.17881979089E+00 -0.41423253035E+01 -0.14370797012E+01  0.43881697513E+01  0.51100000000E-03 0.  1.
        -12    1    3    3    0    0 -0.20066776955E+01  0.21717317772E+02  0.98437749732E+00  0.21832032559E+02  0.00000000000E+00 0.  1.
</event>
<event>
 7    1  0.4963616E-011  0.5052888E+02  0.7816164E-02  0.1300439E+00
        -11   -1    0    0    0    0  0.00000000000E+00  0.00000000000E+00  0.45593999997E+02  0.45594000000E+02  0.51100000000E-03 0.  1.
         11   -1    0    0    0    0 -0.00000000000E+00 -0.00000000000E+00 -0.45593999997E+02  0.45594000000E+02  0.51100000000E-03 0. -1.
    9900012    2    1    2    0    0 -0.24007170533E+02  0.31101578474E+02 -0.10464767487E+02  0.50528883198E+02  0.30000070968E+02 0.  0.
        -12    1    1    2    0    0  0.24007170533E+02 -0.31101578474E+02  0.10464767487E+02  0.40659116802E+02  0.00000000000E+00 0.  1.
         11    1    3    3    0    0 -0.18396463788E+02  0.16018510943E+02 -0.78903522581E+01  0.25637477095E+02  0.51100000000E-03 0. -1.
        -11    1    3    3    0    0  0.13707778993E+01 -0.40249663961E+01  0.62559779565E+00  0.42977621389E+01  0.51100000000E-03 0.  1.
        -12    1    3    3    0    0 -0.69814846440E+01  0.19108033927E+02 -0.32000130245E+01  0.20593643965E+02  0.00000000000E+00 0.  1.
</event>
<event>
 7    1  0.4963616E-011  0.5052886E+02  0.7816164E-02  0.1300439E+00
        -11   -1    0    0    0    0  0.00000000000E+00  0.00000000000E+00  0.45593999997E+02  0.45594000000E+02  0.51100000000E-03 0.  1.
         11   -1    0    0    0    0 -0.00000000000E+00 -0.00000000000E+00 -0.45593999997E+02  0.45594000000E+02  0.51100000000E-03 0. -1.
    9900012    2    1    2    0    0  0.15071056336E+02 -0.11925611174E+02 -0.35830275223E+02  0.50528861255E+02  0.30000004271E+02 0.  0.
        -12    1    1    2    0    0 -0.15071056336E+02  0.11925611174E+02  0.35830275223E+02  0.40659138745E+02  0.00000000000E+00 0.  1.
         11    1    3    3    0    0  0.21514941053E+02 -0.93327961650E+01 -0.23107738326E+02  0.32923568208E+02  0.51100000000E-03 0. -1.
        -11    1    3    3    0    0 -0.39047787880E+01 -0.50856304627E+01 -0.12489785064E+02  0.14039432531E+02  0.51100000000E-03 0.  1.
         12    1    3    3    0    0 -0.25391059288E+01  0.24928154536E+01 -0.23275183295E+00  0.35658605159E+01  0.00000000000E+00 0. -1.
</event>
<event>
 7    1  0.4963616E-011  0.5052885E+02  0.7816164E-02  0.1300439E+00
        -11   -1    0    0    0    0  0.00000000000E+00  0.00000000000E+00  0.45593999997E+02  0.45594000000E+02  0.51100000000E-03 0.  1.
         11   -1    0    0    0    0 -0.00000000000E+00 -0.00000000000E+00 -0.45593999997E+02  0.45594000000E+02  0.51100000000E-03 0. -1.
    9900012    2    1    2    0    0 -0.88060924516E+01 -0.23062864630E+02 -0.32306714427E+02  0.50528846218E+02  0.29999958563E+02 0.  0.
        -12    1    1    2    0    0  0.88060924516E+01  0.23062864630E+02  0.32306714427E+02  0.40659153782E+02  0.00000000000E+00 0.  1.
         11    1    3    3    0    0 -0.36770157361E+01 -0.46627203974E+01 -0.57864671807E+01  0.82912368753E+01  0.51100000000E-03 0. -1.
        -11    1    3    3    0    0 -0.16112347151E+02 -0.96469547735E+01 -0.14017928810E+02  0.23434457440E+02  0.51100000000E-03 0.  1.
        -12    1    3    3    0    0  0.10983270436E+02 -0.87531894593E+01 -0.12502318436E+02  0.18803151902E+02  0.00000000000E+00 0.  1.
</event>
<event>
 7    1  0.4963616E-011  0.5052886E+02  0.7816164E-02  0.1300439E+00
        -11   -1    0    0    0    0  0.00000000000E+00  0.00000000000E+00  0.45593999997E+02  0.45594000000E+02  0.51100000000E-03 0.  1.
         11   -1    0    0    0    0 -0.00000000000E+00 -0.00000000000E+00 -0.45593999997E+02  0.45594000000E+02  0.51100000000E-03 0. -1.
    9900012    2    1    2    0    0  0.78747430057E+01 -0.19095612366E+02 -0.35021590597E+02  0.50528858383E+02  0.29999995542E+02 0.  0.
        -12    1    1    2    0    0 -0.78747430057E+01  0.19095612366E+02  0.35021590597E+02  0.40659141617E+02  0.00000000000E+00 0.  1.
         11    1    3    3    0    0  0.46010946914E+01 -0.86395093112E+01 -0.36408212320E+02  0.37701049297E+02  0.51100000000E-03 0. -1.
        -11    1    3    3    0    0  0.50291135592E+01 -0.92472983045E+01  0.55847919276E+00  0.10541176803E+02  0.51100000000E-03 0.  1.
        -12    1    3    3    0    0 -0.17554652449E+01 -0.12088047504E+01  0.82814252940E+00  0.22866322834E+01  0.00000000000E+00 0.  1.
</event>
<event>
 7    1  0.4963616E-011  0.5052886E+02  0.7816164E-02  0.1300439E+00
        -11   -1    0    0    0    0  0.00000000000E+00  0.00000000000E+00  0.45593999997E+02  0.45594000000E+02  0.51100000000E-03 0.  1.
         11   -1    0    0    0    0 -0.00000000000E+00 -0.00000000000E+00 -0.45593999997E+02  0.45594000000E+02  0.51100000000E-03 0. -1.
    9900012    2    1    2    0    0  0.28943716876E+02  0.23468962431E+02  0.16267601964E+02  0.50528858127E+02  0.29999994761E+02 0.  0.
        -12    1    1    2    0    0 -0.28943716876E+02 -0.23468962431E+02 -0.16267601964E+02  0.40659141873E+02  0.00000000000E+00 0.  1.
         11    1    3    3    0    0  0.30257570660E+02  0.72266162742E+01  0.10632150306E+02  0.32875327914E+02  0.51100000000E-03 0. -1.
        -11    1    3    3    0    0  0.74529630793E-01  0.26053489967E+01  0.24579250990E+01  0.35825680892E+01  0.51100000000E-03 0.  1.
         12    1    3    3    0    0 -0.13883834145E+01  0.13636997160E+02  0.31775265591E+01  0.14070962124E+02  0.00000000000E+00 0. -1.
</event>
<event>
 7    1  0.4963616E-011  0.5052887E+02  0.7816164E-02  0.1300439E+00
        -11   -1    0    0    0    0  0.00000000000E+00  0.00000000000E+00  0.45593999997E+02  0.45594000000E+02  0.51100000000E-03 0.  1.
         11   -1    0    0    0    0 -0.00000000000E+00 -0.00000000000E+00 -0.45593999997E+02  0.45594000000E+02  0.51100000000E-03 0. -1.
    9900012    2    1    2    0    0 -0.38654369090E+02 -0.12391035670E+02 -0.23381931173E+01  0.50528866195E+02  0.30000019287E+02 0.  0.
        -12    1    1    2    0    0  0.38654369090E+02  0.12391035670E+02  0.23381931173E+01  0.40659133805E+02  0.00000000000E+00 0.  1.
         11    1    3    3    0    0 -0.13916273607E+02 -0.60046057262E+00 -0.49827845842E+01  0.14793625873E+02  0.51100000000E-03 0. -1.
        -11    1    3    3    0    0 -0.23718305657E+02 -0.90730530197E+01  0.10409819547E+02  0.27445266579E+02  0.51100000000E-03 0.  1.
        -12    1    3    3    0    0 -0.10197898258E+01 -0.27175220773E+01 -0.77652280796E+01  0.82899737429E+01  0.00000000000E+00 0.  1.
</event>
<event>
 7    1  0.4963616E-011  0.5052885E+02  0.7816164E-02  0.1300439E+00
        -11   -1    0    0    0    0  0.00000000000E+00  0.00000000000E+00  0.45593999997E+02  0.45594000000E+02  0.51100000000E-03 0.  1.
         11   -1    0    0    0    0 -0.00000000000E+00 -0.00000000000E+00 -0.45593999997E+02  0.45594000000E+02  0.51100000000E-03 0. -1.
    9900012    2    1    2    0    0  0.33041671366E+02 -0.53098496194E+01 -0.23091553615E+02  0.50528850992E+02  0.29999973076E+02 0.  0.
        -12    1    1    2    0    0 -0.33041671366E+02  0.53098496194E+01  0.23091553615E+02  0.40659149008E+02  0.00000000000E+00 0.  1.
         11    1    3    3    0    0  0.16610154682E+02 -0.21692384504E+01 -0.22741298568E+02  0.28244813591E+02  0.51100000000E-03 0. -1.
        -11    1    3    3    0    0  0.59815787714E+01  0.30947680740E+01  0.55809679015E+01  0.87466609062E+01  0.51100000000E-03 0.  1.
         12    1    3    3    0    0  0.10449937913E+02 -0.62353792430E+01 -0.59312229493E+01  0.13537376495E+02  0.00000000000E+00 0. -1.
</event>
<event>
 7    1  0.4963616E-011  0.5052886E+02  0.7816164E-02  0.1300439E+00
        -11   -1    0    0    0    0  0.00000000000E+00  0.00000000000E+00  0.45593999997E+02  0.45594000000E+02  0.51100000000E-03 0. -1.
         11   -1    0    0    0    0 -0.00000000000E+00 -0.00000000000E+00 -0.45593999997E+02  0.45594000000E+02  0.51100000000E-03 0.  1.
    9900012    2    1    2    0    0  0.34089200346E+02 -0.14192973433E+02 -0.17019155445E+02  0.50528859242E+02  0.29999998153E+02 0.  0.
        -12    1    1    2    0    0 -0.34089200346E+02  0.14192973433E+02  0.17019155445E+02  0.40659140758E+02  0.00000000000E+00 0.  1.
         11    1    3    3    0    0 -0.23297262664E+00  0.58489140232E+01 -0.57010274915E+01  0.81710333628E+01  0.51100000000E-03 0. -1.
        -11    1    3    3    0    0  0.30363947309E+01  0.44261144111E+00 -0.24467447620E+01  0.39245583244E+01  0.51100000000E-03 0.  1.
         12    1    3    3    0    0  0.31285778241E+02 -0.20484498897E+02 -0.88713831917E+01  0.38433267555E+02  0.00000000000E+00 0. -1.
</event>
<event>
 7    1  0.4963616E-011  0.5052886E+02  0.7816164E-02  0.1300439E+00
        -11   -1    0    0    0    0  0.00000000000E+00  0.00000000000E+00  0.45593999997E+02  0.45594000000E+02  0.51100000000E-03 0. -1.
         11   -1    0    0    0    0 -0.00000000000E+00 -0.00000000000E+00 -0.45593999997E+02  0.45594000000E+02  0.51100000000E-03 0.  1.
    9900012    2    1    2    0    0 -0.84538582133E+01 -0.13838404664E+02  0.37285337514E+02  0.50528861349E+02  0.30000004556E+02 0.  0.
        -12    1    1    2    0    0  0.84538582133E+01  0.13838404664E+02 -0.37285337514E+02  0.40659138651E+02  0.00000000000E+00 0.  1.
         11    1    3    3    0    0 -0.19165380523E+02 -0.11503381067E+02  0.24018306836E+02  0.32810343645E+02  0.51100000000E-03 0. -1.
        -11    1    3    3    0    0  0.80422477759E+01  0.13394770354E+00  0.99720052046E+01  0.12811579892E+02  0.51100000000E-03 0.  1.
         12    1    3    3    0    0  0.26692745340E+01 -0.24689713001E+01  0.32950254730E+01  0.49069378115E+01  0.00000000000E+00 0. -1.
</event>
<event>
 7    1  0.4963616E-011  0.5052894E+02  0.7816164E-02  0.1300439E+00
        -11   -1    0    0    0    0  0.00000000000E+00  0.00000000000E+00  0.45593999997E+02  0.45594000000E+02  0.51100000000E-03 0. -1.
         11   -1    0    0    0    0 -0.00000000000E+00 -0.00000000000E+00 -0.45593999997E+02  0.45594000000E+02  0.51100000000E-03 0.  1.
    9900012    2    1    2    0    0 -0.18948345047E+02  0.30682688554E+02  0.18780095979E+02  0.50528939977E+02  0.30000243555E+02 0.  0.
        -12    1    1    2    0    0  0.18948345047E+02 -0.30682688554E+02 -0.18780095979E+02  0.40659060023E+02  0.00000000000E+00 0.  1.
         11    1    3    3    0    0 -0.10021426029E+02  0.16773617410E+02  0.24486390432E+02  0.31326770299E+02  0.51100000000E-03 0. -1.
        -11    1    3    3    0    0 -0.38492921610E+01  0.31485927808E+01 -0.53417118208E+01  0.72982581537E+01  0.51100000000E-03 0.  1.
         12    1    3    3    0    0 -0.50776268571E+01  0.10760478363E+02 -0.36458263268E+00  0.11903911525E+02  0.00000000000E+00 0. -1.
</event>
<event>
 7    1  0.4963616E-011  0.5052889E+02  0.7816164E-02  0.1300439E+00
        -11   -1    0    0    0    0  0.00000000000E+00  0.00000000000E+00  0.45593999997E+02  0.45594000000E+02  0.51100000000E-03 0.  1.
         11   -1    0    0    0    0 -0.00000000000E+00 -0.00000000000E+00 -0.45593999997E+02  0.45594000000E+02  0.51100000000E-03 0. -1.
    9900012    2    1    2    0    0 -0.35371244703E+02  0.16342628225E+02 -0.11617094713E+02  0.50528888614E+02  0.30000087432E+02 0.  0.
        -12    1    1    2    0    0  0.35371244703E+02 -0.16342628225E+02  0.11617094713E+02  0.40659111386E+02  0.00000000000E+00 0.  1.
         11    1    3    3    0    0 -0.17976805965E+02  0.10850370833E+02  0.54439631655E+01  0.21691768834E+02  0.51100000000E-03 0. -1.
        -11    1    3    3    0    0 -0.18398916565E+01 -0.35617843044E+01  0.41825920737E-01  0.40091468428E+01  0.51100000000E-03 0.  1.
         12    1    3    3    0    0 -0.15554547081E+02  0.90540416962E+01 -0.17102883800E+02  0.24827972938E+02  0.00000000000E+00 0. -1.
</event>
<event>
 7    1  0.4963616E-011  0.5052886E+02  0.7816164E-02  0.1300439E+00
        -11   -1    0    0    0    0  0.00000000000E+00  0.00000000000E+00  0.45593999997E+02  0.45594000000E+02  0.51100000000E-03 0. -1.
         11   -1    0    0    0    0 -0.00000000000E+00 -0.00000000000E+00 -0.45593999997E+02  0.45594000000E+02  0.51100000000E-03 0.  1.
    9900012    2    1    2    0    0  0.24346436352E+02  0.19522072045E+02  0.26063494785E+02  0.50528855636E+02  0.29999987191E+02 0.  0.
        -12    1    1    2    0    0 -0.24346436352E+02 -0.19522072045E+02 -0.26063494785E+02  0.40659144364E+02  0.00000000000E+00 0.  1.
         11    1    3    3    0    0  0.75557554154E+01  0.10854378432E+02  0.23989056310E+02  0.27393097560E+02  0.51100000000E-03 0. -1.
        -11    1    3    3    0    0  0.18986886784E+02  0.77191757638E+01  0.10199943783E+01  0.20521401828E+02  0.51100000000E-03 0.  1.
        -12    1    3    3    0    0 -0.21962058472E+01  0.94851784971E+00  0.10544440971E+01  0.26143562475E+01  0.00000000000E+00 0.  1.
</event>
<event>
 7    1  0.4963616E-011  0.5052886E+02  0.7816164E-02  0.1300439E+00
        -11   -1    0    0    0    0  0.00000000000E+00  0.00000000000E+00  0.45593999997E+02  0.45594000000E+02  0.51100000000E-03 0.  1.
         11   -1    0    0    0    0 -0.00000000000E+00 -0.00000000000E+00 -0.45593999997E+02  0.45594000000E+02  0.51100000000E-03 0. -1.
    9900012    2    1    2    0    0 -0.31062224698E+02 -0.25179564338E+02  0.73684059627E+01  0.50528859946E+02  0.30000000292E+02 0.  0.
        -12    1    1    2    0    0  0.31062224698E+02  0.25179564338E+02 -0.73684059627E+01  0.40659140054E+02  0.00000000000E+00 0.  1.
         11    1    3    3    0    0 -0.29318175169E+02 -0.20396678917E+02 -0.58222970328E+01  0.36186724763E+02  0.51100000000E-03 0. -1.
        -11    1    3    3    0    0  0.60073787484E+00 -0.90739963989E+00  0.29530198064E+01  0.31471552772E+01  0.51100000000E-03 0.  1.
         12    1    3    3    0    0 -0.23447874044E+01 -0.38754857820E+01  0.10237683189E+02  0.11194979906E+02  0.00000000000E+00 0. -1.
</event>
<event>
 7    1  0.4963616E-011  0.5052885E+02  0.7816164E-02  0.1300439E+00
        -11   -1    0    0    0    0  0.00000000000E+00  0.00000000000E+00  0.45593999997E+02  0.45594000000E+02  0.51100000000E-03 0.  1.
         11   -1    0    0    0    0 -0.00000000000E+00 -0.00000000000E+00 -0.45593999997E+02  0.45594000000E+02  0.51100000000E-03 0. -1.
    9900012    2    1    2    0    0  0.28297102146E+02 -0.23061744654E+02 -0.17905201151E+02  0.50528852388E+02  0.29999977317E+02 0.  0.
        -12    1    1    2    0    0 -0.28297102146E+02  0.23061744654E+02  0.17905201151E+02  0.40659147612E+02  0.00000000000E+00 0.  1.
         11    1    3    3    0    0  0.92925132391E+01 -0.14902048867E+02  0.26856699285E+01  0.17766110603E+02  0.51100000000E-03 0. -1.
        -11    1    3    3    0    0  0.36087312942E+00 -0.72039108152E+00 -0.10065062025E+02  0.10097260349E+02  0.51100000000E-03 0.  1.
         12    1    3    3    0    0  0.18643715777E+02 -0.74393047054E+01 -0.10525809055E+02  0.22665481436E+02  0.00000000000E+00 0. -1.
</event>
<event>
 7    1  0.4963616E-011  0.5052883E+02  0.7816164E-02  0.1300439E+00
        -11   -1    0    0    0    0  0.00000000000E+00  0.00000000000E+00  0.45593999997E+02  0.45594000000E+02  0.51100000000E-03 0.  1.
         11   -1    0    0    0    0 -0.00000000000E+00 -0.00000000000E+00 -0.45593999997E+02  0.45594000000E+02  0.51100000000E-03 0. -1.
    9900012    2    1    2    0    0 -0.13549040129E+02  0.73720496774E+01 -0.37619739317E+02  0.50528826482E+02  0.29999898574E+02 0.  0.
        -12    1    1    2    0    0  0.13549040129E+02 -0.73720496774E+01  0.37619739317E+02  0.40659173518E+02  0.00000000000E+00 0.  1.
         11    1    3    3    0    0  0.44980951945E+01  0.45711616826E+01 -0.13908381250E+02  0.15315725538E+02  0.51100000000E-03 0.  1.
        -11    1    3    3    0    0 -0.15895776250E+02  0.80121107353E+00 -0.26661056879E+02  0.31050436324E+02  0.51100000000E-03 0. -1.
         12    1    3    3    0    0 -0.21513590740E+01  0.19996769212E+01  0.29496988117E+01  0.41626646195E+01  0.00000000000E+00 0. -1.
</event>
<event>
 7    1  0.4963616E-011  0.5052886E+02  0.7816164E-02  0.1300439E+00
        -11   -1    0    0    0    0  0.00000000000E+00  0.00000000000E+00  0.45593999997E+02  0.45594000000E+02  0.51100000000E-03 0. -1.
         11   -1    0    0    0    0 -0.00000000000E+00 -0.00000000000E+00 -0.45593999997E+02  0.45594000000E+02  0.51100000000E-03 0.  1.
    9900012    2    1    2    0    0 -0.39274229781E+02 -0.63895314298E+01  0.83591082506E+01  0.50528856778E+02  0.29999990662E+02 0.  0.
        -12    1    1    2    0    0  0.39274229781E+02  0.63895314298E+01 -0.83591082506E+01  0.40659143222E+02  0.00000000000E+00 0.  1.
         11    1    3    3    0    0 -0.45738180344E+01 -0.95408800608E+01 -0.62560100670E+00  0.10599036778E+02  0.51100000000E-03 0. -1.
        -11    1    3    3    0    0 -0.25240156811E+02  0.13308973864E+01  0.14183366057E+02  0.28982834172E+02  0.51100000000E-03 0.  1.
         12    1    3    3    0    0 -0.94602549361E+01  0.18204512445E+01 -0.51986567993E+01  0.10946985827E+02  0.00000000000E+00 0. -1.
</event>
<event>
 7    1  0.4963616E-011  0.5052886E+02  0.7816164E-02  0.1300439E+00
        -11   -1    0    0    0    0  0.00000000000E+00  0.00000000000E+00  0.45593999997E+02  0.45594000000E+02  0.51100000000E-03 0.  1.
         11   -1    0    0    0    0 -0.00000000000E+00 -0.00000000000E+00 -0.45593999997E+02  0.45594000000E+02  0.51100000000E-03 0. -1.
    9900012    2    1    2    0    0  0.13883320890E+02 -0.37855944078E+02  0.52293790395E+01  0.50528861961E+02  0.30000006416E+02 0.  0.
        -12    1    1    2    0    0 -0.13883320890E+02  0.37855944078E+02 -0.52293790395E+01  0.40659138039E+02  0.00000000000E+00 0.  1.
         11    1    3    3    0    0  0.47034367685E+01 -0.10893600731E+02  0.22092313575E+01  0.12069530139E+02  0.51100000000E-03 0. -1.
        -11    1    3    3    0    0  0.10460061586E+02  0.81536484406E+00  0.16276566473E+01  0.10617296013E+02  0.51100000000E-03 0.  1.
        -12    1    3    3    0    0 -0.12801774643E+01 -0.27777708191E+02  0.13924910346E+01  0.27842035808E+02  0.00000000000E+00 0.  1.
</event>
<event>
 7    1  0.4963616E-011  0.5052884E+02  0.7816164E-02  0.1300439E+00
        -11   -1    0    0    0    0  0.00000000000E+00  0.00000000000E+00  0.45593999997E+02  0.45594000000E+02  0.51100000000E-03 0.  1.
         11   -1    0    0    0    0 -0.00000000000E+00 -0.00000000000E+00 -0.45593999997E+02  0.45594000000E+02  0.51100000000E-03 0. -1.
    9900012    2    1    2    0    0  0.29613760858E+02 -0.24241903659E+02 -0.13730356073E+02  0.50528838633E+02  0.29999935510E+02 0.  0.
        -12    1    1    2    0    0 -0.29613760858E+02  0.24241903659E+02  0.13730356073E+02  0.40659161367E+02  0.00000000000E+00 0.  1.
         11    1    3    3    0    0  0.17988452057E+02 -0.90630635438E+01  0.14205006887E+01  0.20192606337E+02  0.51100000000E-03 0. -1.
        -11    1    3    3    0    0  0.15063213175E+01 -0.16406540646E+01 -0.13125752860E+02  0.13313381917E+02  0.51100000000E-03 0.  1.
        -12    1    3    3    0    0  0.10118987483E+02 -0.13538186050E+02 -0.20251039016E+01  0.17022850379E+02  0.00000000000E+00 0.  1.
</event>
<event>
 7    1  0.4963616E-011  0.5052886E+02  0.7816164E-02  0.1300439E+00
        -11   -1    0    0    0    0  0.00000000000E+00  0.00000000000E+00  0.45593999997E+02  0.45594000000E+02  0.51100000000E-03 0. -1.
         11   -1    0    0    0    0 -0.00000000000E+00 -0.00000000000E+00 -0.45593999997E+02  0.45594000000E+02  0.51100000000E-03 0.  1.
    9900012    2    1    2    0    0 -0.24965893831E+02  0.10812863556E+02  0.30215097424E+02  0.50528856067E+02  0.29999988501E+02 0.  0.
        -12    1    1    2    0    0  0.24965893831E+02 -0.10812863556E+02 -0.30215097424E+02  0.40659143933E+02  0.00000000000E+00 0.  1.
         11    1    3    3    0    0 -0.41585778149E+01  0.61501556296E+01  0.14051549317E+02  0.15892269259E+02  0.51100000000E-03 0. -1.
        -11    1    3    3    0    0 -0.18963109900E+02 -0.55540646014E+01  0.75724313298E+01  0.21161022830E+02  0.51100000000E-03 0.  1.
        -12    1    3    3    0    0 -0.18442061154E+01  0.10216772527E+02  0.85911167768E+01  0.13475563979E+02  0.00000000000E+00 0.  1.
</event>
<event>
 7    1  0.4963616E-011  0.5052886E+02  0.7816164E-02  0.1300439E+00
        -11   -1    0    0    0    0  0.00000000000E+00  0.00000000000E+00  0.45593999997E+02  0.45594000000E+02  0.51100000000E-03 0. -1.
         11   -1    0    0    0    0 -0.00000000000E+00 -0.00000000000E+00 -0.45593999997E+02  0.45594000000E+02  0.51100000000E-03 0.  1.
    9900012    2    1    2    0    0 -0.20895916524E+02  0.17587258364E+02  0.30120001249E+02  0.50528862535E+02  0.30000008161E+02 0.  0.
        -12    1    1    2    0    0  0.20895916524E+02 -0.17587258364E+02 -0.30120001249E+02  0.40659137465E+02  0.00000000000E+00 0.  1.
         11    1    3    3    0    0 -0.38874112044E+01  0.44695212596E+01  0.20340880231E+02  0.21185844213E+02  0.51100000000E-03 0.  1.
        -11    1    3    3    0    0 -0.14480140303E+02  0.17246794902E+02  0.96490506398E+01  0.24499603591E+02  0.51100000000E-03 0. -1.
         12    1    3    3    0    0 -0.25283650166E+01 -0.41290577979E+01  0.13007037843E+00  0.48434147313E+01  0.00000000000E+00 0. -1.
</event>
<event>
 7    1  0.4963616E-011  0.5052883E+02  0.7816164E-02  0.1300439E+00
        -11   -1    0    0    0    0  0.00000000000E+00  0.00000000000E+00  0.45593999997E+02  0.45594000000E+02  0.51100000000E-03 0.  1.
         11   -1    0    0    0    0 -0.00000000000E+00 -0.00000000000E+00 -0.45593999997E+02  0.45594000000E+02  0.51100000000E-03 0. -1.
    9900012    2    1    2    0    0 -0.13747311980E+02 -0.94186847014E+01 -0.37087304789E+02  0.50528826561E+02  0.29999898816E+02 0.  0.
        -12    1    1    2    0    0  0.13747311980E+02  0.94186847014E+01  0.37087304789E+02  0.40659173439E+02  0.00000000000E+00 0.  1.
         11    1    3    3    0    0 -0.13017015587E+02  0.14943134049E+01 -0.35697185824E+01  0.13580079469E+02  0.51100000000E-03 0. -1.
        -11    1    3    3    0    0 -0.80587293313E+00  0.33387851733E+00  0.57772461687E+00  0.10462657610E+01  0.51100000000E-03 0.  1.
         12    1    3    3    0    0  0.75576540873E-01 -0.11246876624E+02 -0.34095310824E+02  0.35902481332E+02  0.00000000000E+00 0. -1.
</event>
<event>
 7    1  0.4963616E-011  0.5052887E+02  0.7816164E-02  0.1300439E+00
        -11   -1    0    0    0    0  0.00000000000E+00  0.00000000000E+00  0.45593999997E+02  0.45594000000E+02  0.51100000000E-03 0.  1.
         11   -1    0    0    0    0 -0.00000000000E+00 -0.00000000000E+00 -0.45593999997E+02  0.45594000000E+02  0.51100000000E-03 0. -1.
    9900012    2    1    2    0    0 -0.15143924035E+02 -0.60269931056E+01 -0.37249185024E+02  0.50528869832E+02  0.30000030341E+02 0.  0.
        -12    1    1    2    0    0  0.15143924035E+02  0.60269931056E+01  0.37249185024E+02  0.40659130168E+02  0.00000000000E+00 0.  1.
         11    1    3    3    0    0 -0.12794154628E+02 -0.14785507180E+01 -0.34927751539E+02  0.37226661584E+02  0.51100000000E-03 0. -1.
        -11    1    3    3    0    0 -0.20482554420E+01 -0.62592371673E+01  0.33370721405E+01  0.73830516051E+01  0.51100000000E-03 0.  1.
         12    1    3    3    0    0 -0.30151396509E+00  0.17107947797E+01 -0.56585056257E+01  0.59191566430E+01  0.00000000000E+00 0. -1.
</event>
<event>
 7    1  0.4963616E-011  0.5052886E+02  0.7816164E-02  0.1300439E+00
        -11   -1    0    0    0    0  0.00000000000E+00  0.00000000000E+00  0.45593999997E+02  0.45594000000E+02  0.51100000000E-03 0. -1.
         11   -1    0    0    0    0 -0.00000000000E+00 -0.00000000000E+00 -0.45593999997E+02  0.45594000000E+02  0.51100000000E-03 0.  1.
    9900012    2    1    2    0    0 -0.93434100156E+01 -0.39502634806E+02  0.23254719667E+01  0.50528864652E+02  0.30000014597E+02 0.  0.
        -12    1    1    2    0    0  0.93434100156E+01  0.39502634806E+02 -0.23254719667E+01  0.40659135348E+02  0.00000000000E+00 0.  1.
         11    1    3    3    0    0 -0.69447073920E+01 -0.26571137603E+02  0.78835630690E+01  0.28572799674E+02  0.51100000000E-03 0. -1.
        -11    1    3    3    0    0  0.70665670382E+01 -0.65452954686E+01 -0.40097627261E+01  0.10433381995E+02  0.51100000000E-03 0.  1.
         12    1    3    3    0    0 -0.94652696619E+01 -0.63862017345E+01 -0.15483283762E+01  0.11522682983E+02  0.00000000000E+00 0. -1.
</event>
<event>
 7    1  0.4963616E-011  0.5052887E+02  0.7816164E-02  0.1300439E+00
        -11   -1    0    0    0    0  0.00000000000E+00  0.00000000000E+00  0.45593999997E+02  0.45594000000E+02  0.51100000000E-03 0. -1.
         11   -1    0    0    0    0 -0.00000000000E+00 -0.00000000000E+00 -0.45593999997E+02  0.45594000000E+02  0.51100000000E-03 0.  1.
    9900012    2    1    2    0    0 -0.21982313735E+02 -0.30472377272E+02  0.15536312629E+02  0.50528869367E+02  0.30000028927E+02 0.  0.
        -12    1    1    2    0    0  0.21982313735E+02  0.30472377272E+02 -0.15536312629E+02  0.40659130633E+02  0.00000000000E+00 0.  1.
         11    1    3    3    0    0 -0.77996497783E+01 -0.22221253439E+02  0.21061727701E+02  0.31594540907E+02  0.51100000000E-03 0. -1.
        -11    1    3    3    0    0 -0.14907543384E+02 -0.67632490724E+01 -0.44624338343E+01  0.16967312802E+02  0.51100000000E-03 0.  1.
        -12    1    3    3    0    0  0.72487942654E+00 -0.14878747603E+01 -0.10629812379E+01  0.19670156576E+01  0.00000000000E+00 0.  1.
</event>
<event>
 7    1  0.4963616E-011  0.5052887E+02  0.7816164E-02  0.1300439E+00
        -11   -1    0    0    0    0  0.00000000000E+00  0.00000000000E+00  0.45593999997E+02  0.45594000000E+02  0.51100000000E-03 0. -1.
         11   -1    0    0    0    0 -0.00000000000E+00 -0.00000000000E+00 -0.45593999997E+02  0.45594000000E+02  0.51100000000E-03 0.  1.
    9900012    2    1    2    0    0 -0.34479884345E+02  0.21036717576E+02  0.46646808178E+01  0.50528866242E+02  0.30000019429E+02 0.  0.
        -12    1    1    2    0    0  0.34479884345E+02 -0.21036717576E+02 -0.46646808178E+01  0.40659133758E+02  0.00000000000E+00 0.  1.
         11    1    3    3    0    0  0.10669906863E+01  0.59615336982E+01  0.28556989858E+01  0.66957725558E+01  0.51100000000E-03 0. -1.
        -11    1    3    3    0    0 -0.25938025167E+02  0.81591917505E+01 -0.81244161169E+01  0.28378860038E+02  0.51100000000E-03 0.  1.
        -12    1    3    3    0    0 -0.96088498648E+01  0.69159921271E+01  0.99333979489E+01  0.15454233648E+02  0.00000000000E+00 0.  1.
</event>
<event>
 7    1  0.4963616E-011  0.5052887E+02  0.7816164E-02  0.1300439E+00
        -11   -1    0    0    0    0  0.00000000000E+00  0.00000000000E+00  0.45593999997E+02  0.45594000000E+02  0.51100000000E-03 0.  1.
         11   -1    0    0    0    0 -0.00000000000E+00 -0.00000000000E+00 -0.45593999997E+02  0.45594000000E+02  0.51100000000E-03 0. -1.
    9900012    2    1    2    0    0  0.32598688206E+02  0.24082802581E+02 -0.32418154774E+01  0.50528865473E+02  0.30000017092E+02 0.  0.
        -12    1    1    2    0    0 -0.32598688206E+02 -0.24082802581E+02  0.32418154774E+01  0.40659134527E+02  0.00000000000E+00 0.  1.
         11    1    3    3    0    0  0.23432757047E+02  0.28323206740E+02 -0.16905341868E+01  0.36798859343E+02  0.51100000000E-03 0. -1.
        -11    1    3    3    0    0  0.48076608533E+01 -0.18177877667E+01  0.38177975614E+01  0.64026192864E+01  0.51100000000E-03 0.  1.
         12    1    3    3    0    0  0.43582703052E+01 -0.24226163920E+01 -0.53690788520E+01  0.73273868436E+01  0.00000000000E+00 0. -1.
</event>
<event>
 7    1  0.4963616E-011  0.5052886E+02  0.7816164E-02  0.1300439E+00
        -11   -1    0    0    0    0  0.00000000000E+00  0.00000000000E+00  0.45593999997E+02  0.45594000000E+02  0.51100000000E-03 0.  1.
         11   -1    0    0    0    0 -0.00000000000E+00 -0.00000000000E+00 -0.45593999997E+02  0.45594000000E+02  0.51100000000E-03 0. -1.
    9900012    2    1    2    0    0 -0.25303171097E+02  0.28280325426E+02  0.14599263860E+02  0.50528858605E+02  0.29999996215E+02 0.  0.
        -12    1    1    2    0    0  0.25303171097E+02 -0.28280325426E+02 -0.14599263860E+02  0.40659141395E+02  0.00000000000E+00 0.  1.
         11    1    3    3    0    0 -0.81228274224E+01  0.13446390683E+02  0.19386210655E+02  0.24952172482E+02  0.51100000000E-03 0. -1.
        -11    1    3    3    0    0 -0.97429904006E+01  0.18618842249E+01 -0.14674271363E+00  0.99203834855E+01  0.51100000000E-03 0.  1.
         12    1    3    3    0    0 -0.74373532738E+01  0.12972050518E+02 -0.46402040814E+01  0.15656302637E+02  0.00000000000E+00 0. -1.
</event>
<event>
 7    1  0.4963616E-011  0.5052886E+02  0.7816164E-02  0.1300439E+00
        -11   -1    0    0    0    0  0.00000000000E+00  0.00000000000E+00  0.45593999997E+02  0.45594000000E+02  0.51100000000E-03 0.  1.
         11   -1    0    0    0    0 -0.00000000000E+00 -0.00000000000E+00 -0.45593999997E+02  0.45594000000E+02  0.51100000000E-03 0. -1.
    9900012    2    1    2    0    0  0.64310470591E+01  0.28371242484E+02 -0.28405633549E+02  0.50528858547E+02  0.29999996039E+02 0.  0.
        -12    1    1    2    0    0 -0.64310470591E+01 -0.28371242484E+02  0.28405633549E+02  0.40659141453E+02  0.00000000000E+00 0.  1.
         11    1    3    3    0    0 -0.92332571895E+01  0.10909106433E+02 -0.10628126317E+02  0.17810634766E+02  0.51100000000E-03 0. -1.
        -11    1    3    3    0    0  0.21257079568E+01 -0.25156270484E+01 -0.27337537127E+01  0.42802363705E+01  0.51100000000E-03 0.  1.
         12    1    3    3    0    0  0.13538596292E+02  0.19977763099E+02 -0.15043753520E+02  0.28437987410E+02  0.00000000000E+00 0. -1.
</event>
<event>
 7    1  0.4963616E-011  0.5052886E+02  0.7816164E-02  0.1300439E+00
        -11   -1    0    0    0    0  0.00000000000E+00  0.00000000000E+00  0.45593999997E+02  0.45594000000E+02  0.51100000000E-03 0.  1.
         11   -1    0    0    0    0 -0.00000000000E+00 -0.00000000000E+00 -0.45593999997E+02  0.45594000000E+02  0.51100000000E-03 0. -1.
    9900012    2    1    2    0    0 -0.34976900136E+02 -0.14492958577E+02 -0.14823506396E+02  0.50528859167E+02  0.29999997924E+02 0.  0.
        -12    1    1    2    0    0  0.34976900136E+02  0.14492958577E+02  0.14823506396E+02  0.40659140833E+02  0.00000000000E+00 0.  1.
         11    1    3    3    0    0 -0.18488927246E+02  0.87922470481E+00 -0.26038075611E+01  0.18692064649E+02  0.51100000000E-03 0. -1.
        -11    1    3    3    0    0  0.15845939759E+01 -0.10323603698E+02 -0.26619530903E+01  0.10778391619E+02  0.51100000000E-03 0.  1.
        -12    1    3    3    0    0 -0.18072566866E+02 -0.50485795844E+01 -0.95577457443E+01  0.21058402899E+02  0.00000000000E+00 0.  1.
</event>
<event>
 7    1  0.4963616E-011  0.5052886E+02  0.7816164E-02  0.1300439E+00
        -11   -1    0    0    0    0  0.00000000000E+00  0.00000000000E+00  0.45593999997E+02  0.45594000000E+02  0.51100000000E-03 0.  1.
         11   -1    0    0    0    0 -0.00000000000E+00 -0.00000000000E+00 -0.45593999997E+02  0.45594000000E+02  0.51100000000E-03 0. -1.
    9900012    2    1    2    0    0 -0.31566003417E+01 -0.38474586956E+02  0.12763538835E+02  0.50528857231E+02  0.29999992039E+02 0.  0.
        -12    1    1    2    0    0  0.31566003417E+01  0.38474586956E+02 -0.12763538835E+02  0.40659142769E+02  0.00000000000E+00 0.  1.
         11    1    3    3    0    0 -0.11115846657E+02 -0.22368262639E+02  0.35897407053E+01  0.25234647986E+02  0.51100000000E-03 0. -1.
        -11    1    3    3    0    0  0.99610160687E+01 -0.10131294856E+02  0.11798433372E+02  0.18468026610E+02  0.51100000000E-03 0.  1.
         12    1    3    3    0    0 -0.20017697537E+01 -0.59750294614E+01 -0.26246352422E+01  0.68261826350E+01  0.00000000000E+00 0. -1.
</event>
<event>
 7    1  0.4963616E-011  0.5052885E+02  0.7816164E-02  0.1300439E+00
        -11   -1    0    0    0    0  0.00000000000E+00  0.00000000000E+00  0.45593999997E+02  0.45594000000E+02  0.51100000000E-03 0.  1.
         11   -1    0    0    0    0 -0.00000000000E+00 -0.00000000000E+00 -0.45593999997E+02  0.45594000000E+02  0.51100000000E-03 0. -1.
    9900012    2    1    2    0    0  0.26219753265E+01  0.17145517695E+02 -0.36773939720E+02  0.50528853745E+02  0.29999981444E+02 0.  0.
        -12    1    1    2    0    0 -0.26219753265E+01 -0.17145517695E+02  0.36773939720E+02  0.40659146255E+02  0.00000000000E+00 0.  1.
         11    1    3    3    0    0 -0.46283270655E+01  0.20265156907E+02 -0.15955849659E+02  0.26204715883E+02  0.51100000000E-03 0. -1.
        -11    1    3    3    0    0  0.90581416235E+01 -0.21766644730E+01 -0.11572244043E+02  0.14856131070E+02  0.51100000000E-03 0.  1.
         12    1    3    3    0    0 -0.18078392314E+01 -0.94297473879E+00 -0.92458460176E+01  0.94680067927E+01  0.00000000000E+00 0. -1.
</event>
<event>
 7    1  0.4963616E-011  0.5052886E+02  0.7816164E-02  0.1300439E+00
        -11   -1    0    0    0    0  0.00000000000E+00  0.00000000000E+00  0.45593999997E+02  0.45594000000E+02  0.51100000000E-03 0. -1.
         11   -1    0    0    0    0 -0.00000000000E+00 -0.00000000000E+00 -0.45593999997E+02  0.45594000000E+02  0.51100000000E-03 0.  1.
    9900012    2    1    2    0    0 -0.45771786926E+01  0.20625944664E+02  0.34738819001E+02  0.50528859532E+02  0.29999999033E+02 0.  0.
        -12    1    1    2    0    0  0.45771786926E+01 -0.20625944664E+02 -0.34738819001E+02  0.40659140468E+02  0.00000000000E+00 0.  1.
         11    1    3    3    0    0 -0.21233222517E+01  0.14461643234E+02  0.13050261251E+02  0.19594819249E+02  0.51100000000E-03 0. -1.
        -11    1    3    3    0    0  0.86286549826E+01  0.45184391701E+01  0.15001420726E+02  0.17886100844E+02  0.51100000000E-03 0.  1.
        -12    1    3    3    0    0 -0.11082511423E+02  0.16458622595E+01  0.66871370240E+01  0.13047939439E+02  0.00000000000E+00 0.  1.
</event>
<event>
 7    1  0.4963616E-011  0.5052886E+02  0.7816164E-02  0.1300439E+00
        -11   -1    0    0    0    0  0.00000000000E+00  0.00000000000E+00  0.45593999997E+02  0.45594000000E+02  0.51100000000E-03 0.  1.
         11   -1    0    0    0    0 -0.00000000000E+00 -0.00000000000E+00 -0.45593999997E+02  0.45594000000E+02  0.51100000000E-03 0. -1.
    9900012    2    1    2    0    0 -0.39191971364E+02  0.18662244302E+00 -0.10822212680E+02  0.50528859150E+02  0.29999997873E+02 0.  0.
        -12    1    1    2    0    0  0.39191971364E+02 -0.18662244302E+00  0.10822212680E+02  0.40659140850E+02  0.00000000000E+00 0.  1.
         11    1    3    3    0    0 -0.30263304988E+02 -0.92025209912E+01 -0.77975460476E+01  0.32578455243E+02  0.51100000000E-03 0. -1.
        -11    1    3    3    0    0 -0.10203544777E+02  0.84271280988E+01 -0.60333624936E+01  0.14544080489E+02  0.51100000000E-03 0.  1.
        -12    1    3    3    0    0  0.12748784014E+01  0.96201533544E+00  0.30086958613E+01  0.34063234183E+01  0.00000000000E+00 0.  1.
</event>
<event>
 7    1  0.4963616E-011  0.5052883E+02  0.7816164E-02  0.1300439E+00
        -11   -1    0    0    0    0  0.00000000000E+00  0.00000000000E+00  0.45593999997E+02  0.45594000000E+02  0.51100000000E-03 0.  1.
         11   -1    0    0    0    0 -0.00000000000E+00 -0.00000000000E+00 -0.45593999997E+02  0.45594000000E+02  0.51100000000E-03 0. -1.
    9900012    2    1    2    0    0  0.58166628577E+01 -0.12807104104E+02 -0.38148562917E+02  0.50528827173E+02  0.29999900674E+02 0.  0.
        -12    1    1    2    0    0 -0.58166628577E+01  0.12807104104E+02  0.38148562917E+02  0.40659172827E+02  0.00000000000E+00 0.  1.
         11    1    3    3    0    0  0.15938448878E+02 -0.94372686897E+01 -0.19682318771E+02  0.27027576018E+02  0.51100000000E-03 0. -1.
        -11    1    3    3    0    0 -0.79914299123E+01 -0.66962942216E+01 -0.11743869969E+02  0.15704196588E+02  0.51100000000E-03 0.  1.
         12    1    3    3    0    0 -0.21303561078E+01  0.33264588071E+01 -0.67223741774E+01  0.77970545671E+01  0.00000000000E+00 0. -1.
</event>
<event>
 7    1  0.4963616E-011  0.5052886E+02  0.7816164E-02  0.1300439E+00
        -11   -1    0    0    0    0  0.00000000000E+00  0.00000000000E+00  0.45593999997E+02  0.45594000000E+02  0.51100000000E-03 0.  1.
         11   -1    0    0    0    0 -0.00000000000E+00 -0.00000000000E+00 -0.45593999997E+02  0.45594000000E+02  0.51100000000E-03 0. -1.
    9900012    2    1    2    0    0  0.23039611478E+02 -0.12360415368E+02 -0.31137793057E+02  0.50528859311E+02  0.29999998362E+02 0.  0.
        -12    1    1    2    0    0 -0.23039611478E+02  0.12360415368E+02  0.31137793057E+02  0.40659140689E+02  0.00000000000E+00 0.  1.
         11    1    3    3    0    0  0.96293005114E+01 -0.20403228584E+02 -0.18431334699E+02  0.29132958381E+02  0.51100000000E-03 0. -1.
        -11    1    3    3    0    0  0.92885557062E+01  0.83899405456E+01 -0.11711884481E+02  0.17141662924E+02  0.51100000000E-03 0.  1.
        -12    1    3    3    0    0  0.41217552605E+01 -0.34712732915E+00 -0.99457387717E+00  0.42542380055E+01  0.00000000000E+00 0.  1.
</event>
<event>
 7    1  0.4963616E-011  0.5052886E+02  0.7816164E-02  0.1300439E+00
        -11   -1    0    0    0    0  0.00000000000E+00  0.00000000000E+00  0.45593999997E+02  0.45594000000E+02  0.51100000000E-03 0.  1.
         11   -1    0    0    0    0 -0.00000000000E+00 -0.00000000000E+00 -0.45593999997E+02  0.45594000000E+02  0.51100000000E-03 0. -1.
    9900012    2    1    2    0    0 -0.38142775380E+02  0.12255239689E+02  0.69356678962E+01  0.50528859544E+02  0.29999999069E+02 0.  0.
        -12    1    1    2    0    0  0.38142775380E+02 -0.12255239689E+02 -0.69356678962E+01  0.40659140456E+02  0.00000000000E+00 0.  1.
         11    1    3    3    0    0 -0.17297246305E+02  0.46104358155E+01  0.11510808903E+02  0.21282611917E+02  0.51100000000E-03 0. -1.
        -11    1    3    3    0    0  0.34606609507E+01  0.48333162183E+00  0.16780357521E-01  0.34942904164E+01  0.51100000000E-03 0.  1.
        -12    1    3    3    0    0 -0.24306190025E+02  0.71614722518E+01 -0.45919213639E+01  0.25751957210E+02  0.00000000000E+00 0.  1.
</event>
<event>
 7    1  0.4963616E-011  0.5052887E+02  0.7816164E-02  0.1300439E+00
        -11   -1    0    0    0    0  0.00000000000E+00  0.00000000000E+00  0.45593999997E+02  0.45594000000E+02  0.51100000000E-03 0. -1.
         11   -1    0    0    0    0 -0.00000000000E+00 -0.00000000000E+00 -0.45593999997E+02  0.45594000000E+02  0.51100000000E-03 0.  1.
    9900012    2    1    2    0    0 -0.25801472394E+02 -0.11354381648E+02  0.29300633778E+02  0.50528866954E+02  0.30000021592E+02 0.  0.
        -12    1    1    2    0    0  0.25801472394E+02  0.11354381648E+02 -0.29300633778E+02  0.40659133046E+02  0.00000000000E+00 0.  1.
         11    1    3    3    0    0 -0.14209241934E+02 -0.56496171395E+01  0.83736841538E+01  0.17433855475E+02  0.51100000000E-03 0. -1.
        -11    1    3    3    0    0  0.34561049455E+01  0.99016360495E+00  0.15258727842E+02  0.15676538552E+02  0.51100000000E-03 0.  1.
        -12    1    3    3    0    0 -0.15048335405E+02 -0.66949281129E+01  0.56682217826E+01  0.17418472926E+02  0.00000000000E+00 0.  1.
</event>
<event>
 7    1  0.4963616E-011  0.5052885E+02  0.7816164E-02  0.1300439E+00
        -11   -1    0    0    0    0  0.00000000000E+00  0.00000000000E+00  0.45593999997E+02  0.45594000000E+02  0.51100000000E-03 0.  1.
         11   -1    0    0    0    0 -0.00000000000E+00 -0.00000000000E+00 -0.45593999997E+02  0.45594000000E+02  0.51100000000E-03 0. -1.
    9900012    2    1    2    0    0  0.11860309281E+01 -0.66333620975E+01 -0.40096861184E+02  0.50528850490E+02  0.29999971549E+02 0.  0.
        -12    1    1    2    0    0 -0.11860309281E+01  0.66333620975E+01  0.40096861184E+02  0.40659149510E+02  0.00000000000E+00 0.  1.
         11    1    3    3    0    0 -0.64402583689E+01 -0.77326890576E+01 -0.30846431624E+02  0.32446475188E+02  0.51100000000E-03 0. -1.
        -11    1    3    3    0    0  0.57016821031E+01  0.69467402764E+01 -0.74361449358E+01  0.11664588764E+02  0.51100000000E-03 0.  1.
         12    1    3    3    0    0  0.19246071940E+01 -0.58474133163E+01 -0.18142846239E+01  0.64177865373E+01  0.00000000000E+00 0. -1.
</event>
<event>
 7    1  0.4963616E-011  0.5052886E+02  0.7816164E-02  0.1300439E+00
        -11   -1    0    0    0    0  0.00000000000E+00  0.00000000000E+00  0.45593999997E+02  0.45594000000E+02  0.51100000000E-03 0.  1.
         11   -1    0    0    0    0 -0.00000000000E+00 -0.00000000000E+00 -0.45593999997E+02  0.45594000000E+02  0.51100000000E-03 0. -1.
    9900012    2    1    2    0    0  0.60995280033E+01  0.28135138214E+02 -0.28711938862E+02  0.50528859854E+02  0.30000000014E+02 0.  0.
        -12    1    1    2    0    0 -0.60995280033E+01 -0.28135138214E+02  0.28711938862E+02  0.40659140146E+02  0.00000000000E+00 0.  1.
         11    1    3    3    0    0  0.17622988999E+01 -0.12268635768E+01 -0.44688884154E+01  0.49580092355E+01  0.51100000000E-03 0. -1.
        -11    1    3    3    0    0  0.12436333587E+02  0.27636286669E+02 -0.19159816578E+02  0.35854222980E+02  0.51100000000E-03 0.  1.
        -12    1    3    3    0    0 -0.80991044834E+01  0.17257151217E+01 -0.50832338688E+01  0.97166276392E+01  0.00000000000E+00 0.  1.
</event>
<event>
 7    1  0.4963616E-011  0.5052885E+02  0.7816164E-02  0.1300439E+00
        -11   -1    0    0    0    0  0.00000000000E+00  0.00000000000E+00  0.45593999997E+02  0.45594000000E+02  0.51100000000E-03 0.  1.
         11   -1    0    0    0    0 -0.00000000000E+00 -0.00000000000E+00 -0.45593999997E+02  0.45594000000E+02  0.51100000000E-03 0. -1.
    9900012    2    1    2    0    0 -0.11960313099E+02  0.38498704491E+02 -0.52883841613E+01  0.50528851657E+02  0.29999975098E+02 0.  0.
        -12    1    1    2    0    0  0.11960313099E+02 -0.38498704491E+02  0.52883841613E+01  0.40659148343E+02  0.00000000000E+00 0.  1.
         11    1    3    3    0    0  0.20345835572E+01  0.18747792372E+02 -0.22023737765E+01  0.18986039597E+02  0.51100000000E-03 0. -1.
        -11    1    3    3    0    0 -0.29052165953E+01 -0.12446966860E+01 -0.68104234633E+01  0.75080903908E+01  0.51100000000E-03 0.  1.
        -12    1    3    3    0    0 -0.11089680061E+02  0.20995608805E+02  0.37244130785E+01  0.24034721669E+02  0.00000000000E+00 0.  1.
</event>
<event>
 7    1  0.4963616E-011  0.5052886E+02  0.7816164E-02  0.1300439E+00
        -11   -1    0    0    0    0  0.00000000000E+00  0.00000000000E+00  0.45593999997E+02  0.45594000000E+02  0.51100000000E-03 0.  1.
         11   -1    0    0    0    0 -0.00000000000E+00 -0.00000000000E+00 -0.45593999997E+02  0.45594000000E+02  0.51100000000E-03 0. -1.
    9900012    2    1    2    0    0  0.29393434686E+02 -0.22571098883E+02 -0.16725339877E+02  0.50528862018E+02  0.30000006590E+02 0.  0.
        -12    1    1    2    0    0 -0.29393434686E+02  0.22571098883E+02  0.16725339877E+02  0.40659137982E+02  0.00000000000E+00 0.  1.
         11    1    3    3    0    0 -0.42523394775E+00  0.56411641433E+00 -0.84185894039E+01  0.84481772621E+01  0.51100000000E-03 0. -1.
        -11    1    3    3    0    0  0.27541748825E+02 -0.12401332970E+02 -0.72077746640E+01  0.31053067540E+02  0.51100000000E-03 0.  1.
        -12    1    3    3    0    0  0.22769198088E+01 -0.10733882327E+02 -0.10989758094E+01  0.11027617216E+02  0.00000000000E+00 0.  1.
</event>
<event>
 7    1  0.4963616E-011  0.5052884E+02  0.7816164E-02  0.1300439E+00
        -11   -1    0    0    0    0  0.00000000000E+00  0.00000000000E+00  0.45593999997E+02  0.45594000000E+02  0.51100000000E-03 0. -1.
         11   -1    0    0    0    0 -0.00000000000E+00 -0.00000000000E+00 -0.45593999997E+02  0.45594000000E+02  0.51100000000E-03 0.  1.
    9900012    2    1    2    0    0  0.27552514315E+02  0.20810445970E+02  0.21469781606E+02  0.50528840777E+02  0.29999942026E+02 0.  0.
        -12    1    1    2    0    0 -0.27552514315E+02 -0.20810445970E+02 -0.21469781606E+02  0.40659159223E+02  0.00000000000E+00 0.  1.
         11    1    3    3    0    0  0.15048039576E+02 -0.27208336381E+01  0.43760255377E+01  0.15905848941E+02  0.51100000000E-03 0. -1.
        -11    1    3    3    0    0  0.14186101669E+02  0.19545128408E+02  0.18100709458E+02  0.30181007408E+02  0.51100000000E-03 0.  1.
        -12    1    3    3    0    0 -0.16816269308E+01  0.39861512003E+01 -0.10069533901E+01  0.44419844278E+01  0.00000000000E+00 0.  1.
</event>
<event>
 7    1  0.4963616E-011  0.5052885E+02  0.7816164E-02  0.1300439E+00
        -11   -1    0    0    0    0  0.00000000000E+00  0.00000000000E+00  0.45593999997E+02  0.45594000000E+02  0.51100000000E-03 0.  1.
         11   -1    0    0    0    0 -0.00000000000E+00 -0.00000000000E+00 -0.45593999997E+02  0.45594000000E+02  0.51100000000E-03 0. -1.
    9900012    2    1    2    0    0  0.23346977340E+02 -0.31451520401E+02  0.10903517960E+02  0.50528853547E+02  0.29999980840E+02 0.  0.
        -12    1    1    2    0    0 -0.23346977340E+02  0.31451520401E+02 -0.10903517960E+02  0.40659146453E+02  0.00000000000E+00 0.  1.
         11    1    3    3    0    0  0.12874270122E+02 -0.27221234136E+02  0.54631409028E+01  0.30603730620E+02  0.51100000000E-03 0. -1.
        -11    1    3    3    0    0  0.79283438453E+01  0.41818798905E+01 -0.10144431208E+01  0.90208564258E+01  0.51100000000E-03 0.  1.
        -12    1    3    3    0    0  0.25443633717E+01 -0.84121661552E+01  0.64548201779E+01  0.10904266501E+02  0.00000000000E+00 0.  1.
</event>
<event>
 7    1  0.5636534E-011  0.5052885E+02  0.7816164E-02  0.1300439E+00
        -11   -1    0    0    0    0  0.00000000000E+00  0.00000000000E+00  0.45593999997E+02  0.45594000000E+02  0.51100000000E-03 0. -1.
         11   -1    0    0    0    0 -0.00000000000E+00 -0.00000000000E+00 -0.45593999997E+02  0.45594000000E+02  0.51100000000E-03 0.  1.
    9900012    2    1    2    0    0  0.27877658105E+02 -0.29593398061E+02  0.48316257221E+00  0.50528850030E+02  0.29999970151E+02 0.  0.
        -12    1    1    2    0    0 -0.27877658105E+02  0.29593398061E+02 -0.48316257221E+00  0.40659149970E+02  0.00000000000E+00 0.  1.
         11    1    3    3    0    0  0.17979584507E+02 -0.12485354939E+02 -0.57733630006E+01  0.22638049112E+02  0.51100000000E-03 0. -1.
        -11    1    3    3    0    0 -0.43860317692E+01  0.45297447607E+00  0.15389994996E-01  0.44093874484E+01  0.51100000000E-03 0.  1.
        -12    1    3    3    0    0  0.14284105367E+02 -0.17561017599E+02  0.62411355778E+01  0.23481413470E+02  0.00000000000E+00 0.  1.
</event>
<event>
 7    1  0.4963616E-011  0.5052886E+02  0.7816164E-02  0.1300439E+00
        -11   -1    0    0    0    0  0.00000000000E+00  0.00000000000E+00  0.45593999997E+02  0.45594000000E+02  0.51100000000E-03 0.  1.
         11   -1    0    0    0    0 -0.00000000000E+00 -0.00000000000E+00 -0.45593999997E+02  0.45594000000E+02  0.51100000000E-03 0. -1.
    9900012    2    1    2    0    0 -0.38161772092E+02  0.42804684072E+01 -0.13361234405E+02  0.50528857807E+02  0.29999993792E+02 0.  0.
        -12    1    1    2    0    0  0.38161772092E+02 -0.42804684072E+01  0.13361234405E+02  0.40659142193E+02  0.00000000000E+00 0.  1.
         11    1    3    3    0    0 -0.34796460774E+02  0.53598261348E+01 -0.42242503144E+01  0.35459352921E+02  0.51100000000E-03 0. -1.
        -11    1    3    3    0    0 -0.36680065381E+01  0.21449125829E+01 -0.10671175314E+02  0.11486030855E+02  0.51100000000E-03 0.  1.
         12    1    3    3    0    0  0.30269521950E+00 -0.32242703105E+01  0.15341912231E+01  0.35834740323E+01  0.00000000000E+00 0. -1.
</event>
<event>
 7    1  0.4963616E-011  0.5052886E+02  0.7816164E-02  0.1300439E+00
        -11   -1    0    0    0    0  0.00000000000E+00  0.00000000000E+00  0.45593999997E+02  0.45594000000E+02  0.51100000000E-03 0. -1.
         11   -1    0    0    0    0 -0.00000000000E+00 -0.00000000000E+00 -0.45593999997E+02  0.45594000000E+02  0.51100000000E-03 0.  1.
    9900012    2    1    2    0    0  0.43347611576E+01  0.34078536464E+02  0.21749227533E+02  0.50528859575E+02  0.29999999163E+02 0.  0.
        -12    1    1    2    0    0 -0.43347611576E+01 -0.34078536464E+02 -0.21749227533E+02  0.40659140425E+02  0.00000000000E+00 0.  1.
         11    1    3    3    0    0  0.61152291925E+01  0.39841758132E+01  0.12306183362E+00  0.72996458451E+01  0.51100000000E-03 0.  1.
        -11    1    3    3    0    0  0.38276200016E+01  0.29881623363E+02  0.22431312495E+02  0.37559630858E+02  0.51100000000E-03 0. -1.
        -12    1    3    3    0    0 -0.56080880365E+01  0.21273728858E+00 -0.80514679531E+00  0.56695828718E+01  0.00000000000E+00 0.  1.
</event>
<event>
 7    1  0.4963616E-011  0.5052888E+02  0.7816164E-02  0.1300439E+00
        -11   -1    0    0    0    0  0.00000000000E+00  0.00000000000E+00  0.45593999997E+02  0.45594000000E+02  0.51100000000E-03 0.  1.
         11   -1    0    0    0    0 -0.00000000000E+00 -0.00000000000E+00 -0.45593999997E+02  0.45594000000E+02  0.51100000000E-03 0. -1.
    9900012    2    1    2    0    0 -0.38131960909E+02  0.13243349520E+02 -0.48714404845E+01  0.50528884396E+02  0.30000074610E+02 0.  0.
        -12    1    1    2    0    0  0.38131960909E+02 -0.13243349520E+02  0.48714404845E+01  0.40659115604E+02  0.00000000000E+00 0.  1.
         11    1    3    3    0    0 -0.13869226103E+02 -0.56240361626E+01 -0.86892929517E+01  0.17305751290E+02  0.51100000000E-03 0. -1.
        -11    1    3    3    0    0 -0.17077878631E+02  0.93024329502E+01 -0.26449628401E+01  0.19626131203E+02  0.51100000000E-03 0.  1.
         12    1    3    3    0    0 -0.71848561757E+01  0.95649527325E+01  0.64628153073E+01  0.13597001902E+02  0.00000000000E+00 0. -1.
</event>
<event>
 7    1  0.4963616E-011  0.5052887E+02  0.7816164E-02  0.1300439E+00
        -11   -1    0    0    0    0  0.00000000000E+00  0.00000000000E+00  0.45593999997E+02  0.45594000000E+02  0.51100000000E-03 0.  1.
         11   -1    0    0    0    0 -0.00000000000E+00 -0.00000000000E+00 -0.45593999997E+02  0.45594000000E+02  0.51100000000E-03 0. -1.
    9900012    2    1    2    0    0  0.40649772506E+02 -0.25573927679E+00  0.83417113411E+00  0.50528865124E+02  0.30000016032E+02 0.  0.
        -12    1    1    2    0    0 -0.40649772506E+02  0.25573927679E+00 -0.83417113411E+00  0.40659134876E+02  0.00000000000E+00 0.  1.
         11    1    3    3    0    0  0.83796998752E+01 -0.99912362067E+01 -0.75508960089E+01  0.15068516906E+02  0.51100000000E-03 0. -1.
        -11    1    3    3    0    0  0.11803888951E+02  0.29839632996E+01  0.65654726638E+01  0.13832615909E+02  0.51100000000E-03 0.  1.
         12    1    3    3    0    0  0.20466183680E+02  0.67515336302E+01  0.18195944792E+01  0.21627732310E+02  0.00000000000E+00 0. -1.
</event>
<event>
 7    1  0.6184661E-011  0.5052886E+02  0.7816164E-02  0.1300439E+00
        -11   -1    0    0    0    0  0.00000000000E+00  0.00000000000E+00  0.45593999997E+02  0.45594000000E+02  0.51100000000E-03 0.  1.
         11   -1    0    0    0    0 -0.00000000000E+00 -0.00000000000E+00 -0.45593999997E+02  0.45594000000E+02  0.51100000000E-03 0. -1.
    9900012    2    1    2    0    0 -0.28804420543E+02  0.28402022059E+02 -0.40983140130E+01  0.50528859852E+02  0.30000000005E+02 0.  0.
        -12    1    1    2    0    0  0.28804420543E+02 -0.28402022059E+02  0.40983140130E+01  0.40659140148E+02  0.00000000000E+00 0.  1.
         11    1    3    3    0    0 -0.14612416124E+02  0.12673698707E+02 -0.89702161260E+00  0.19363625485E+02  0.51100000000E-03 0. -1.
        -11    1    3    3    0    0 -0.14525162419E+01  0.15342180402E+02  0.47703803691E+01  0.16132229605E+02  0.51100000000E-03 0.  1.
        -12    1    3    3    0    0 -0.12739488178E+02  0.38614295003E+00 -0.79716727695E+01  0.15033004761E+02  0.00000000000E+00 0.  1.
</event>
<event>
 7    1  0.4963616E-011  0.5052886E+02  0.7816164E-02  0.1300439E+00
        -11   -1    0    0    0    0  0.00000000000E+00  0.00000000000E+00  0.45593999997E+02  0.45594000000E+02  0.51100000000E-03 0. -1.
         11   -1    0    0    0    0 -0.00000000000E+00 -0.00000000000E+00 -0.45593999997E+02  0.45594000000E+02  0.51100000000E-03 0.  1.
    9900012    2    1    2    0    0 -0.38116638073E+02  0.62606312993E+00  0.14138452872E+02  0.50528857085E+02  0.29999991595E+02 0.  0.
        -12    1    1    2    0    0  0.38116638073E+02 -0.62606312993E+00 -0.14138452872E+02  0.40659142915E+02  0.00000000000E+00 0.  1.
         11    1    3    3    0    0 -0.35584448524E+02  0.45274258385E+01  0.11840888542E+02  0.37775087071E+02  0.51100000000E-03 0. -1.
        -11    1    3    3    0    0  0.11759987481E+01  0.38105517047E+01  0.70639971175E+00  0.40499726126E+01  0.51100000000E-03 0.  1.
         12    1    3    3    0    0 -0.37081882969E+01 -0.77119144132E+01  0.15911646175E+01  0.87037974013E+01  0.00000000000E+00 0. -1.
</event>
<event>
 7    1  0.4963616E-011  0.5052886E+02  0.7816164E-02  0.1300439E+00
        -11   -1    0    0    0    0  0.00000000000E+00  0.00000000000E+00  0.45593999997E+02  0.45594000000E+02  0.51100000000E-03 0.  1.
         11   -1    0    0    0    0 -0.00000000000E+00 -0.00000000000E+00 -0.45593999997E+02  0.45594000000E+02  0.51100000000E-03 0. -1.
    9900012    2    1    2    0    0 -0.26972970824E+02 -0.20662947652E+02 -0.22330854429E+02  0.50528860556E+02  0.30000002147E+02 0.  0.
        -12    1    1    2    0    0  0.26972970824E+02  0.20662947652E+02  0.22330854429E+02  0.40659139444E+02  0.00000000000E+00 0.  1.
         11    1    3    3    0    0 -0.14122927014E+02 -0.24178892119E+02 -0.14118808658E+02  0.31359474641E+02  0.51100000000E-03 0. -1.
        -11    1    3    3    0    0 -0.14745575306E+02  0.31656280051E+01 -0.59894871384E+01  0.16227358017E+02  0.51100000000E-03 0.  1.
         12    1    3    3    0    0  0.18955314965E+01  0.35031646212E+00 -0.22225586334E+01  0.29420278987E+01  0.00000000000E+00 0. -1.
</event>
<event>
 7    1  0.4963616E-011  0.5052885E+02  0.7816164E-02  0.1300439E+00
        -11   -1    0    0    0    0  0.00000000000E+00  0.00000000000E+00  0.45593999997E+02  0.45594000000E+02  0.51100000000E-03 0.  1.
         11   -1    0    0    0    0 -0.00000000000E+00 -0.00000000000E+00 -0.45593999997E+02  0.45594000000E+02  0.51100000000E-03 0. -1.
    9900012    2    1    2    0    0 -0.37046815206E+02 -0.13496779543E+02 -0.99265799846E+01  0.50528848937E+02  0.29999966829E+02 0.  0.
        -12    1    1    2    0    0  0.37046815206E+02  0.13496779543E+02  0.99265799846E+01  0.40659151063E+02  0.00000000000E+00 0.  1.
         11    1    3    3    0    0 -0.34402152267E+02 -0.11971976671E+02 -0.17934228627E+02  0.40601389911E+02  0.51100000000E-03 0. -1.
        -11    1    3    3    0    0 -0.34555110608E+01  0.56984852764E+00  0.58172830210E+01  0.67901447734E+01  0.51100000000E-03 0.  1.
         12    1    3    3    0    0  0.81084812101E+00 -0.20946513996E+01  0.21903656217E+01  0.31373142523E+01  0.00000000000E+00 0. -1.
</event>
<event>
 7    1  0.4963616E-011  0.5052886E+02  0.7816164E-02  0.1300439E+00
        -11   -1    0    0    0    0  0.00000000000E+00  0.00000000000E+00  0.45593999997E+02  0.45594000000E+02  0.51100000000E-03 0.  1.
         11   -1    0    0    0    0 -0.00000000000E+00 -0.00000000000E+00 -0.45593999997E+02  0.45594000000E+02  0.51100000000E-03 0. -1.
    9900012    2    1    2    0    0 -0.28039789878E+01  0.31662313789E+02 -0.25353523862E+02  0.50528860992E+02  0.30000003472E+02 0.  0.
        -12    1    1    2    0    0  0.28039789878E+01 -0.31662313789E+02  0.25353523862E+02  0.40659139008E+02  0.00000000000E+00 0.  1.
         11    1    3    3    0    0 -0.18531881124E+01  0.34716739933E+02 -0.24160627527E+02  0.42337008167E+02  0.51100000000E-03 0. -1.
        -11    1    3    3    0    0 -0.31152787963E+01  0.56626261057E+00  0.11474012397E+01  0.33678101474E+01  0.51100000000E-03 0.  1.
         12    1    3    3    0    0  0.21644879209E+01 -0.36206887548E+01 -0.23402975747E+01  0.48240426778E+01  0.00000000000E+00 0. -1.
</event>
<event>
 7    1  0.4963616E-011  0.5052886E+02  0.7816164E-02  0.1300439E+00
        -11   -1    0    0    0    0  0.00000000000E+00  0.00000000000E+00  0.45593999997E+02  0.45594000000E+02  0.51100000000E-03 0.  1.
         11   -1    0    0    0    0 -0.00000000000E+00 -0.00000000000E+00 -0.45593999997E+02  0.45594000000E+02  0.51100000000E-03 0. -1.
    9900012    2    1    2    0    0 -0.49847280884E+01 -0.24957461028E+02 -0.31708727359E+02  0.50528858767E+02  0.29999996708E+02 0.  0.
        -12    1    1    2    0    0  0.49847280884E+01  0.24957461028E+02  0.31708727359E+02  0.40659141233E+02  0.00000000000E+00 0.  1.
         11    1    3    3    0    0 -0.13831486847E+02 -0.22054284610E+02 -0.25981765806E+02  0.36779799520E+02  0.51100000000E-03 0. -1.
        -11    1    3    3    0    0  0.55828198349E+01  0.13702513327E+01 -0.60709760038E+01  0.83607545068E+01  0.51100000000E-03 0.  1.
        -12    1    3    3    0    0  0.32639389233E+01 -0.42734277505E+01  0.34401445082E+00  0.53883047405E+01  0.00000000000E+00 0.  1.
</event>
<event>
 7    1  0.4963616E-011  0.5052886E+02  0.7816164E-02  0.1300439E+00
        -11   -1    0    0    0    0  0.00000000000E+00  0.00000000000E+00  0.45593999997E+02  0.45594000000E+02  0.51100000000E-03 0. -1.
         11   -1    0    0    0    0 -0.00000000000E+00 -0.00000000000E+00 -0.45593999997E+02  0.45594000000E+02  0.51100000000E-03 0.  1.
    9900012    2    1    2    0    0  0.16717776934E+02  0.23963388565E+02  0.28274327288E+02  0.50528860306E+02  0.30000001385E+02 0.  0.
        -12    1    1    2    0    0 -0.16717776934E+02 -0.23963388565E+02 -0.28274327288E+02  0.40659139694E+02  0.00000000000E+00 0.  1.
         11    1    3    3    0    0  0.11309456361E+02  0.20139939265E+02  0.40152757095E+01  0.23444474745E+02  0.51100000000E-03 0. -1.
        -11    1    3    3    0    0  0.63830286619E+01  0.19048346513E+00  0.72366141165E+01  0.96513171630E+01  0.51100000000E-03 0.  1.
         12    1    3    3    0    0 -0.97470808935E+00  0.36329658349E+01  0.17022437462E+02  0.17433068398E+02  0.00000000000E+00 0. -1.
</event>
<event>
 7    1  0.4963616E-011  0.5052884E+02  0.7816164E-02  0.1300439E+00
        -11   -1    0    0    0    0  0.00000000000E+00  0.00000000000E+00  0.45593999997E+02  0.45594000000E+02  0.51100000000E-03 0.  1.
         11   -1    0    0    0    0 -0.00000000000E+00 -0.00000000000E+00 -0.45593999997E+02  0.45594000000E+02  0.51100000000E-03 0. -1.
    9900012    2    1    2    0    0  0.29577422864E+02  0.27352995619E+02  0.54915554608E+01  0.50528837515E+02  0.29999932110E+02 0.  0.
        -12    1    1    2    0    0 -0.29577422864E+02 -0.27352995619E+02 -0.54915554608E+01  0.40659162485E+02  0.00000000000E+00 0.  1.
         11    1    3    3    0    0  0.18749140779E+02  0.16665527406E+02  0.60623097229E+01  0.25807395899E+02  0.51100000000E-03 0. -1.
        -11    1    3    3    0    0 -0.56044748721E+01  0.33463724464E+01 -0.15067131265E+01  0.66991441132E+01  0.51100000000E-03 0.  1.
        -12    1    3    3    0    0  0.16432756957E+02  0.73410957665E+01  0.93595886438E+00  0.18022297502E+02  0.00000000000E+00 0.  1.
</event>
<event>
 7    1  0.4963616E-011  0.5052899E+02  0.7816164E-02  0.1300438E+00
        -11   -1    0    0    0    0  0.00000000000E+00  0.00000000000E+00  0.45593999997E+02  0.45594000000E+02  0.51100000000E-03 0. -1.
         11   -1    0    0    0    0 -0.00000000000E+00 -0.00000000000E+00 -0.45593999997E+02  0.45594000000E+02  0.51100000000E-03 0.  1.
    9900012    2    1    2    0    0 -0.20568747332E+02 -0.22878474753E+02  0.26583015551E+02  0.50528994975E+02  0.30000410723E+02 0.  0.
        -12    1    1    2    0    0  0.20568747332E+02  0.22878474753E+02 -0.26583015551E+02  0.40659005025E+02  0.00000000000E+00 0.  1.
         11    1    3    3    0    0 -0.81863842534E+01 -0.12769906689E+02  0.15072465086E+02  0.21383793116E+02  0.51100000000E-03 0. -1.
        -11    1    3    3    0    0  0.20806095893E+01  0.52465739708E+01  0.30715711182E+01  0.64257314050E+01  0.51100000000E-03 0.  1.
        -12    1    3    3    0    0 -0.14462972668E+02 -0.15355142035E+02  0.84389793468E+01  0.22719470454E+02  0.00000000000E+00 0.  1.
</event>
<event>
 7    1  0.4963616E-011  0.5052886E+02  0.7816164E-02  0.1300439E+00
        -11   -1    0    0    0    0  0.00000000000E+00  0.00000000000E+00  0.45593999997E+02  0.45594000000E+02  0.51100000000E-03 0.  1.
         11   -1    0    0    0    0 -0.00000000000E+00 -0.00000000000E+00 -0.45593999997E+02  0.45594000000E+02  0.51100000000E-03 0. -1.
    9900012    2    1    2    0    0  0.32415102068E+02  0.32788656614E+01 -0.24324379903E+02  0.50528864990E+02  0.30000015624E+02 0.  0.
        -12    1    1    2    0    0 -0.32415102068E+02 -0.32788656614E+01  0.24324379903E+02  0.40659135010E+02  0.00000000000E+00 0.  1.
         11    1    3    3    0    0  0.11838373954E+02 -0.53722558127E+00 -0.81255819165E+01  0.14368743541E+02  0.51100000000E-03 0. -1.
        -11    1    3    3    0    0  0.26470262922E+01 -0.56914184914E+01  0.40673027540E+01  0.74794347774E+01  0.51100000000E-03 0.  1.
        -12    1    3    3    0    0  0.17929701822E+02  0.95075097341E+01 -0.20266100740E+02  0.28680686672E+02  0.00000000000E+00 0.  1.
</event>
<event>
 7    1  0.4963616E-011  0.5052886E+02  0.7816164E-02  0.1300439E+00
        -11   -1    0    0    0    0  0.00000000000E+00  0.00000000000E+00  0.45593999997E+02  0.45594000000E+02  0.51100000000E-03 0.  1.
         11   -1    0    0    0    0 -0.00000000000E+00 -0.00000000000E+00 -0.45593999997E+02  0.45594000000E+02  0.51100000000E-03 0. -1.
    9900012    2    1    2    0    0  0.35291218688E+02  0.69650284271E+01 -0.18952146215E+02  0.50528861008E+02  0.30000003519E+02 0.  0.
        -12    1    1    2    0    0 -0.35291218688E+02 -0.69650284271E+01  0.18952146215E+02  0.40659138992E+02  0.00000000000E+00 0.  1.
         11    1    3    3    0    0  0.15597859005E+02  0.16755474318E+02 -0.60955656111E+01  0.23689555621E+02  0.51100000000E-03 0. -1.
        -11    1    3    3    0    0  0.29468510370E+01  0.12982917314E+01 -0.50277537224E+00  0.32591833011E+01  0.51100000000E-03 0.  1.
         12    1    3    3    0    0  0.16746508646E+02 -0.11088737622E+02 -0.12353805231E+02  0.23580122085E+02  0.00000000000E+00 0. -1.
</event>
<event>
 7    1  0.4963616E-011  0.5052886E+02  0.7816164E-02  0.1300439E+00
        -11   -1    0    0    0    0  0.00000000000E+00  0.00000000000E+00  0.45593999997E+02  0.45594000000E+02  0.51100000000E-03 0. -1.
         11   -1    0    0    0    0 -0.00000000000E+00 -0.00000000000E+00 -0.45593999997E+02  0.45594000000E+02  0.51100000000E-03 0.  1.
    9900012    2    1    2    0    0 -0.60495388512E+01  0.35772216789E+01  0.40047125927E+02  0.50528859204E+02  0.29999998037E+02 0.  0.
        -12    1    1    2    0    0  0.60495388512E+01 -0.35772216789E+01 -0.40047125927E+02  0.40659140796E+02  0.00000000000E+00 0.  1.
         11    1    3    3    0    0  0.29097218828E+01 -0.68368938793E+01  0.17462371919E+01  0.76327546759E+01  0.51100000000E-03 0. -1.
        -11    1    3    3    0    0 -0.33250399975E+01  0.70415912312E+01  0.57254624302E+01  0.96654445502E+01  0.51100000000E-03 0.  1.
         12    1    3    3    0    0 -0.56342207364E+01  0.33725243270E+01  0.32575426305E+02  0.33230659978E+02  0.00000000000E+00 0. -1.
</event>
<event>
 7    1  0.4963616E-011  0.5052885E+02  0.7816164E-02  0.1300439E+00
        -11   -1    0    0    0    0  0.00000000000E+00  0.00000000000E+00  0.45593999997E+02  0.45594000000E+02  0.51100000000E-03 0.  1.
         11   -1    0    0    0    0 -0.00000000000E+00 -0.00000000000E+00 -0.45593999997E+02  0.45594000000E+02  0.51100000000E-03 0. -1.
    9900012    2    1    2    0    0  0.86930323136E+00  0.77380045819E+01 -0.39906562092E+02  0.50528854645E+02  0.29999984179E+02 0.  0.
        -12    1    1    2    0    0 -0.86930323136E+00 -0.77380045819E+01  0.39906562092E+02  0.40659145355E+02  0.00000000000E+00 0.  1.
         11    1    3    3    0    0 -0.39445391617E+01  0.45780848751E+01 -0.30866015267E+02  0.31452013434E+02  0.51100000000E-03 0. -1.
        -11    1    3    3    0    0  0.84921058242E+01  0.22685478728E+01  0.50903023126E+00  0.88046171307E+01  0.51100000000E-03 0.  1.
        -12    1    3    3    0    0 -0.36782634312E+01  0.89137183408E+00 -0.95495770561E+01  0.10272224081E+02  0.00000000000E+00 0.  1.
</event>
<event>
 7    1  0.4963616E-011  0.5052886E+02  0.7816164E-02  0.1300439E+00
        -11   -1    0    0    0    0  0.00000000000E+00  0.00000000000E+00  0.45593999997E+02  0.45594000000E+02  0.51100000000E-03 0. -1.
         11   -1    0    0    0    0 -0.00000000000E+00 -0.00000000000E+00 -0.45593999997E+02  0.45594000000E+02  0.51100000000E-03 0.  1.
    9900012    2    1    2    0    0  0.13219549917E+01  0.31463123114E+02  0.25719445495E+02  0.50528861326E+02  0.30000004488E+02 0.  0.
        -12    1    1    2    0    0 -0.13219549917E+01 -0.31463123114E+02 -0.25719445495E+02  0.40659138674E+02  0.00000000000E+00 0.  1.
         11    1    3    3    0    0 -0.11903650521E+02  0.89029303057E+01  0.16075350978E+02  0.21894656268E+02  0.51100000000E-03 0.  1.
        -11    1    3    3    0    0  0.13773821683E+02  0.21886660186E+02  0.85489766927E+01  0.27236539071E+02  0.51100000000E-03 0. -1.
         12    1    3    3    0    0 -0.54821617012E+00  0.67353262290E+00  0.10951178241E+01  0.13976659872E+01  0.00000000000E+00 0. -1.
</event>
<event>
 7    1  0.4963616E-011  0.5052886E+02  0.7816164E-02  0.1300439E+00
        -11   -1    0    0    0    0  0.00000000000E+00  0.00000000000E+00  0.45593999997E+02  0.45594000000E+02  0.51100000000E-03 0.  1.
         11   -1    0    0    0    0 -0.00000000000E+00 -0.00000000000E+00 -0.45593999997E+02  0.45594000000E+02  0.51100000000E-03 0. -1.
    9900012    2    1    2    0    0 -0.12349123729E+01  0.39049311704E+02 -0.11260208327E+02  0.50528855337E+02  0.29999986282E+02 0.  0.
        -12    1    1    2    0    0  0.12349123729E+01 -0.39049311704E+02  0.11260208327E+02  0.40659144663E+02  0.00000000000E+00 0.  1.
         11    1    3    3    0    0  0.39863399486E+01  0.30201072809E+02 -0.15894143252E+02  0.34360143990E+02  0.51100000000E-03 0. -1.
        -11    1    3    3    0    0 -0.58745286855E+01  0.55803275764E+01 -0.23449340571E+01  0.84349783124E+01  0.51100000000E-03 0.  1.
         12    1    3    3    0    0  0.65327636395E+00  0.32679113189E+01  0.69788689816E+01  0.77337330351E+01  0.00000000000E+00 0. -1.
</event>
<event>
 7    1  0.4963616E-011  0.5052886E+02  0.7816164E-02  0.1300439E+00
        -11   -1    0    0    0    0  0.00000000000E+00  0.00000000000E+00  0.45593999997E+02  0.45594000000E+02  0.51100000000E-03 0. -1.
         11   -1    0    0    0    0 -0.00000000000E+00 -0.00000000000E+00 -0.45593999997E+02  0.45594000000E+02  0.51100000000E-03 0.  1.
    9900012    2    1    2    0    0  0.15079107894E+02  0.24510308483E+02  0.28723355281E+02  0.50528857665E+02  0.29999993359E+02 0.  0.
        -12    1    1    2    0    0 -0.15079107894E+02 -0.24510308483E+02 -0.28723355281E+02  0.40659142335E+02  0.00000000000E+00 0.  1.
         11    1    3    3    0    0  0.11327031436E+02  0.38475720558E+01  0.18606191582E+01  0.12106500559E+02  0.51100000000E-03 0. -1.
        -11    1    3    3    0    0 -0.41420398598E+01  0.17904792632E+02  0.14096875435E+02  0.23161605961E+02  0.51100000000E-03 0.  1.
        -12    1    3    3    0    0  0.78941163172E+01  0.27579437957E+01  0.12765860688E+02  0.15260751145E+02  0.00000000000E+00 0.  1.
</event>
<event>
 7    1  0.4963616E-011  0.5052885E+02  0.7816164E-02  0.1300439E+00
        -11   -1    0    0    0    0  0.00000000000E+00  0.00000000000E+00  0.45593999997E+02  0.45594000000E+02  0.51100000000E-03 0.  1.
         11   -1    0    0    0    0 -0.00000000000E+00 -0.00000000000E+00 -0.45593999997E+02  0.45594000000E+02  0.51100000000E-03 0. -1.
    9900012    2    1    2    0    0  0.27104357786E+02 -0.21555801865E+01 -0.30230338249E+02  0.50528854810E+02  0.29999984681E+02 0.  0.
        -12    1    1    2    0    0 -0.27104357786E+02  0.21555801865E+01  0.30230338249E+02  0.40659145190E+02  0.00000000000E+00 0.  1.
         11    1    3    3    0    0  0.17212145648E+02  0.91556606673E+01 -0.80734380851E+01  0.21101291023E+02  0.51100000000E-03 0. -1.
        -11    1    3    3    0    0  0.89905559188E+01 -0.12027572005E+02 -0.12045031604E+02  0.19250334300E+02  0.51100000000E-03 0.  1.
         12    1    3    3    0    0  0.90165621862E+00  0.71633115143E+00 -0.10111868560E+02  0.10177229487E+02  0.00000000000E+00 0. -1.
</event>
<event>
 7    1  0.4963616E-011  0.5052887E+02  0.7816164E-02  0.1300439E+00
        -11   -1    0    0    0    0  0.00000000000E+00  0.00000000000E+00  0.45593999997E+02  0.45594000000E+02  0.51100000000E-03 0.  1.
         11   -1    0    0    0    0 -0.00000000000E+00 -0.00000000000E+00 -0.45593999997E+02  0.45594000000E+02  0.51100000000E-03 0. -1.
    9900012    2    1    2    0    0 -0.68035246155E+00  0.68753520379E+01 -0.40067839690E+02  0.50528866677E+02  0.30000020753E+02 0.  0.
        -12    1    1    2    0    0  0.68035246155E+00 -0.68753520379E+01  0.40067839690E+02  0.40659133323E+02  0.00000000000E+00 0.  1.
         11    1    3    3    0    0 -0.13014041691E+01 -0.48356146400E+01 -0.35988016428E+02  0.36334751250E+02  0.51100000000E-03 0. -1.
        -11    1    3    3    0    0 -0.25320946519E+01  0.90963522866E+01 -0.22429441676E+01  0.97049434336E+01  0.51100000000E-03 0.  1.
         12    1    3    3    0    0  0.31531463595E+01  0.26146143913E+01 -0.18368790949E+01  0.44891719937E+01  0.00000000000E+00 0. -1.
</event>
<event>
 7    1  0.4963616E-011  0.5052886E+02  0.7816164E-02  0.1300439E+00
        -11   -1    0    0    0    0  0.00000000000E+00  0.00000000000E+00  0.45593999997E+02  0.45594000000E+02  0.51100000000E-03 0.  1.
         11   -1    0    0    0    0 -0.00000000000E+00 -0.00000000000E+00 -0.45593999997E+02  0.45594000000E+02  0.51100000000E-03 0. -1.
    9900012    2    1    2    0    0  0.78510228473E+01 -0.11299505479E+02 -0.38260269295E+02  0.50528860925E+02  0.30000003268E+02 0.  0.
        -12    1    1    2    0    0 -0.78510228473E+01  0.11299505479E+02  0.38260269295E+02  0.40659139075E+02  0.00000000000E+00 0.  1.
         11    1    3    3    0    0  0.93192140357E+01 -0.66741441593E+01 -0.43491324375E+01  0.12259971604E+02  0.51100000000E-03 0.  1.
        -11    1    3    3    0    0  0.11448879479E+01 -0.58665203252E+01 -0.34747267402E+02  0.35257615083E+02  0.51100000000E-03 0. -1.
        -12    1    3    3    0    0 -0.26130791363E+01  0.12411590059E+01  0.83613054517E+00  0.30112742384E+01  0.00000000000E+00 0.  1.
</event>
<event>
 7    1  0.4963616E-011  0.5052890E+02  0.7816164E-02  0.1300439E+00
        -11   -1    0    0    0    0  0.00000000000E+00  0.00000000000E+00  0.45593999997E+02  0.45594000000E+02  0.51100000000E-03 0.  1.
         11   -1    0    0    0    0 -0.00000000000E+00 -0.00000000000E+00 -0.45593999997E+02  0.45594000000E+02  0.51100000000E-03 0. -1.
    9900012    2    1    2    0    0  0.36562725331E+02  0.13266928312E+02 -0.11845585784E+02  0.50528902949E+02  0.30000131003E+02 0.  0.
        -12    1    1    2    0    0 -0.36562725331E+02 -0.13266928312E+02  0.11845585784E+02  0.40659097051E+02  0.00000000000E+00 0.  1.
         11    1    3    3    0    0  0.85279601901E+01  0.83243845127E+01 -0.11960646078E+02  0.16884268932E+02  0.51100000000E-03 0. -1.
        -11    1    3    3    0    0  0.26750444414E+02 -0.89364571727E+00 -0.29520283847E+01  0.26927668872E+02  0.51100000000E-03 0.  1.
         12    1    3    3    0    0  0.12843207266E+01  0.58361895161E+01  0.30670886779E+01  0.67169651447E+01  0.00000000000E+00 0. -1.
</event>
<event>
 7    1  0.4963616E-011  0.5052886E+02  0.7816164E-02  0.1300439E+00
        -11   -1    0    0    0    0  0.00000000000E+00  0.00000000000E+00  0.45593999997E+02  0.45594000000E+02  0.51100000000E-03 0. -1.
         11   -1    0    0    0    0 -0.00000000000E+00 -0.00000000000E+00 -0.45593999997E+02  0.45594000000E+02  0.51100000000E-03 0.  1.
    9900012    2    1    2    0    0 -0.47468539052E+01 -0.24552879558E+02  0.32059148084E+02  0.50528862128E+02  0.30000006925E+02 0.  0.
        -12    1    1    2    0    0  0.47468539052E+01  0.24552879558E+02 -0.32059148084E+02  0.40659137872E+02  0.00000000000E+00 0.  1.
         11    1    3    3    0    0 -0.66868793863E+01 -0.19710102319E+01 -0.20194519026E+01  0.72579214318E+01  0.51100000000E-03 0. -1.
        -11    1    3    3    0    0  0.67040986833E+01 -0.15246740617E+02  0.15570334226E+02  0.22800073394E+02  0.51100000000E-03 0.  1.
         12    1    3    3    0    0 -0.47640732021E+01 -0.73351287089E+01  0.18508265761E+02  0.20470867303E+02  0.00000000000E+00 0. -1.
</event>
<event>
 7    1  0.4963616E-011  0.5052886E+02  0.7816164E-02  0.1300439E+00
        -11   -1    0    0    0    0  0.00000000000E+00  0.00000000000E+00  0.45593999997E+02  0.45594000000E+02  0.51100000000E-03 0. -1.
         11   -1    0    0    0    0 -0.00000000000E+00 -0.00000000000E+00 -0.45593999997E+02  0.45594000000E+02  0.51100000000E-03 0.  1.
    9900012    2    1    2    0    0 -0.30956826394E+02  0.25849583061E+02  0.51613715783E+01  0.50528858329E+02  0.29999995378E+02 0.  0.
        -12    1    1    2    0    0  0.30956826394E+02 -0.25849583061E+02 -0.51613715783E+01  0.40659141671E+02  0.00000000000E+00 0.  1.
         11    1    3    3    0    0 -0.65710404668E+01  0.63303051485E+01  0.49273761724E+00  0.91375120635E+01  0.51100000000E-03 0. -1.
        -11    1    3    3    0    0  0.23205252558E+01  0.79447828588E+01  0.86985660085E+01  0.12007058882E+02  0.51100000000E-03 0.  1.
        -12    1    3    3    0    0 -0.26706311183E+02  0.11574495054E+02 -0.40299320474E+01  0.29384287384E+02  0.00000000000E+00 0.  1.
</event>
<event>
 7    1  0.4963616E-011  0.5052886E+02  0.7816164E-02  0.1300439E+00
        -11   -1    0    0    0    0  0.00000000000E+00  0.00000000000E+00  0.45593999997E+02  0.45594000000E+02  0.51100000000E-03 0. -1.
         11   -1    0    0    0    0 -0.00000000000E+00 -0.00000000000E+00 -0.45593999997E+02  0.45594000000E+02  0.51100000000E-03 0.  1.
    9900012    2    1    2    0    0 -0.35823340562E+02 -0.17258422594E+02 -0.84853283772E+01  0.50528859858E+02  0.30000000025E+02 0.  0.
        -12    1    1    2    0    0  0.35823340562E+02  0.17258422594E+02  0.84853283772E+01  0.40659140142E+02  0.00000000000E+00 0.  1.
         11    1    3    3    0    0 -0.24373781088E+02 -0.46959297589E+01 -0.10850942022E+01  0.24845731837E+02  0.51100000000E-03 0. -1.
        -11    1    3    3    0    0 -0.10855647299E+02 -0.84769894874E+01 -0.12856297995E+02  0.18841147191E+02  0.51100000000E-03 0.  1.
         12    1    3    3    0    0 -0.59391217399E+00 -0.40855033473E+01  0.54560638202E+01  0.68419808302E+01  0.00000000000E+00 0. -1.
</event>
<event>
 7    1  0.4963616E-011  0.5052886E+02  0.7816164E-02  0.1300439E+00
        -11   -1    0    0    0    0  0.00000000000E+00  0.00000000000E+00  0.45593999997E+02  0.45594000000E+02  0.51100000000E-03 0.  1.
         11   -1    0    0    0    0 -0.00000000000E+00 -0.00000000000E+00 -0.45593999997E+02  0.45594000000E+02  0.51100000000E-03 0. -1.
    9900012    2    1    2    0    0 -0.29749280467E+02  0.27587203958E+02  0.26631428555E+01  0.50528857850E+02  0.29999993920E+02 0.  0.
        -12    1    1    2    0    0  0.29749280467E+02 -0.27587203958E+02 -0.26631428555E+01  0.40659142150E+02  0.00000000000E+00 0.  1.
         11    1    3    3    0    0  0.25144619987E+01 -0.76406885725E+00 -0.26805448916E+01  0.37538835276E+01  0.51100000000E-03 0. -1.
        -11    1    3    3    0    0 -0.16085399436E+02  0.19466352909E+02  0.10892568212E+02  0.27501400202E+02  0.51100000000E-03 0.  1.
         12    1    3    3    0    0 -0.16178343030E+02  0.88849199068E+01 -0.55488804650E+01  0.19273574120E+02  0.00000000000E+00 0. -1.
</event>
<event>
 7    1  0.4963616E-011  0.5052886E+02  0.7816164E-02  0.1300439E+00
        -11   -1    0    0    0    0  0.00000000000E+00  0.00000000000E+00  0.45593999997E+02  0.45594000000E+02  0.51100000000E-03 0.  1.
         11   -1    0    0    0    0 -0.00000000000E+00 -0.00000000000E+00 -0.45593999997E+02  0.45594000000E+02  0.51100000000E-03 0. -1.
    9900012    2    1    2    0    0  0.35940600535E+01  0.39822053802E+02  0.73792063755E+01  0.50528856829E+02  0.29999990817E+02 0.  0.
        -12    1    1    2    0    0 -0.35940600535E+01 -0.39822053802E+02 -0.73792063755E+01  0.40659143171E+02  0.00000000000E+00 0.  1.
         11    1    3    3    0    0 -0.35563181226E+00  0.83202309061E+01 -0.84743880256E+01  0.11881412752E+02  0.51100000000E-03 0. -1.
        -11    1    3    3    0    0  0.85590881038E+01  0.96324041895E+01  0.62536132296E+01  0.14323019176E+02  0.51100000000E-03 0.  1.
         12    1    3    3    0    0 -0.46093962380E+01  0.21869418707E+02  0.95999811715E+01  0.24324424900E+02  0.00000000000E+00 0. -1.
</event>
<event>
 7    1  0.4963616E-011  0.5052886E+02  0.7816164E-02  0.1300439E+00
        -11   -1    0    0    0    0  0.00000000000E+00  0.00000000000E+00  0.45593999997E+02  0.45594000000E+02  0.51100000000E-03 0.  1.
         11   -1    0    0    0    0 -0.00000000000E+00 -0.00000000000E+00 -0.45593999997E+02  0.45594000000E+02  0.51100000000E-03 0. -1.
    9900012    2    1    2    0    0  0.30085510196E+02  0.24890330971E+02 -0.11335747802E+02  0.50528859848E+02  0.29999999995E+02 0.  0.
        -12    1    1    2    0    0 -0.30085510196E+02 -0.24890330971E+02  0.11335747802E+02  0.40659140152E+02  0.00000000000E+00 0.  1.
         11    1    3    3    0    0  0.22262008575E+02  0.17658087265E+02 -0.13459087997E+02  0.31441248729E+02  0.51100000000E-03 0. -1.
        -11    1    3    3    0    0  0.57641982934E+01  0.10962407543E+02  0.55958601206E+01  0.13590953309E+02  0.51100000000E-03 0.  1.
         12    1    3    3    0    0  0.20593033282E+01 -0.37301638370E+01 -0.34725199256E+01  0.54966578102E+01  0.00000000000E+00 0. -1.
</event>
<event>
 7    1  0.4963616E-011  0.5052886E+02  0.7816164E-02  0.1300439E+00
        -11   -1    0    0    0    0  0.00000000000E+00  0.00000000000E+00  0.45593999997E+02  0.45594000000E+02  0.51100000000E-03 0.  1.
         11   -1    0    0    0    0 -0.00000000000E+00 -0.00000000000E+00 -0.45593999997E+02  0.45594000000E+02  0.51100000000E-03 0. -1.
    9900012    2    1    2    0    0  0.13122767863E+02 -0.10916784301E+02 -0.36902338426E+02  0.50528858381E+02  0.29999995535E+02 0.  0.
        -12    1    1    2    0    0 -0.13122767863E+02  0.10916784301E+02  0.36902338426E+02  0.40659141619E+02  0.00000000000E+00 0.  1.
         11    1    3    3    0    0  0.31804245893E+01 -0.28220912901E+01 -0.34624238121E+02  0.34884339833E+02  0.51100000000E-03 0. -1.
        -11    1    3    3    0    0  0.71066374763E+01 -0.44396357381E+01 -0.54855399047E+01  0.10015278829E+02  0.51100000000E-03 0.  1.
         12    1    3    3    0    0  0.28357057978E+01 -0.36550572724E+01  0.32074395999E+01  0.56292397198E+01  0.00000000000E+00 0. -1.
</event>
<event>
 7    1  0.4963616E-011  0.5052885E+02  0.7816164E-02  0.1300439E+00
        -11   -1    0    0    0    0  0.00000000000E+00  0.00000000000E+00  0.45593999997E+02  0.45594000000E+02  0.51100000000E-03 0.  1.
         11   -1    0    0    0    0 -0.00000000000E+00 -0.00000000000E+00 -0.45593999997E+02  0.45594000000E+02  0.51100000000E-03 0. -1.
    9900012    2    1    2    0    0 -0.13179723313E+02  0.89010616733E+00 -0.38453461906E+02  0.50528854311E+02  0.29999983163E+02 0.  0.
        -12    1    1    2    0    0  0.13179723313E+02 -0.89010616733E+00  0.38453461906E+02  0.40659145689E+02  0.00000000000E+00 0.  1.
         11    1    3    3    0    0 -0.74150452976E+01  0.75371230180E+01 -0.23067427435E+02  0.25375132096E+02  0.51100000000E-03 0. -1.
        -11    1    3    3    0    0  0.37876024015E+01 -0.52000145936E+01  0.61465246322E+00  0.64624980957E+01  0.51100000000E-03 0.  1.
        -12    1    3    3    0    0 -0.95522804167E+01 -0.14470022571E+01 -0.16000686935E+02  0.18691224119E+02  0.00000000000E+00 0.  1.
</event>
<event>
 7    1  0.4963616E-011  0.5052886E+02  0.7816164E-02  0.1300439E+00
        -11   -1    0    0    0    0  0.00000000000E+00  0.00000000000E+00  0.45593999997E+02  0.45594000000E+02  0.51100000000E-03 0. -1.
         11   -1    0    0    0    0 -0.00000000000E+00 -0.00000000000E+00 -0.45593999997E+02  0.45594000000E+02  0.51100000000E-03 0.  1.
    9900012    2    1    2    0    0 -0.14858894571E+02 -0.85219234038E+01  0.36874869321E+02  0.50528856947E+02  0.29999991177E+02 0.  0.
        -12    1    1    2    0    0  0.14858894571E+02  0.85219234038E+01 -0.36874869321E+02  0.40659143053E+02  0.00000000000E+00 0.  1.
         11    1    3    3    0    0 -0.11575760794E+02 -0.14615412763E+02  0.17995755786E+02  0.25912463309E+02  0.51100000000E-03 0. -1.
        -11    1    3    3    0    0 -0.79718810223E+01  0.23165487132E+01  0.15813422381E+02  0.17860056345E+02  0.51100000000E-03 0.  1.
         12    1    3    3    0    0  0.46887472452E+01  0.37769406457E+01  0.30656911536E+01  0.67563372932E+01  0.00000000000E+00 0. -1.
</event>
<event>
 7    1  0.4963616E-011  0.5052887E+02  0.7816164E-02  0.1300439E+00
        -11   -1    0    0    0    0  0.00000000000E+00  0.00000000000E+00  0.45593999997E+02  0.45594000000E+02  0.51100000000E-03 0.  1.
         11   -1    0    0    0    0 -0.00000000000E+00 -0.00000000000E+00 -0.45593999997E+02  0.45594000000E+02  0.51100000000E-03 0. -1.
    9900012    2    1    2    0    0 -0.29999889453E+02  0.20504153871E+02  0.18241461168E+02  0.50528873119E+02  0.30000040332E+02 0.  0.
        -12    1    1    2    0    0  0.29999889453E+02 -0.20504153871E+02 -0.18241461168E+02  0.40659126881E+02  0.00000000000E+00 0.  1.
         11    1    3    3    0    0 -0.13518198070E+02  0.27846935517E+01 -0.63395279923E+01  0.15188344632E+02  0.51100000000E-03 0. -1.
        -11    1    3    3    0    0 -0.80663898963E+01  0.38733704499E+01  0.11137374866E+02  0.14286733838E+02  0.51100000000E-03 0.  1.
         12    1    3    3    0    0 -0.84153014866E+01  0.13846089870E+02  0.13443614295E+02  0.21053794648E+02  0.00000000000E+00 0. -1.
</event>
<event>
 7    1  0.4963616E-011  0.5052887E+02  0.7816164E-02  0.1300439E+00
        -11   -1    0    0    0    0  0.00000000000E+00  0.00000000000E+00  0.45593999997E+02  0.45594000000E+02  0.51100000000E-03 0.  1.
         11   -1    0    0    0    0 -0.00000000000E+00 -0.00000000000E+00 -0.45593999997E+02  0.45594000000E+02  0.51100000000E-03 0. -1.
    9900012    2    1    2    0    0 -0.26128823899E+02 -0.30869850327E+02 -0.41834773872E+01  0.50528873342E+02  0.30000041009E+02 0.  0.
        -12    1    1    2    0    0  0.26128823899E+02  0.30869850327E+02  0.41834773872E+01  0.40659126658E+02  0.00000000000E+00 0.  1.
         11    1    3    3    0    0 -0.17468856438E+02 -0.37395588559E+01 -0.83200380180E+01  0.19707061642E+02  0.51100000000E-03 0.  1.
        -11    1    3    3    0    0 -0.10798056943E+01 -0.17708063040E+02 -0.80276998917E+00  0.17759107998E+02  0.51100000000E-03 0. -1.
        -12    1    3    3    0    0 -0.75801617673E+01 -0.94222284306E+01  0.49393306200E+01  0.13062703701E+02  0.00000000000E+00 0.  1.
</event>
<event>
 7    1  0.4963616E-011  0.5052886E+02  0.7816164E-02  0.1300439E+00
        -11   -1    0    0    0    0  0.00000000000E+00  0.00000000000E+00  0.45593999997E+02  0.45594000000E+02  0.51100000000E-03 0.  1.
         11   -1    0    0    0    0 -0.00000000000E+00 -0.00000000000E+00 -0.45593999997E+02  0.45594000000E+02  0.51100000000E-03 0. -1.
    9900012    2    1    2    0    0  0.34659958589E+02  0.10837201357E+01 -0.21229196170E+02  0.50528856517E+02  0.29999989870E+02 0.  0.
        -12    1    1    2    0    0 -0.34659958589E+02 -0.10837201357E+01  0.21229196170E+02  0.40659143483E+02  0.00000000000E+00 0.  1.
         11    1    3    3    0    0  0.20828968829E+02 -0.11676956214E+01 -0.13478656453E+02  0.24837142258E+02  0.51100000000E-03 0. -1.
        -11    1    3    3    0    0  0.83301973702E+01  0.10227640907E+02 -0.89326492571E+01  0.15930757978E+02  0.51100000000E-03 0.  1.
         12    1    3    3    0    0  0.55007923900E+01 -0.79762251494E+01  0.11821095400E+01  0.97609562809E+01  0.00000000000E+00 0. -1.
</event>
<event>
 7    1  0.4963616E-011  0.5052886E+02  0.7816164E-02  0.1300439E+00
        -11   -1    0    0    0    0  0.00000000000E+00  0.00000000000E+00  0.45593999997E+02  0.45594000000E+02  0.51100000000E-03 0. -1.
         11   -1    0    0    0    0 -0.00000000000E+00 -0.00000000000E+00 -0.45593999997E+02  0.45594000000E+02  0.51100000000E-03 0.  1.
    9900012    2    1    2    0    0  0.38447881290E+02  0.13065541097E+02 -0.20536307503E+01  0.50528864014E+02  0.30000012658E+02 0.  0.
        -12    1    1    2    0    0 -0.38447881290E+02 -0.13065541097E+02  0.20536307503E+01  0.40659135986E+02  0.00000000000E+00 0.  1.
         11    1    3    3    0    0 -0.29431474161E+00  0.55953329052E+01  0.56018135456E+01  0.79230478194E+01  0.51100000000E-03 0. -1.
        -11    1    3    3    0    0  0.28687511983E+02  0.38971540110E+01  0.84478434641E+00  0.28963335685E+02  0.51100000000E-03 0.  1.
        -12    1    3    3    0    0  0.10054684048E+02  0.35730541805E+01 -0.85002286423E+01  0.13642480510E+02  0.00000000000E+00 0.  1.
</event>
<event>
 7    1  0.4963616E-011  0.5052885E+02  0.7816164E-02  0.1300439E+00
        -11   -1    0    0    0    0  0.00000000000E+00  0.00000000000E+00  0.45593999997E+02  0.45594000000E+02  0.51100000000E-03 0.  1.
         11   -1    0    0    0    0 -0.00000000000E+00 -0.00000000000E+00 -0.45593999997E+02  0.45594000000E+02  0.51100000000E-03 0. -1.
    9900012    2    1    2    0    0 -0.94301401266E+01  0.37571075582E+01 -0.39371598017E+02  0.50528854283E+02  0.29999983078E+02 0.  0.
        -12    1    1    2    0    0  0.94301401266E+01 -0.37571075582E+01  0.39371598017E+02  0.40659145717E+02  0.00000000000E+00 0.  1.
         11    1    3    3    0    0  0.49112572095E+01  0.37710226809E+01 -0.26321697040E+02  0.27040207003E+02  0.51100000000E-03 0. -1.
        -11    1    3    3    0    0 -0.52411295408E+01  0.57269401390E+01 -0.92537393951E+01  0.12078864817E+02  0.51100000000E-03 0.  1.
         12    1    3    3    0    0 -0.91002677953E+01 -0.57408552618E+01 -0.37961615825E+01  0.11409782463E+02  0.00000000000E+00 0. -1.
</event>
<event>
 7    1  0.4963616E-011  0.5052886E+02  0.7816164E-02  0.1300439E+00
        -11   -1    0    0    0    0  0.00000000000E+00  0.00000000000E+00  0.45593999997E+02  0.45594000000E+02  0.51100000000E-03 0.  1.
         11   -1    0    0    0    0 -0.00000000000E+00 -0.00000000000E+00 -0.45593999997E+02  0.45594000000E+02  0.51100000000E-03 0. -1.
    9900012    2    1    2    0    0  0.40394507280E+01  0.40449324209E+02  0.83725853129E+00  0.50528855973E+02  0.29999988217E+02 0.  0.
        -12    1    1    2    0    0 -0.40394507280E+01 -0.40449324209E+02 -0.83725853129E+00  0.40659144027E+02  0.00000000000E+00 0.  1.
         11    1    3    3    0    0  0.39781377988E+01  0.37415502709E+02 -0.10267462271E+02  0.39002130776E+02  0.51100000000E-03 0. -1.
        -11    1    3    3    0    0  0.80050516145E-01  0.22148114648E+01  0.89825870771E+01  0.92519548621E+01  0.51100000000E-03 0.  1.
         12    1    3    3    0    0 -0.18737587022E-01  0.81901003514E+00  0.21221337247E+01  0.22747703358E+01  0.00000000000E+00 0. -1.
</event>
<event>
 7    1  0.4963616E-011  0.5052886E+02  0.7816164E-02  0.1300439E+00
        -11   -1    0    0    0    0  0.00000000000E+00  0.00000000000E+00  0.45593999997E+02  0.45594000000E+02  0.51100000000E-03 0. -1.
         11   -1    0    0    0    0 -0.00000000000E+00 -0.00000000000E+00 -0.45593999997E+02  0.45594000000E+02  0.51100000000E-03 0.  1.
    9900012    2    1    2    0    0  0.34221002466E+02  0.17452086809E+02  0.13323399454E+02  0.50528864289E+02  0.30000013493E+02 0.  0.
        -12    1    1    2    0    0 -0.34221002466E+02 -0.17452086809E+02 -0.13323399454E+02  0.40659135711E+02  0.00000000000E+00 0.  1.
         11    1    3    3    0    0  0.71862937937E+01 -0.28238523103E+01  0.68475075497E+01  0.10320141485E+02  0.51100000000E-03 0. -1.
        -11    1    3    3    0    0  0.12645704548E+02  0.75242861219E+01 -0.74264259110E+01  0.16482734216E+02  0.51100000000E-03 0.  1.
         12    1    3    3    0    0  0.14389004124E+02  0.12751652997E+02  0.13902317816E+02  0.23725988588E+02  0.00000000000E+00 0. -1.
</event>
<event>
 7    1  0.4963616E-011  0.5052886E+02  0.7816164E-02  0.1300439E+00
        -11   -1    0    0    0    0  0.00000000000E+00  0.00000000000E+00  0.45593999997E+02  0.45594000000E+02  0.51100000000E-03 0.  1.
         11   -1    0    0    0    0 -0.00000000000E+00 -0.00000000000E+00 -0.45593999997E+02  0.45594000000E+02  0.51100000000E-03 0. -1.
    9900012    2    1    2    0    0  0.32090514404E+02  0.23777696423E+02 -0.76148501014E+01  0.50528857068E+02  0.29999991545E+02 0.  0.
        -12    1    1    2    0    0 -0.32090514404E+02 -0.23777696423E+02  0.76148501014E+01  0.40659142932E+02  0.00000000000E+00 0.  1.
         11    1    3    3    0    0  0.32858156833E+02  0.24957347559E+02 -0.13545306356E+02  0.43428135951E+02  0.51100000000E-03 0. -1.
        -11    1    3    3    0    0 -0.10452965365E+01 -0.24180900543E+01  0.39067059058E+01  0.47119163464E+01  0.51100000000E-03 0.  1.
         12    1    3    3    0    0  0.27765410779E+00  0.12384389177E+01  0.20237503492E+01  0.23888047707E+01  0.00000000000E+00 0. -1.
</event>
<event>
 7    1  0.4963616E-011  0.5052886E+02  0.7816164E-02  0.1300439E+00
        -11   -1    0    0    0    0  0.00000000000E+00  0.00000000000E+00  0.45593999997E+02  0.45594000000E+02  0.51100000000E-03 0.  1.
         11   -1    0    0    0    0 -0.00000000000E+00 -0.00000000000E+00 -0.45593999997E+02  0.45594000000E+02  0.51100000000E-03 0. -1.
    9900012    2    1    2    0    0 -0.30146263490E+01 -0.24589065346E+02 -0.32240592385E+02  0.50528857068E+02  0.29999991544E+02 0.  0.
        -12    1    1    2    0    0  0.30146263490E+01  0.24589065346E+02  0.32240592385E+02  0.40659142932E+02  0.00000000000E+00 0.  1.
         11    1    3    3    0    0 -0.11592382766E+02 -0.14647578586E+02 -0.24345463083E+02  0.30686095705E+02  0.51100000000E-03 0. -1.
        -11    1    3    3    0    0  0.25004707143E+01 -0.53990607876E+01  0.29229864952E+01  0.66291825660E+01  0.51100000000E-03 0.  1.
         12    1    3    3    0    0  0.60772857025E+01 -0.45424259719E+01 -0.10818115798E+02  0.13213578798E+02  0.00000000000E+00 0. -1.
</event>
<event>
 7    1  0.4963616E-011  0.5052889E+02  0.7816164E-02  0.1300439E+00
        -11   -1    0    0    0    0  0.00000000000E+00  0.00000000000E+00  0.45593999997E+02  0.45594000000E+02  0.51100000000E-03 0.  1.
         11   -1    0    0    0    0 -0.00000000000E+00 -0.00000000000E+00 -0.45593999997E+02  0.45594000000E+02  0.51100000000E-03 0. -1.
    9900012    2    1    2    0    0  0.30055744705E+02  0.26175266055E+02 -0.80418245974E+01  0.50528889266E+02  0.30000089413E+02 0.  0.
        -12    1    1    2    0    0 -0.30055744705E+02 -0.26175266055E+02  0.80418245974E+01  0.40659110734E+02  0.00000000000E+00 0.  1.
         11    1    3    3    0    0  0.17166683165E+02  0.24464021784E+01  0.38626653168E+01  0.17765136592E+02  0.51100000000E-03 0. -1.
        -11    1    3    3    0    0  0.59313296612E+01  0.12872404707E+02 -0.13738928665E+02  0.19739241009E+02  0.51100000000E-03 0.  1.
        -12    1    3    3    0    0  0.69577318788E+01  0.10856459169E+02  0.18344387504E+01  0.13024511665E+02  0.00000000000E+00 0.  1.
</event>
<event>
 7    1  0.4963616E-011  0.5052887E+02  0.7816164E-02  0.1300439E+00
        -11   -1    0    0    0    0  0.00000000000E+00  0.00000000000E+00  0.45593999997E+02  0.45594000000E+02  0.51100000000E-03 0.  1.
         11   -1    0    0    0    0 -0.00000000000E+00 -0.00000000000E+00 -0.45593999997E+02  0.45594000000E+02  0.51100000000E-03 0. -1.
    9900012    2    1    2    0    0  0.22052524696E+02  0.78620419247E+01 -0.33242134742E+02  0.50528867312E+02  0.30000022682E+02 0.  0.
        -12    1    1    2    0    0 -0.22052524696E+02 -0.78620419247E+01  0.33242134742E+02  0.40659132688E+02  0.00000000000E+00 0.  1.
         11    1    3    3    0    0  0.26958356479E+01  0.10483521191E+02 -0.38647909241E+01  0.11493839896E+02  0.51100000000E-03 0. -1.
        -11    1    3    3    0    0  0.16292744008E+02 -0.74748364275E+00 -0.31050031885E+02  0.35073019822E+02  0.51100000000E-03 0.  1.
        -12    1    3    3    0    0  0.30639450396E+01 -0.18739956238E+01  0.16726880669E+01  0.39620075938E+01  0.00000000000E+00 0.  1.
</event>
<event>
 7    1  0.4963616E-011  0.5052887E+02  0.7816164E-02  0.1300439E+00
        -11   -1    0    0    0    0  0.00000000000E+00  0.00000000000E+00  0.45593999997E+02  0.45594000000E+02  0.51100000000E-03 0.  1.
         11   -1    0    0    0    0 -0.00000000000E+00 -0.00000000000E+00 -0.45593999997E+02  0.45594000000E+02  0.51100000000E-03 0. -1.
    9900012    2    1    2    0    0  0.11705885681E+02  0.35515980747E+02 -0.15960969388E+02  0.50528865826E+02  0.30000018165E+02 0.  0.
        -12    1    1    2    0    0 -0.11705885681E+02 -0.35515980747E+02  0.15960969388E+02  0.40659134174E+02  0.00000000000E+00 0.  1.
         11    1    3    3    0    0  0.23546469307E+01  0.62407318843E+01 -0.85220426250E+01  0.10822028802E+02  0.51100000000E-03 0. -1.
        -11    1    3    3    0    0  0.15720663590E+02  0.23682673868E+02  0.56941068689E-02  0.28425487471E+02  0.51100000000E-03 0.  1.
        -12    1    3    3    0    0 -0.63694248401E+01  0.55925749942E+01 -0.74446208695E+01  0.11281349554E+02  0.00000000000E+00 0.  1.
</event>
<event>
 7    1  0.5312181E-011  0.5052886E+02  0.7816164E-02  0.1300439E+00
        -11   -1    0    0    0    0  0.00000000000E+00  0.00000000000E+00  0.45593999997E+02  0.45594000000E+02  0.51100000000E-03 0. -1.
         11   -1    0    0    0    0 -0.00000000000E+00 -0.00000000000E+00 -0.45593999997E+02  0.45594000000E+02  0.51100000000E-03 0.  1.
    9900012    2    1    2    0    0 -0.25599651205E+02 -0.70788505922E+01  0.30784954422E+02  0.50528859745E+02  0.29999999681E+02 0.  0.
        -12    1    1    2    0    0  0.25599651205E+02  0.70788505922E+01 -0.30784954422E+02  0.40659140255E+02  0.00000000000E+00 0.  1.
         11    1    3    3    0    0 -0.13522802455E+02 -0.19862497946E+01  0.18179687416E+02  0.22744502837E+02  0.51100000000E-03 0. -1.
        -11    1    3    3    0    0 -0.11675199303E+02 -0.64895774743E+01 -0.16464848103E+01  0.13458670330E+02  0.51100000000E-03 0.  1.
        -12    1    3    3    0    0 -0.40164944700E+00  0.13969766767E+01  0.14251751816E+02  0.14325686578E+02  0.00000000000E+00 0.  1.
</event>
<event>
 7    1  0.4963616E-011  0.5052885E+02  0.7816164E-02  0.1300439E+00
        -11   -1    0    0    0    0  0.00000000000E+00  0.00000000000E+00  0.45593999997E+02  0.45594000000E+02  0.51100000000E-03 0.  1.
         11   -1    0    0    0    0 -0.00000000000E+00 -0.00000000000E+00 -0.45593999997E+02  0.45594000000E+02  0.51100000000E-03 0. -1.
    9900012    2    1    2    0    0 -0.32810310272E+02 -0.21739599749E+02 -0.10199980235E+02  0.50528852761E+02  0.29999978452E+02 0.  0.
        -12    1    1    2    0    0  0.32810310272E+02  0.21739599749E+02  0.10199980235E+02  0.40659147239E+02  0.00000000000E+00 0.  1.
         11    1    3    3    0    0 -0.13087075627E+02 -0.17346721017E+00  0.81930786847E+01  0.15441119712E+02  0.51100000000E-03 0. -1.
        -11    1    3    3    0    0 -0.67312709743E+01 -0.11649755757E+02 -0.96016711595E+01  0.16529334755E+02  0.51100000000E-03 0.  1.
         12    1    3    3    0    0 -0.12991963671E+02 -0.99163767816E+01 -0.87913877604E+01  0.18558398294E+02  0.00000000000E+00 0. -1.
</event>
<event>
 7    1  0.4963616E-011  0.5052886E+02  0.7816164E-02  0.1300439E+00
        -11   -1    0    0    0    0  0.00000000000E+00  0.00000000000E+00  0.45593999997E+02  0.45594000000E+02  0.51100000000E-03 0.  1.
         11   -1    0    0    0    0 -0.00000000000E+00 -0.00000000000E+00 -0.45593999997E+02  0.45594000000E+02  0.51100000000E-03 0. -1.
    9900012    2    1    2    0    0 -0.81929546341E+01 -0.16850840670E+02 -0.36084491991E+02  0.50528857127E+02  0.29999991723E+02 0.  0.
        -12    1    1    2    0    0  0.81929546341E+01  0.16850840670E+02  0.36084491991E+02  0.40659142873E+02  0.00000000000E+00 0.  1.
         11    1    3    3    0    0 -0.60122086913E+01 -0.65566119786E+01 -0.27902234067E+02  0.29286011681E+02  0.51100000000E-03 0. -1.
        -11    1    3    3    0    0 -0.49492684832E+01 -0.38295352022E+01  0.38202691100E+01  0.73317838701E+01  0.51100000000E-03 0.  1.
         12    1    3    3    0    0  0.27685225404E+01 -0.64646934888E+01 -0.12002527034E+02  0.13911061576E+02  0.00000000000E+00 0. -1.
</event>
<event>
 7    1  0.4963616E-011  0.5052886E+02  0.7816164E-02  0.1300439E+00
        -11   -1    0    0    0    0  0.00000000000E+00  0.00000000000E+00  0.45593999997E+02  0.45594000000E+02  0.51100000000E-03 0. -1.
         11   -1    0    0    0    0 -0.00000000000E+00 -0.00000000000E+00 -0.45593999997E+02  0.45594000000E+02  0.51100000000E-03 0.  1.
    9900012    2    1    2    0    0 -0.51791932693E+01  0.15651307423E+02  0.37166895199E+02  0.50528861227E+02  0.30000004186E+02 0.  0.
        -12    1    1    2    0    0  0.51791932693E+01 -0.15651307423E+02 -0.37166895199E+02  0.40659138773E+02  0.00000000000E+00 0.  1.
         11    1    3    3    0    0 -0.57086446257E+01  0.45090971570E+01  0.51100361006E+01  0.88900534219E+01  0.51100000000E-03 0. -1.
        -11    1    3    3    0    0  0.80435807313E+01  0.60489668017E+01  0.30887963398E+02  0.32486235139E+02  0.51100000000E-03 0.  1.
        -12    1    3    3    0    0 -0.75141293748E+01  0.50932434647E+01  0.11688957003E+01  0.91525726663E+01  0.00000000000E+00 0.  1.
</event>
<event>
 7    1  0.4963616E-011  0.5052885E+02  0.7816164E-02  0.1300439E+00
        -11   -1    0    0    0    0  0.00000000000E+00  0.00000000000E+00  0.45593999997E+02  0.45594000000E+02  0.51100000000E-03 0.  1.
         11   -1    0    0    0    0 -0.00000000000E+00 -0.00000000000E+00 -0.45593999997E+02  0.45594000000E+02  0.51100000000E-03 0. -1.
    9900012    2    1    2    0    0 -0.37353998154E+02  0.31234902323E+01 -0.15750838887E+02  0.50528852260E+02  0.29999976928E+02 0.  0.
        -12    1    1    2    0    0  0.37353998154E+02 -0.31234902323E+01  0.15750838887E+02  0.40659147740E+02  0.00000000000E+00 0.  1.
         11    1    3    3    0    0 -0.25912499684E+01  0.60902568673E+01 -0.39434401661E+00  0.66303327648E+01  0.51100000000E-03 0. -1.
        -11    1    3    3    0    0 -0.53892967197E+01 -0.94521048411E+01 -0.58365762564E+01  0.12347162740E+02  0.51100000000E-03 0.  1.
        -12    1    3    3    0    0 -0.29373451466E+02  0.64853382061E+01 -0.95199186139E+01  0.31551356755E+02  0.00000000000E+00 0.  1.
</event>
<event>
 7    1  0.4963616E-011  0.5052886E+02  0.7816164E-02  0.1300439E+00
        -11   -1    0    0    0    0  0.00000000000E+00  0.00000000000E+00  0.45593999997E+02  0.45594000000E+02  0.51100000000E-03 0.  1.
         11   -1    0    0    0    0 -0.00000000000E+00 -0.00000000000E+00 -0.45593999997E+02  0.45594000000E+02  0.51100000000E-03 0. -1.
    9900012    2    1    2    0    0 -0.49996968410E+01 -0.35065366244E+02 -0.19964685478E+02  0.50528861487E+02  0.30000004977E+02 0.  0.
        -12    1    1    2    0    0  0.49996968410E+01  0.35065366244E+02  0.19964685478E+02  0.40659138513E+02  0.00000000000E+00 0.  1.
         11    1    3    3    0    0 -0.32216654276E+01 -0.29440972670E+02 -0.16611548358E+02  0.33957231027E+02  0.51100000000E-03 0. -1.
        -11    1    3    3    0    0  0.30126415451E+01  0.42107338820E+01 -0.17886005550E+00  0.51805675447E+01  0.51100000000E-03 0.  1.
        -12    1    3    3    0    0 -0.47906729585E+01 -0.98351274563E+01 -0.31742770644E+01  0.11391062916E+02  0.00000000000E+00 0.  1.
</event>
<event>
 7    1  0.4963616E-011  0.5052885E+02  0.7816164E-02  0.1300439E+00
        -11   -1    0    0    0    0  0.00000000000E+00  0.00000000000E+00  0.45593999997E+02  0.45594000000E+02  0.51100000000E-03 0.  1.
         11   -1    0    0    0    0 -0.00000000000E+00 -0.00000000000E+00 -0.45593999997E+02  0.45594000000E+02  0.51100000000E-03 0. -1.
    9900012    2    1    2    0    0 -0.98173234887E+01  0.18997745562E+02 -0.34581386605E+02  0.50528850028E+02  0.29999970145E+02 0.  0.
        -12    1    1    2    0    0  0.98173234887E+01 -0.18997745562E+02  0.34581386605E+02  0.40659149972E+02  0.00000000000E+00 0.  1.
         11    1    3    3    0    0 -0.15805236397E+02  0.19037107120E+02 -0.26869472431E+02  0.36526503994E+02  0.51100000000E-03 0. -1.
        -11    1    3    3    0    0  0.30183263115E+01 -0.34728923268E+01  0.49073882209E+00  0.46273210056E+01  0.51100000000E-03 0.  1.
         12    1    3    3    0    0  0.29695865971E+01  0.34335307692E+01 -0.82026529966E+01  0.93750250284E+01  0.00000000000E+00 0. -1.
</event>
<event>
 7    1  0.4963616E-011  0.5052886E+02  0.7816164E-02  0.1300439E+00
        -11   -1    0    0    0    0  0.00000000000E+00  0.00000000000E+00  0.45593999997E+02  0.45594000000E+02  0.51100000000E-03 0.  1.
         11   -1    0    0    0    0 -0.00000000000E+00 -0.00000000000E+00 -0.45593999997E+02  0.45594000000E+02  0.51100000000E-03 0. -1.
    9900012    2    1    2    0    0  0.19618423945E+02 -0.31518917376E+02 -0.16578332711E+02  0.50528858026E+02  0.29999994455E+02 0.  0.
        -12    1    1    2    0    0 -0.19618423945E+02  0.31518917376E+02  0.16578332711E+02  0.40659141974E+02  0.00000000000E+00 0.  1.
         11    1    3    3    0    0 -0.45255825935E+01 -0.12042589342E+02 -0.75776201918E+01  0.14930679285E+02  0.51100000000E-03 0. -1.
        -11    1    3    3    0    0  0.21210710637E+02 -0.13109219269E+02 -0.99180897515E+00  0.24954549903E+02  0.51100000000E-03 0.  1.
        -12    1    3    3    0    0  0.29332959011E+01 -0.63671087651E+01 -0.80089035439E+01  0.10643628838E+02  0.00000000000E+00 0.  1.
</event>
<event>
 7    1  0.4963616E-011  0.5052886E+02  0.7816164E-02  0.1300439E+00
        -11   -1    0    0    0    0  0.00000000000E+00  0.00000000000E+00  0.45593999997E+02  0.45594000000E+02  0.51100000000E-03 0.  1.
         11   -1    0    0    0    0 -0.00000000000E+00 -0.00000000000E+00 -0.45593999997E+02  0.45594000000E+02  0.51100000000E-03 0. -1.
    9900012    2    1    2    0    0 -0.24424370606E+02 -0.12967290010E+02  0.29807129547E+02  0.50528862509E+02  0.30000008082E+02 0.  0.
        -12    1    1    2    0    0  0.24424370606E+02  0.12967290010E+02 -0.29807129547E+02  0.40659137491E+02  0.00000000000E+00 0.  1.
         11    1    3    3    0    0 -0.27370372634E+02 -0.12652485217E+02  0.23817529921E+02  0.38425218439E+02  0.51100000000E-03 0. -1.
        -11    1    3    3    0    0  0.55497534156E+01 -0.15163178599E+00 -0.20367364761E-01  0.55518618736E+01  0.51100000000E-03 0.  1.
        -12    1    3    3    0    0 -0.26037513881E+01 -0.16317300666E+00  0.60099669905E+01  0.65517821963E+01  0.00000000000E+00 0.  1.
</event>
<event>
 7    1  0.4963616E-011  0.5052886E+02  0.7816164E-02  0.1300439E+00
        -11   -1    0    0    0    0  0.00000000000E+00  0.00000000000E+00  0.45593999997E+02  0.45594000000E+02  0.51100000000E-03 0.  1.
         11   -1    0    0    0    0 -0.00000000000E+00 -0.00000000000E+00 -0.45593999997E+02  0.45594000000E+02  0.51100000000E-03 0. -1.
    9900012    2    1    2    0    0  0.22137974144E+02 -0.11356600704E+02 -0.32157473598E+02  0.50528863425E+02  0.30000010868E+02 0.  0.
        -12    1    1    2    0    0 -0.22137974144E+02  0.11356600704E+02  0.32157473598E+02  0.40659136575E+02  0.00000000000E+00 0.  1.
         11    1    3    3    0    0  0.25059441890E+02 -0.65746903157E+01 -0.34132116345E+02  0.42850945696E+02  0.51100000000E-03 0. -1.
        -11    1    3    3    0    0  0.56437525827E+00 -0.28431215548E+01  0.22650446082E+01  0.36786256871E+01  0.51100000000E-03 0.  1.
         12    1    3    3    0    0 -0.34858430045E+01 -0.19387888340E+01 -0.29040186119E+00  0.39992920418E+01  0.00000000000E+00 0. -1.
</event>
<event>
 7    1  0.4963616E-011  0.5052886E+02  0.7816164E-02  0.1300439E+00
        -11   -1    0    0    0    0  0.00000000000E+00  0.00000000000E+00  0.45593999997E+02  0.45594000000E+02  0.51100000000E-03 0.  1.
         11   -1    0    0    0    0 -0.00000000000E+00 -0.00000000000E+00 -0.45593999997E+02  0.45594000000E+02  0.51100000000E-03 0. -1.
    9900012    2    1    2    0    0  0.22751260520E+02  0.15370711842E+02 -0.29988114852E+02  0.50528859944E+02  0.30000000285E+02 0.  0.
        -12    1    1    2    0    0 -0.22751260520E+02 -0.15370711842E+02  0.29988114852E+02  0.40659140056E+02  0.00000000000E+00 0.  1.
         11    1    3    3    0    0 -0.23570449249E+00  0.10624401779E+02 -0.19030277995E+02  0.21796443531E+02  0.51100000000E-03 0. -1.
        -11    1    3    3    0    0  0.99149688952E+01  0.25887248505E+01 -0.11587477041E+02  0.15468604623E+02  0.51100000000E-03 0.  1.
         12    1    3    3    0    0  0.13071996117E+02  0.21575852124E+01  0.62964018422E+00  0.13263811790E+02  0.00000000000E+00 0. -1.
</event>
<event>
 7    1  0.4963616E-011  0.5052887E+02  0.7816164E-02  0.1300439E+00
        -11   -1    0    0    0    0  0.00000000000E+00  0.00000000000E+00  0.45593999997E+02  0.45594000000E+02  0.51100000000E-03 0. -1.
         11   -1    0    0    0    0 -0.00000000000E+00 -0.00000000000E+00 -0.45593999997E+02  0.45594000000E+02  0.51100000000E-03 0.  1.
    9900012    2    1    2    0    0 -0.15097093720E+02 -0.33714398521E+02  0.16987697592E+02  0.50528870940E+02  0.30000033709E+02 0.  0.
        -12    1    1    2    0    0  0.15097093720E+02  0.33714398521E+02 -0.16987697592E+02  0.40659129060E+02  0.00000000000E+00 0.  1.
         11    1    3    3    0    0  0.10666565973E+01 -0.51914448826E+01  0.11105600380E+02  0.12305414106E+02  0.51100000000E-03 0. -1.
        -11    1    3    3    0    0 -0.99978035714E+01 -0.65470820638E+01 -0.49791300932E+01  0.12946509049E+02  0.51100000000E-03 0.  1.
        -12    1    3    3    0    0 -0.61659467458E+01 -0.21975871575E+02  0.10861227305E+02  0.25276947785E+02  0.00000000000E+00 0.  1.
</event>
<event>
 7    1  0.4963616E-011  0.5052886E+02  0.7816164E-02  0.1300439E+00
        -11   -1    0    0    0    0  0.00000000000E+00  0.00000000000E+00  0.45593999997E+02  0.45594000000E+02  0.51100000000E-03 0. -1.
         11   -1    0    0    0    0 -0.00000000000E+00 -0.00000000000E+00 -0.45593999997E+02  0.45594000000E+02  0.51100000000E-03 0.  1.
    9900012    2    1    2    0    0  0.27462173341E+02  0.10240009910E+02  0.28180436925E+02  0.50528858435E+02  0.29999995698E+02 0.  0.
        -12    1    1    2    0    0 -0.27462173341E+02 -0.10240009910E+02 -0.28180436925E+02  0.40659141565E+02  0.00000000000E+00 0.  1.
         11    1    3    3    0    0 -0.38030987692E+01  0.80954319990E+01  0.95999505667E+01  0.13120923391E+02  0.51100000000E-03 0. -1.
        -11    1    3    3    0    0  0.22537796797E+02  0.21203936721E+01  0.87687559425E+01  0.24276314276E+02  0.51100000000E-03 0.  1.
         12    1    3    3    0    0  0.87274753131E+01  0.24184238447E-01  0.98117304160E+01  0.13131620767E+02  0.00000000000E+00 0. -1.
</event>
<event>
 7    1  0.4963616E-011  0.5052885E+02  0.7816164E-02  0.1300439E+00
        -11   -1    0    0    0    0  0.00000000000E+00  0.00000000000E+00  0.45593999997E+02  0.45594000000E+02  0.51100000000E-03 0. -1.
         11   -1    0    0    0    0 -0.00000000000E+00 -0.00000000000E+00 -0.45593999997E+02  0.45594000000E+02  0.51100000000E-03 0.  1.
    9900012    2    1    2    0    0  0.10833589311E+02  0.35560549572E+02  0.16469572482E+02  0.50528853907E+02  0.29999981936E+02 0.  0.
        -12    1    1    2    0    0 -0.10833589311E+02 -0.35560549572E+02 -0.16469572482E+02  0.40659146093E+02  0.00000000000E+00 0.  1.
         11    1    3    3    0    0  0.93588470506E+01  0.12126006795E+02  0.10442897885E+02  0.18538667034E+02  0.51100000000E-03 0. -1.
        -11    1    3    3    0    0 -0.96078209109E+01  0.88845985678E+01  0.17067034946E+01  0.13196937199E+02  0.51100000000E-03 0.  1.
        -12    1    3    3    0    0  0.11082563172E+02  0.14549944209E+02  0.43199711026E+01  0.18793249673E+02  0.00000000000E+00 0.  1.
</event>
<event>
 7    1  0.4963616E-011  0.5052877E+02  0.7816164E-02  0.1300439E+00
        -11   -1    0    0    0    0  0.00000000000E+00  0.00000000000E+00  0.45593999997E+02  0.45594000000E+02  0.51100000000E-03 0.  1.
         11   -1    0    0    0    0 -0.00000000000E+00 -0.00000000000E+00 -0.45593999997E+02  0.45594000000E+02  0.51100000000E-03 0. -1.
    9900012    2    1    2    0    0 -0.51634200299E+01  0.22472443493E+02 -0.33488827891E+02  0.50528767143E+02  0.29999718207E+02 0.  0.
        -12    1    1    2    0    0  0.51634200299E+01 -0.22472443493E+02  0.33488827891E+02  0.40659232857E+02  0.00000000000E+00 0.  1.
         11    1    3    3    0    0 -0.97089550753E+01  0.73368946472E+01 -0.16790745857E+02  0.20736995405E+02  0.51100000000E-03 0. -1.
        -11    1    3    3    0    0  0.86778904099E+01  0.13251060715E+02 -0.40446902944E+01  0.16347963539E+02  0.51100000000E-03 0.  1.
        -12    1    3    3    0    0 -0.41323553645E+01  0.18844881307E+01 -0.12653391740E+02  0.13443808199E+02  0.00000000000E+00 0.  1.
</event>
<event>
 7    1  0.4963616E-011  0.5052885E+02  0.7816164E-02  0.1300439E+00
        -11   -1    0    0    0    0  0.00000000000E+00  0.00000000000E+00  0.45593999997E+02  0.45594000000E+02  0.51100000000E-03 0.  1.
         11   -1    0    0    0    0 -0.00000000000E+00 -0.00000000000E+00 -0.45593999997E+02  0.45594000000E+02  0.51100000000E-03 0. -1.
    9900012    2    1    2    0    0  0.64179292816E+01 -0.27222106139E+02 -0.29511589625E+02  0.50528846035E+02  0.29999958009E+02 0.  0.
        -12    1    1    2    0    0 -0.64179292816E+01  0.27222106139E+02  0.29511589625E+02  0.40659153965E+02  0.00000000000E+00 0.  1.
         11    1    3    3    0    0  0.77097249356E+00 -0.48058975410E+01 -0.97449120288E+01  0.10892858232E+02  0.51100000000E-03 0. -1.
        -11    1    3    3    0    0  0.41066212551E+01 -0.27842240613E+02 -0.13529393663E+02  0.31226578321E+02  0.51100000000E-03 0.  1.
        -12    1    3    3    0    0  0.15403355330E+01  0.54260320145E+01 -0.62372839330E+01  0.84094094820E+01  0.00000000000E+00 0.  1.
</event>
<event>
 7    1  0.4963616E-011  0.5052886E+02  0.7816164E-02  0.1300439E+00
        -11   -1    0    0    0    0  0.00000000000E+00  0.00000000000E+00  0.45593999997E+02  0.45594000000E+02  0.51100000000E-03 0.  1.
         11   -1    0    0    0    0 -0.00000000000E+00 -0.00000000000E+00 -0.45593999997E+02  0.45594000000E+02  0.51100000000E-03 0. -1.
    9900012    2    1    2    0    0 -0.28982996797E+02  0.24955879701E+02 -0.13796941914E+02  0.50528860300E+02  0.30000001366E+02 0.  0.
        -12    1    1    2    0    0  0.28982996797E+02 -0.24955879701E+02  0.13796941914E+02  0.40659139700E+02  0.00000000000E+00 0.  1.
         11    1    3    3    0    0  0.26311872660E+01  0.77656589951E+01 -0.47251812491E+01  0.94634002428E+01  0.51100000000E-03 0. -1.
        -11    1    3    3    0    0 -0.21411513930E+02  0.12714849274E+02  0.24692205414E+01  0.25024335579E+02  0.51100000000E-03 0.  1.
         12    1    3    3    0    0 -0.10202670134E+02  0.44753714321E+01 -0.11540981206E+02  0.16041124478E+02  0.00000000000E+00 0. -1.
</event>
<event>
 7    1  0.4963616E-011  0.5052882E+02  0.7816164E-02  0.1300439E+00
        -11   -1    0    0    0    0  0.00000000000E+00  0.00000000000E+00  0.45593999997E+02  0.45594000000E+02  0.51100000000E-03 0.  1.
         11   -1    0    0    0    0 -0.00000000000E+00 -0.00000000000E+00 -0.45593999997E+02  0.45594000000E+02  0.51100000000E-03 0. -1.
    9900012    2    1    2    0    0  0.29643930316E+02  0.20556133581E+02 -0.18757712431E+02  0.50528818897E+02  0.29999875518E+02 0.  0.
        -12    1    1    2    0    0 -0.29643930316E+02 -0.20556133581E+02  0.18757712431E+02  0.40659181103E+02  0.00000000000E+00 0.  1.
         11    1    3    3    0    0  0.12820010991E+02  0.21818756317E+02 -0.13404046949E+02  0.28637026450E+02  0.51100000000E-03 0. -1.
        -11    1    3    3    0    0  0.60651613621E+01 -0.49473514550E+01  0.23307513634E+01  0.81666927790E+01  0.51100000000E-03 0.  1.
        -12    1    3    3    0    0  0.10758757963E+02  0.36847287194E+01 -0.76844168459E+01  0.13725099668E+02  0.00000000000E+00 0.  1.
</event>
<event>
 7    1  0.4963616E-011  0.5052887E+02  0.7816164E-02  0.1300439E+00
        -11   -1    0    0    0    0  0.00000000000E+00  0.00000000000E+00  0.45593999997E+02  0.45594000000E+02  0.51100000000E-03 0.  1.
         11   -1    0    0    0    0 -0.00000000000E+00 -0.00000000000E+00 -0.45593999997E+02  0.45594000000E+02  0.51100000000E-03 0. -1.
    9900012    2    1    2    0    0  0.13410289519E+02 -0.84863794363E+01 -0.37434076312E+02  0.50528873469E+02  0.30000041397E+02 0.  0.
        -12    1    1    2    0    0 -0.13410289519E+02  0.84863794363E+01  0.37434076312E+02  0.40659126531E+02  0.00000000000E+00 0.  1.
         11    1    3    3    0    0 -0.14229781457E+01 -0.34146736192E+01 -0.22090921595E+00  0.37058958258E+01  0.51100000000E-03 0.  1.
        -11    1    3    3    0    0 -0.29637116361E+01 -0.23413805560E+01 -0.24481552172E+02  0.24771193887E+02  0.51100000000E-03 0. -1.
        -12    1    3    3    0    0  0.17796979300E+02 -0.27303252611E+01 -0.12731614924E+02  0.22051783756E+02  0.00000000000E+00 0.  1.
</event>
<event>
 7    1  0.4963616E-011  0.5052887E+02  0.7816164E-02  0.1300439E+00
        -11   -1    0    0    0    0  0.00000000000E+00  0.00000000000E+00  0.45593999997E+02  0.45594000000E+02  0.51100000000E-03 0.  1.
         11   -1    0    0    0    0 -0.00000000000E+00 -0.00000000000E+00 -0.45593999997E+02  0.45594000000E+02  0.51100000000E-03 0. -1.
    9900012    2    1    2    0    0  0.20613554360E+02  0.34400129385E+02 -0.66990708663E+01  0.50528867256E+02  0.30000022511E+02 0.  0.
        -12    1    1    2    0    0 -0.20613554360E+02 -0.34400129385E+02  0.66990708663E+01  0.40659132744E+02  0.00000000000E+00 0.  1.
         11    1    3    3    0    0  0.18120963556E+02  0.12510913064E+02 -0.93571176362E+01  0.23925883821E+02  0.51100000000E-03 0. -1.
        -11    1    3    3    0    0 -0.36430243712E+01  0.48597320160E+01 -0.40487138347E+01  0.72993633841E+01  0.51100000000E-03 0.  1.
         12    1    3    3    0    0  0.61356151748E+01  0.17029484305E+02  0.67067606046E+01  0.19303620051E+02  0.00000000000E+00 0. -1.
</event>
<event>
 7    1  0.4963616E-011  0.5052887E+02  0.7816164E-02  0.1300439E+00
        -11   -1    0    0    0    0  0.00000000000E+00  0.00000000000E+00  0.45593999997E+02  0.45594000000E+02  0.51100000000E-03 0. -1.
         11   -1    0    0    0    0 -0.00000000000E+00 -0.00000000000E+00 -0.45593999997E+02  0.45594000000E+02  0.51100000000E-03 0.  1.
    9900012    2    1    2    0    0 -0.35229620079E+02  0.99677658825E+01  0.17682826970E+02  0.50528869940E+02  0.30000030668E+02 0.  0.
        -12    1    1    2    0    0  0.35229620079E+02 -0.99677658825E+01 -0.17682826970E+02  0.40659130060E+02  0.00000000000E+00 0.  1.
         11    1    3    3    0    0 -0.13961093444E+02  0.42791130283E+01 -0.14507656938E+01  0.14674047152E+02  0.51100000000E-03 0. -1.
        -11    1    3    3    0    0 -0.46377563507E+01  0.57369918994E+01  0.17683855966E+02  0.19160913916E+02  0.51100000000E-03 0.  1.
        -12    1    3    3    0    0 -0.16630770285E+02 -0.48339045166E-01  0.14497366985E+01  0.16693908872E+02  0.00000000000E+00 0.  1.
</event>
<event>
 7    1  0.4963616E-011  0.5052885E+02  0.7816164E-02  0.1300439E+00
        -11   -1    0    0    0    0  0.00000000000E+00  0.00000000000E+00  0.45593999997E+02  0.45594000000E+02  0.51100000000E-03 0.  1.
         11   -1    0    0    0    0 -0.00000000000E+00 -0.00000000000E+00 -0.45593999997E+02  0.45594000000E+02  0.51100000000E-03 0. -1.
    9900012    2    1    2    0    0 -0.22185760678E+02  0.24544395987E+02 -0.23633267355E+02  0.50528847560E+02  0.29999962645E+02 0.  0.
        -12    1    1    2    0    0  0.22185760678E+02 -0.24544395987E+02  0.23633267355E+02  0.40659152440E+02  0.00000000000E+00 0.  1.
         11    1    3    3    0    0 -0.11504935931E+02  0.76552592141E+01 -0.25619975729E+02  0.29109271736E+02  0.51100000000E-03 0. -1.
        -11    1    3    3    0    0 -0.25470167532E+01  0.10186593462E+02  0.27440144114E+01  0.10852815121E+02  0.51100000000E-03 0.  1.
         12    1    3    3    0    0 -0.81338079938E+01  0.67025433106E+01 -0.75730603767E+00  0.10566760703E+02  0.00000000000E+00 0. -1.
</event>
<event>
 7    1  0.4963616E-011  0.5052887E+02  0.7816164E-02  0.1300439E+00
        -11   -1    0    0    0    0  0.00000000000E+00  0.00000000000E+00  0.45593999997E+02  0.45594000000E+02  0.51100000000E-03 0.  1.
         11   -1    0    0    0    0 -0.00000000000E+00 -0.00000000000E+00 -0.45593999997E+02  0.45594000000E+02  0.51100000000E-03 0. -1.
    9900012    2    1    2    0    0 -0.86299412847E+01 -0.35745261381E+01 -0.39571603321E+02  0.50528869253E+02  0.30000028583E+02 0.  0.
        -12    1    1    2    0    0  0.86299412847E+01  0.35745261381E+01  0.39571603321E+02  0.40659130747E+02  0.00000000000E+00 0.  1.
         11    1    3    3    0    0 -0.30217606804E+01 -0.51931046827E+01 -0.30768172196E+02  0.31349318882E+02  0.51100000000E-03 0. -1.
        -11    1    3    3    0    0 -0.99470234780E+01  0.52122095693E+01 -0.45334659749E+01  0.12110438418E+02  0.51100000000E-03 0.  1.
        -12    1    3    3    0    0  0.43388428736E+01 -0.35936310247E+01 -0.42699651502E+01  0.70691119532E+01  0.00000000000E+00 0.  1.
</event>
<event>
 7    1  0.4963616E-011  0.5052888E+02  0.7816164E-02  0.1300439E+00
        -11   -1    0    0    0    0  0.00000000000E+00  0.00000000000E+00  0.45593999997E+02  0.45594000000E+02  0.51100000000E-03 0.  1.
         11   -1    0    0    0    0 -0.00000000000E+00 -0.00000000000E+00 -0.45593999997E+02  0.45594000000E+02  0.51100000000E-03 0. -1.
    9900012    2    1    2    0    0  0.10356189322E+02  0.15938804644E+02 -0.35942568460E+02  0.50528875830E+02  0.30000048574E+02 0.  0.
        -12    1    1    2    0    0 -0.10356189322E+02 -0.15938804644E+02  0.35942568460E+02  0.40659124170E+02  0.00000000000E+00 0.  1.
         11    1    3    3    0    0  0.61105791229E+00  0.40345049030E+01 -0.15289258372E+02  0.15824412893E+02  0.51100000000E-03 0. -1.
        -11    1    3    3    0    0  0.14240019615E+02 -0.49847654245E+00 -0.76130499866E+01  0.16155035371E+02  0.51100000000E-03 0.  1.
        -12    1    3    3    0    0 -0.44948882051E+01  0.12402776284E+02 -0.13040260101E+02  0.18549427566E+02  0.00000000000E+00 0.  1.
</event>
<event>
 7    1  0.4963616E-011  0.5052886E+02  0.7816164E-02  0.1300439E+00
        -11   -1    0    0    0    0  0.00000000000E+00  0.00000000000E+00  0.45593999997E+02  0.45594000000E+02  0.51100000000E-03 0. -1.
         11   -1    0    0    0    0 -0.00000000000E+00 -0.00000000000E+00 -0.45593999997E+02  0.45594000000E+02  0.51100000000E-03 0.  1.
    9900012    2    1    2    0    0 -0.12860450651E+02 -0.17034165882E+02  0.34606528544E+02  0.50528858149E+02  0.29999994829E+02 0.  0.
        -12    1    1    2    0    0  0.12860450651E+02  0.17034165882E+02 -0.34606528544E+02  0.40659141851E+02  0.00000000000E+00 0.  1.
         11    1    3    3    0    0  0.66825115143E+01 -0.39700191936E+01  0.17591404886E+02  0.19232122573E+02  0.51100000000E-03 0. -1.
        -11    1    3    3    0    0 -0.10673814935E+02 -0.26677721876E+01  0.13047153419E+02  0.17066796604E+02  0.51100000000E-03 0.  1.
         12    1    3    3    0    0 -0.88691472299E+01 -0.10396374500E+02  0.39679702389E+01  0.14229938972E+02  0.00000000000E+00 0. -1.
</event>
<event>
 7    1  0.5564388E-011  0.5052892E+02  0.7816164E-02  0.1300439E+00
        -11   -1    0    0    0    0  0.00000000000E+00  0.00000000000E+00  0.45593999997E+02  0.45594000000E+02  0.51100000000E-03 0.  1.
         11   -1    0    0    0    0 -0.00000000000E+00 -0.00000000000E+00 -0.45593999997E+02  0.45594000000E+02  0.51100000000E-03 0. -1.
    9900012    2    1    2    0    0  0.17599327893E+02 -0.31726218198E+02 -0.18354062512E+02  0.50528918922E+02  0.30000179555E+02 0.  0.
        -12    1    1    2    0    0 -0.17599327893E+02  0.31726218198E+02  0.18354062512E+02  0.40659081078E+02  0.00000000000E+00 0.  1.
         11    1    3    3    0    0  0.13289017919E+02 -0.14031564483E+02 -0.12331741953E+01  0.19365007564E+02  0.51100000000E-03 0. -1.
        -11    1    3    3    0    0 -0.36985833160E+01 -0.16752649751E+02 -0.78210486453E+01  0.18854696879E+02  0.51100000000E-03 0.  1.
        -12    1    3    3    0    0  0.80088932904E+01 -0.94200396429E+00 -0.92998396709E+01  0.12309214480E+02  0.00000000000E+00 0.  1.
</event>
<event>
 7    1  0.4963616E-011  0.5052886E+02  0.7816164E-02  0.1300439E+00
        -11   -1    0    0    0    0  0.00000000000E+00  0.00000000000E+00  0.45593999997E+02  0.45594000000E+02  0.51100000000E-03 0.  1.
         11   -1    0    0    0    0 -0.00000000000E+00 -0.00000000000E+00 -0.45593999997E+02  0.45594000000E+02  0.51100000000E-03 0. -1.
    9900012    2    1    2    0    0  0.27728858971E+02  0.14698767595E+02 -0.25849993496E+02  0.50528861391E+02  0.30000004683E+02 0.  0.
        -12    1    1    2    0    0 -0.27728858971E+02 -0.14698767595E+02  0.25849993496E+02  0.40659138609E+02  0.00000000000E+00 0.  1.
         11    1    3    3    0    0  0.13325691717E+02  0.24790637923E+01 -0.58244007204E+01  0.14752744187E+02  0.51100000000E-03 0. -1.
        -11    1    3    3    0    0  0.67706644539E+01  0.12332013077E+02 -0.23500023364E+02  0.27389259611E+02  0.51100000000E-03 0.  1.
        -12    1    3    3    0    0  0.76325028004E+01 -0.11230927411E+00  0.34744305880E+01  0.83868575928E+01  0.00000000000E+00 0.  1.
</event>
<event>
 7    1  0.4963616E-011  0.5052886E+02  0.7816164E-02  0.1300439E+00
        -11   -1    0    0    0    0  0.00000000000E+00  0.00000000000E+00  0.45593999997E+02  0.45594000000E+02  0.51100000000E-03 0.  1.
         11   -1    0    0    0    0 -0.00000000000E+00 -0.00000000000E+00 -0.45593999997E+02  0.45594000000E+02  0.51100000000E-03 0. -1.
    9900012    2    1    2    0    0 -0.11857357429E+02 -0.34322852803E+02 -0.18289619331E+02  0.50528864187E+02  0.30000013184E+02 0.  0.
        -12    1    1    2    0    0  0.11857357429E+02  0.34322852803E+02  0.18289619331E+02  0.40659135813E+02  0.00000000000E+00 0.  1.
         11    1    3    3    0    0 -0.44508033444E+01  0.28984971223E+01 -0.60928582014E+00  0.53462290870E+01  0.51100000000E-03 0. -1.
        -11    1    3    3    0    0  0.20288499083E+01 -0.28965982579E+02 -0.12002909668E+02  0.31419965301E+02  0.51100000000E-03 0.  1.
        -12    1    3    3    0    0 -0.94354039929E+01 -0.82553673466E+01 -0.56774238423E+01  0.13762669800E+02  0.00000000000E+00 0.  1.
</event>
<event>
 7    1  0.4963616E-011  0.5052885E+02  0.7816164E-02  0.1300439E+00
        -11   -1    0    0    0    0  0.00000000000E+00  0.00000000000E+00  0.45593999997E+02  0.45594000000E+02  0.51100000000E-03 0.  1.
         11   -1    0    0    0    0 -0.00000000000E+00 -0.00000000000E+00 -0.45593999997E+02  0.45594000000E+02  0.51100000000E-03 0. -1.
    9900012    2    1    2    0    0  0.77355299205E+01  0.36006655893E+02  0.17229290252E+02  0.50528854235E+02  0.29999982932E+02 0.  0.
        -12    1    1    2    0    0 -0.77355299205E+01 -0.36006655893E+02 -0.17229290252E+02  0.40659145765E+02  0.00000000000E+00 0.  1.
         11    1    3    3    0    0 -0.77510225053E+01  0.14872973334E+02 -0.29516362242E+01  0.17029264292E+02  0.51100000000E-03 0. -1.
        -11    1    3    3    0    0  0.12055713918E+02  0.14340610515E+02  0.11623345161E+02  0.22047573585E+02  0.51100000000E-03 0.  1.
         12    1    3    3    0    0  0.34308385077E+01  0.67930720442E+01  0.85575813159E+01  0.11452016357E+02  0.00000000000E+00 0. -1.
</event>
<event>
 7    1  0.4963616E-011  0.5052886E+02  0.7816164E-02  0.1300439E+00
        -11   -1    0    0    0    0  0.00000000000E+00  0.00000000000E+00  0.45593999997E+02  0.45594000000E+02  0.51100000000E-03 0.  1.
         11   -1    0    0    0    0 -0.00000000000E+00 -0.00000000000E+00 -0.45593999997E+02  0.45594000000E+02  0.51100000000E-03 0. -1.
    9900012    2    1    2    0    0 -0.21598133878E+02 -0.24186254234E+02 -0.24529806038E+02  0.50528860005E+02  0.30000000470E+02 0.  0.
        -12    1    1    2    0    0  0.21598133878E+02  0.24186254234E+02  0.24529806038E+02  0.40659139995E+02  0.00000000000E+00 0.  1.
         11    1    3    3    0    0 -0.15830657559E+02 -0.22889660087E+02 -0.15752955970E+02  0.31979710438E+02  0.51100000000E-03 0. -1.
        -11    1    3    3    0    0  0.97724682381E+00  0.21161203409E+01  0.34564296017E+01  0.41689186253E+01  0.51100000000E-03 0.  1.
        -12    1    3    3    0    0 -0.67447231422E+01 -0.34127144883E+01 -0.12233279670E+02  0.14380230941E+02  0.00000000000E+00 0.  1.
</event>
<event>
 7    1  0.4963616E-011  0.5052887E+02  0.7816164E-02  0.1300439E+00
        -11   -1    0    0    0    0  0.00000000000E+00  0.00000000000E+00  0.45593999997E+02  0.45594000000E+02  0.51100000000E-03 0.  1.
         11   -1    0    0    0    0 -0.00000000000E+00 -0.00000000000E+00 -0.45593999997E+02  0.45594000000E+02  0.51100000000E-03 0. -1.
    9900012    2    1    2    0    0 -0.19708391294E+02  0.82648819292E+01 -0.34589533824E+02  0.50528870510E+02  0.30000032402E+02 0.  0.
        -12    1    1    2    0    0  0.19708391294E+02 -0.82648819292E+01  0.34589533824E+02  0.40659129490E+02  0.00000000000E+00 0.  1.
         11    1    3    3    0    0 -0.12377447890E+02  0.68041365717E+01 -0.30214388304E+02  0.33352762279E+02  0.51100000000E-03 0. -1.
        -11    1    3    3    0    0  0.21213951838E+01 -0.30091673757E+01  0.26875482483E+01  0.45583244366E+01  0.51100000000E-03 0.  1.
        -12    1    3    3    0    0 -0.94523385879E+01  0.44699127332E+01 -0.70626937685E+01  0.12617783795E+02  0.00000000000E+00 0.  1.
</event>
<event>
 7    1  0.4963616E-011  0.5052881E+02  0.7816164E-02  0.1300439E+00
        -11   -1    0    0    0    0  0.00000000000E+00  0.00000000000E+00  0.45593999997E+02  0.45594000000E+02  0.51100000000E-03 0. -1.
         11   -1    0    0    0    0 -0.00000000000E+00 -0.00000000000E+00 -0.45593999997E+02  0.45594000000E+02  0.51100000000E-03 0.  1.
    9900012    2    1    2    0    0 -0.13056377371E+02 -0.28730455172E+02  0.25637119532E+02  0.50528807407E+02  0.29999840594E+02 0.  0.
        -12    1    1    2    0    0  0.13056377371E+02  0.28730455172E+02 -0.25637119532E+02  0.40659192593E+02  0.00000000000E+00 0.  1.
         11    1    3    3    0    0 -0.15915344222E+02 -0.12557597069E+02  0.23320247690E+02  0.30900248841E+02  0.51100000000E-03 0. -1.
        -11    1    3    3    0    0  0.41518072095E+01 -0.12090515228E+01 -0.47995529464E+00  0.43508236043E+01  0.51100000000E-03 0.  1.
         12    1    3    3    0    0 -0.12928403590E+01 -0.14963806579E+02  0.27968271367E+01  0.15277734962E+02  0.00000000000E+00 0. -1.
</event>
<event>
 7    1  0.4963616E-011  0.5052886E+02  0.7816164E-02  0.1300439E+00
        -11   -1    0    0    0    0  0.00000000000E+00  0.00000000000E+00  0.45593999997E+02  0.45594000000E+02  0.51100000000E-03 0. -1.
         11   -1    0    0    0    0 -0.00000000000E+00 -0.00000000000E+00 -0.45593999997E+02  0.45594000000E+02  0.51100000000E-03 0.  1.
    9900012    2    1    2    0    0  0.83600383269E+01  0.15626300918E+02  0.36593639238E+02  0.50528856454E+02  0.29999989679E+02 0.  0.
        -12    1    1    2    0    0 -0.83600383269E+01 -0.15626300918E+02 -0.36593639238E+02  0.40659143546E+02  0.00000000000E+00 0.  1.
         11    1    3    3    0    0 -0.85625332491E+00  0.30588889127E+01  0.16583543995E+02  0.16885020072E+02  0.51100000000E-03 0. -1.
        -11    1    3    3    0    0  0.43958139169E+01  0.14754395117E+02  0.28125894426E+01  0.15650112297E+02  0.51100000000E-03 0.  1.
        -12    1    3    3    0    0  0.48204777348E+01 -0.21869831117E+01  0.17197505800E+02  0.17993724085E+02  0.00000000000E+00 0.  1.
</event>
<event>
 7    1  0.4963616E-011  0.5052886E+02  0.7816164E-02  0.1300439E+00
        -11   -1    0    0    0    0  0.00000000000E+00  0.00000000000E+00  0.45593999997E+02  0.45594000000E+02  0.51100000000E-03 0.  1.
         11   -1    0    0    0    0 -0.00000000000E+00 -0.00000000000E+00 -0.45593999997E+02  0.45594000000E+02  0.51100000000E-03 0. -1.
    9900012    2    1    2    0    0  0.22118086621E+02  0.31950360938E+02 -0.11963708698E+02  0.50528860244E+02  0.30000001199E+02 0.  0.
        -12    1    1    2    0    0 -0.22118086621E+02 -0.31950360938E+02  0.11963708698E+02  0.40659139756E+02  0.00000000000E+00 0.  1.
         11    1    3    3    0    0  0.77141015906E+01 -0.31173845782E+01  0.27309064057E+01  0.87569001374E+01  0.51100000000E-03 0. -1.
        -11    1    3    3    0    0  0.78479128962E+01  0.26641344787E+02 -0.13922981429E+02  0.31067674535E+02  0.51100000000E-03 0.  1.
         12    1    3    3    0    0  0.65560721339E+01  0.84264007298E+01 -0.77163367506E+00  0.10704285572E+02  0.00000000000E+00 0. -1.
</event>
<event>
 7    1  0.4963616E-011  0.5052886E+02  0.7816164E-02  0.1300439E+00
        -11   -1    0    0    0    0  0.00000000000E+00  0.00000000000E+00  0.45593999997E+02  0.45594000000E+02  0.51100000000E-03 0. -1.
         11   -1    0    0    0    0 -0.00000000000E+00 -0.00000000000E+00 -0.45593999997E+02  0.45594000000E+02  0.51100000000E-03 0.  1.
    9900012    2    1    2    0    0  0.18459032779E+02 -0.12825215373E+02  0.33881314363E+02  0.50528861993E+02  0.30000006513E+02 0.  0.
        -12    1    1    2    0    0 -0.18459032779E+02  0.12825215373E+02 -0.33881314363E+02  0.40659138007E+02  0.00000000000E+00 0.  1.
         11    1    3    3    0    0  0.18247018433E+02  0.37833938409E-01  0.30907080557E+02  0.35891541370E+02  0.51100000000E-03 0. -1.
        -11    1    3    3    0    0 -0.15336233864E+01 -0.79711472657E+01 -0.88648981852E+00  0.81656018690E+01  0.51100000000E-03 0.  1.
         12    1    3    3    0    0  0.17456377330E+01 -0.48919020461E+01  0.38607236242E+01  0.64717187536E+01  0.00000000000E+00 0. -1.
</event>
<event>
 7    1  0.4963616E-011  0.5052886E+02  0.7816164E-02  0.1300439E+00
        -11   -1    0    0    0    0  0.00000000000E+00  0.00000000000E+00  0.45593999997E+02  0.45594000000E+02  0.51100000000E-03 0. -1.
         11   -1    0    0    0    0 -0.00000000000E+00 -0.00000000000E+00 -0.45593999997E+02  0.45594000000E+02  0.51100000000E-03 0.  1.
    9900012    2    1    2    0    0  0.20382029417E+02  0.35071945100E+02 -0.27743720903E+01  0.50528860846E+02  0.30000003027E+02 0.  0.
        -12    1    1    2    0    0 -0.20382029417E+02 -0.35071945100E+02  0.27743720903E+01  0.40659139154E+02  0.00000000000E+00 0.  1.
         11    1    3    3    0    0 -0.74534678734E-01  0.22850990326E+02  0.50587624504E+01  0.23404366944E+02  0.51100000000E-03 0. -1.
        -11    1    3    3    0    0  0.19418383913E+02  0.10734486986E+02 -0.35456699023E+01  0.22469415212E+02  0.51100000000E-03 0.  1.
        -12    1    3    3    0    0  0.10381801828E+01  0.14864677882E+01 -0.42874646385E+01  0.46550786893E+01  0.00000000000E+00 0.  1.
</event>
<event>
 7    1  0.4963616E-011  0.5052886E+02  0.7816164E-02  0.1300439E+00
        -11   -1    0    0    0    0  0.00000000000E+00  0.00000000000E+00  0.45593999997E+02  0.45594000000E+02  0.51100000000E-03 0.  1.
         11   -1    0    0    0    0 -0.00000000000E+00 -0.00000000000E+00 -0.45593999997E+02  0.45594000000E+02  0.51100000000E-03 0. -1.
    9900012    2    1    2    0    0 -0.17060631327E+02  0.34722647739E+02 -0.12507513860E+02  0.50528864369E+02  0.30000013736E+02 0.  0.
        -12    1    1    2    0    0  0.17060631327E+02 -0.34722647739E+02  0.12507513860E+02  0.40659135631E+02  0.00000000000E+00 0.  1.
         11    1    3    3    0    0  0.43500981740E+01  0.21461058224E+02 -0.68470730852E+01  0.22943033459E+02  0.51100000000E-03 0. -1.
        -11    1    3    3    0    0 -0.42789616910E+01  0.46595579179E-01  0.18788406477E+01  0.46735133188E+01  0.51100000000E-03 0.  1.
         12    1    3    3    0    0 -0.17131767810E+02  0.13214993936E+02 -0.75392814223E+01  0.22912317591E+02  0.00000000000E+00 0. -1.
</event>
<event>
 7    1  0.4963616E-011  0.5052886E+02  0.7816164E-02  0.1300439E+00
        -11   -1    0    0    0    0  0.00000000000E+00  0.00000000000E+00  0.45593999997E+02  0.45594000000E+02  0.51100000000E-03 0. -1.
         11   -1    0    0    0    0 -0.00000000000E+00 -0.00000000000E+00 -0.45593999997E+02  0.45594000000E+02  0.51100000000E-03 0.  1.
    9900012    2    1    2    0    0 -0.32180694045E+02 -0.21577684174E+02 -0.12327708935E+02  0.50528856734E+02  0.29999990530E+02 0.  0.
        -12    1    1    2    0    0  0.32180694045E+02  0.21577684174E+02  0.12327708935E+02  0.40659143266E+02  0.00000000000E+00 0.  1.
         11    1    3    3    0    0 -0.14040643508E+02 -0.10507609406E+02  0.33256539211E+01  0.17849635846E+02  0.51100000000E-03 0. -1.
        -11    1    3    3    0    0 -0.67669774745E+01 -0.11745704270E+02 -0.16381551680E+02  0.21262849965E+02  0.51100000000E-03 0.  1.
        -12    1    3    3    0    0 -0.11373073062E+02  0.67562950208E+00  0.72818882428E+00  0.11416370923E+02  0.00000000000E+00 0.  1.
</event>
<event>
 7    1  0.4963616E-011  0.5052885E+02  0.7816164E-02  0.1300439E+00
        -11   -1    0    0    0    0  0.00000000000E+00  0.00000000000E+00  0.45593999997E+02  0.45594000000E+02  0.51100000000E-03 0.  1.
         11   -1    0    0    0    0 -0.00000000000E+00 -0.00000000000E+00 -0.45593999997E+02  0.45594000000E+02  0.51100000000E-03 0. -1.
    9900012    2    1    2    0    0 -0.15202300352E+02  0.33967056598E+02 -0.16379733674E+02  0.50528849183E+02  0.29999967577E+02 0.  0.
        -12    1    1    2    0    0  0.15202300352E+02 -0.33967056598E+02  0.16379733674E+02  0.40659150817E+02  0.00000000000E+00 0.  1.
         11    1    3    3    0    0  0.20202395533E+01  0.19867176127E+02 -0.73208280242E+01  0.21269240192E+02  0.51100000000E-03 0. -1.
        -11    1    3    3    0    0 -0.87278915228E+01  0.12112582392E+01 -0.10556742667E+02  0.13750929167E+02  0.51100000000E-03 0.  1.
        -12    1    3    3    0    0 -0.84946483822E+01  0.12888622231E+02  0.14978370167E+01  0.15508679824E+02  0.00000000000E+00 0.  1.
</event>
<event>
 7    1  0.4963616E-011  0.5052887E+02  0.7816164E-02  0.1300439E+00
        -11   -1    0    0    0    0  0.00000000000E+00  0.00000000000E+00  0.45593999997E+02  0.45594000000E+02  0.51100000000E-03 0. -1.
         11   -1    0    0    0    0 -0.00000000000E+00 -0.00000000000E+00 -0.45593999997E+02  0.45594000000E+02  0.51100000000E-03 0.  1.
    9900012    2    1    2    0    0  0.52126431289E+01 -0.34327917811E+02  0.21156261251E+02  0.50528868433E+02  0.30000026090E+02 0.  0.
        -12    1    1    2    0    0 -0.52126431289E+01  0.34327917811E+02 -0.21156261251E+02  0.40659131567E+02  0.00000000000E+00 0.  1.
         11    1    3    3    0    0  0.12097509671E+02 -0.65881105177E+01  0.14098271894E+02  0.19710763838E+02  0.51100000000E-03 0. -1.
        -11    1    3    3    0    0 -0.28545559193E+01 -0.22653987610E+02  0.81373577032E+01  0.24239806822E+02  0.51100000000E-03 0.  1.
         12    1    3    3    0    0 -0.40303106224E+01 -0.50858196836E+01 -0.10793683459E+01  0.65782977732E+01  0.00000000000E+00 0. -1.
</event>
<event>
 7    1  0.4963616E-011  0.5052884E+02  0.7816164E-02  0.1300439E+00
        -11   -1    0    0    0    0  0.00000000000E+00  0.00000000000E+00  0.45593999997E+02  0.45594000000E+02  0.51100000000E-03 0. -1.
         11   -1    0    0    0    0 -0.00000000000E+00 -0.00000000000E+00 -0.45593999997E+02  0.45594000000E+02  0.51100000000E-03 0.  1.
    9900012    2    1    2    0    0  0.26923365531E+02 -0.14498625774E+02  0.26797196029E+02  0.50528837738E+02  0.29999932788E+02 0.  0.
        -12    1    1    2    0    0 -0.26923365531E+02  0.14498625774E+02 -0.26797196029E+02  0.40659162262E+02  0.00000000000E+00 0.  1.
         11    1    3    3    0    0  0.20550698312E+02 -0.50332648989E+01  0.13998663446E+02  0.25369815435E+02  0.51100000000E-03 0. -1.
        -11    1    3    3    0    0 -0.51089223218E+01 -0.65029344257E+01  0.99984433084E+01  0.12975288524E+02  0.51100000000E-03 0.  1.
        -12    1    3    3    0    0  0.11481589541E+02 -0.29624264490E+01  0.28000892742E+01  0.12183733779E+02  0.00000000000E+00 0.  1.
</event>
<event>
 7    1  0.4963616E-011  0.5052886E+02  0.7816164E-02  0.1300439E+00
        -11   -1    0    0    0    0  0.00000000000E+00  0.00000000000E+00  0.45593999997E+02  0.45594000000E+02  0.51100000000E-03 0.  1.
         11   -1    0    0    0    0 -0.00000000000E+00 -0.00000000000E+00 -0.45593999997E+02  0.45594000000E+02  0.51100000000E-03 0. -1.
    9900012    2    1    2    0    0  0.35187951818E+02 -0.48175526466E+01  0.19793053287E+02  0.50528859268E+02  0.29999998232E+02 0.  0.
        -12    1    1    2    0    0 -0.35187951818E+02  0.48175526466E+01 -0.19793053287E+02  0.40659140732E+02  0.00000000000E+00 0.  1.
         11    1    3    3    0    0  0.38386644465E+01  0.35880255997E+00  0.10691039588E+01  0.40008833457E+01  0.51100000000E-03 0. -1.
        -11    1    3    3    0    0  0.11065420863E+02  0.69488672554E+01  0.18801708739E+02  0.22896168823E+02  0.51100000000E-03 0.  1.
        -12    1    3    3    0    0  0.20283866509E+02 -0.12125222462E+02 -0.77759410471E-01  0.23631807100E+02  0.00000000000E+00 0.  1.
</event>
<event>
 7    1  0.4963616E-011  0.5052887E+02  0.7816164E-02  0.1300439E+00
        -11   -1    0    0    0    0  0.00000000000E+00  0.00000000000E+00  0.45593999997E+02  0.45594000000E+02  0.51100000000E-03 0.  1.
         11   -1    0    0    0    0 -0.00000000000E+00 -0.00000000000E+00 -0.45593999997E+02  0.45594000000E+02  0.51100000000E-03 0. -1.
    9900012    2    1    2    0    0 -0.79720559074E+01 -0.34912724091E+01 -0.39716779034E+02  0.50528865783E+02  0.30000018034E+02 0.  0.
        -12    1    1    2    0    0  0.79720559074E+01  0.34912724091E+01  0.39716779034E+02  0.40659134217E+02  0.00000000000E+00 0.  1.
         11    1    3    3    0    0 -0.30216874540E+01  0.46207647246E+01 -0.30222852746E+02  0.30723002621E+02  0.51100000000E-03 0. -1.
        -11    1    3    3    0    0 -0.68352126182E+00 -0.11208924290E+02 -0.92142916484E+01  0.14526195507E+02  0.51100000000E-03 0.  1.
         12    1    3    3    0    0 -0.42668471915E+01  0.30968871565E+01 -0.27963464003E+00  0.52796676551E+01  0.00000000000E+00 0. -1.
</event>
<event>
 7    1  0.4963616E-011  0.5052885E+02  0.7816164E-02  0.1300439E+00
        -11   -1    0    0    0    0  0.00000000000E+00  0.00000000000E+00  0.45593999997E+02  0.45594000000E+02  0.51100000000E-03 0.  1.
         11   -1    0    0    0    0 -0.00000000000E+00 -0.00000000000E+00 -0.45593999997E+02  0.45594000000E+02  0.51100000000E-03 0. -1.
    9900012    2    1    2    0    0  0.27394194121E+02  0.22109596074E+02 -0.20344290450E+02  0.50528852640E+02  0.29999978085E+02 0.  0.
        -12    1    1    2    0    0 -0.27394194121E+02 -0.22109596074E+02  0.20344290450E+02  0.40659147360E+02  0.00000000000E+00 0.  1.
         11    1    3    3    0    0  0.49304341213E+01  0.18056634808E+02 -0.16822965835E+02  0.25166712558E+02  0.51100000000E-03 0. -1.
        -11    1    3    3    0    0  0.11522771126E+02 -0.81426580984E+00  0.27070279387E+01  0.11864454634E+02  0.51100000000E-03 0.  1.
         12    1    3    3    0    0  0.10940988874E+02  0.48672270756E+01 -0.62283525536E+01  0.13497685449E+02  0.00000000000E+00 0. -1.
</event>
<event>
 7    1  0.4963616E-011  0.5052888E+02  0.7816164E-02  0.1300439E+00
        -11   -1    0    0    0    0  0.00000000000E+00  0.00000000000E+00  0.45593999997E+02  0.45594000000E+02  0.51100000000E-03 0.  1.
         11   -1    0    0    0    0 -0.00000000000E+00 -0.00000000000E+00 -0.45593999997E+02  0.45594000000E+02  0.51100000000E-03 0. -1.
    9900012    2    1    2    0    0 -0.46129063030E+01  0.35403422649E+02 -0.19454625811E+02  0.50528884106E+02  0.30000073729E+02 0.  0.
        -12    1    1    2    0    0  0.46129063030E+01 -0.35403422649E+02  0.19454625811E+02  0.40659115894E+02  0.00000000000E+00 0.  1.
         11    1    3    3    0    0  0.10586249191E+00  0.22079695180E+02 -0.10512037985E+02  0.24454592390E+02  0.51100000000E-03 0. -1.
        -11    1    3    3    0    0 -0.12587038789E+02  0.82878077906E+01 -0.44872202326E+01  0.15724390262E+02  0.51100000000E-03 0.  1.
        -12    1    3    3    0    0  0.78682699939E+01  0.50359196782E+01 -0.44553675933E+01  0.10349901453E+02  0.00000000000E+00 0.  1.
</event>
<event>
 7    1  0.4963616E-011  0.5052887E+02  0.7816164E-02  0.1300439E+00
        -11   -1    0    0    0    0  0.00000000000E+00  0.00000000000E+00  0.45593999997E+02  0.45594000000E+02  0.51100000000E-03 0. -1.
         11   -1    0    0    0    0 -0.00000000000E+00 -0.00000000000E+00 -0.45593999997E+02  0.45594000000E+02  0.51100000000E-03 0.  1.
    9900012    2    1    2    0    0  0.38597473640E+02  0.60793780194E+01  0.11244599071E+02  0.50528870438E+02  0.30000032184E+02 0.  0.
        -12    1    1    2    0    0 -0.38597473640E+02 -0.60793780194E+01 -0.11244599071E+02  0.40659129562E+02  0.00000000000E+00 0.  1.
         11    1    3    3    0    0  0.12584616008E+02 -0.84456664801E+01  0.34914452979E+01  0.15552878604E+02  0.51100000000E-03 0. -1.
        -11    1    3    3    0    0  0.11581879028E+02  0.13491678748E+02 -0.14320890400E+01  0.17838615320E+02  0.51100000000E-03 0.  1.
        -12    1    3    3    0    0  0.14430978604E+02  0.10333657514E+01  0.91852428128E+01  0.17137376514E+02  0.00000000000E+00 0.  1.
</event>
<event>
 7    1  0.4963616E-011  0.5052886E+02  0.7816164E-02  0.1300439E+00
        -11   -1    0    0    0    0  0.00000000000E+00  0.00000000000E+00  0.45593999997E+02  0.45594000000E+02  0.51100000000E-03 0.  1.
         11   -1    0    0    0    0 -0.00000000000E+00 -0.00000000000E+00 -0.45593999997E+02  0.45594000000E+02  0.51100000000E-03 0. -1.
    9900012    2    1    2    0    0  0.16907875424E+02  0.31357209891E+02 -0.19596294670E+02  0.50528860458E+02  0.30000001847E+02 0.  0.
        -12    1    1    2    0    0 -0.16907875424E+02 -0.31357209891E+02  0.19596294670E+02  0.40659139542E+02  0.00000000000E+00 0.  1.
         11    1    3    3    0    0  0.26432183939E+00  0.69075128982E+01 -0.16820045282E+02  0.18185090707E+02  0.51100000000E-03 0. -1.
        -11    1    3    3    0    0  0.16784455839E+02  0.14262470227E+02 -0.22798903604E+01  0.22143484710E+02  0.51100000000E-03 0.  1.
         12    1    3    3    0    0 -0.14090225384E+00  0.10187226766E+02 -0.49635902750E+00  0.10200285041E+02  0.00000000000E+00 0. -1.
</event>
<event>
 7    1  0.4963616E-011  0.5052887E+02  0.7816164E-02  0.1300439E+00
        -11   -1    0    0    0    0  0.00000000000E+00  0.00000000000E+00  0.45593999997E+02  0.45594000000E+02  0.51100000000E-03 0.  1.
         11   -1    0    0    0    0 -0.00000000000E+00 -0.00000000000E+00 -0.45593999997E+02  0.45594000000E+02  0.51100000000E-03 0. -1.
    9900012    2    1    2    0    0 -0.18749627291E+02  0.20068832039E+02 -0.29980968239E+02  0.50528868190E+02  0.30000025352E+02 0.  0.
        -12    1    1    2    0    0  0.18749627291E+02 -0.20068832039E+02  0.29980968239E+02  0.40659131810E+02  0.00000000000E+00 0.  1.
         11    1    3    3    0    0 -0.98297886839E+01  0.14103793792E+02  0.38383825963E+00  0.17195612142E+02  0.51100000000E-03 0. -1.
        -11    1    3    3    0    0  0.37882312372E+00 -0.12500975738E+01 -0.75432051342E+01  0.76554682980E+01  0.51100000000E-03 0.  1.
         12    1    3    3    0    0 -0.92986617307E+01  0.72151358218E+01 -0.22821601364E+02  0.25677787750E+02  0.00000000000E+00 0. -1.
</event>
<event>
 7    1  0.4963616E-011  0.5052887E+02  0.7816164E-02  0.1300439E+00
        -11   -1    0    0    0    0  0.00000000000E+00  0.00000000000E+00  0.45593999997E+02  0.45594000000E+02  0.51100000000E-03 0. -1.
         11   -1    0    0    0    0 -0.00000000000E+00 -0.00000000000E+00 -0.45593999997E+02  0.45594000000E+02  0.51100000000E-03 0.  1.
    9900012    2    1    2    0    0  0.43822546546E+01  0.10169592728E+02  0.39122115808E+02  0.50528871659E+02  0.30000035896E+02 0.  0.
        -12    1    1    2    0    0 -0.43822546546E+01 -0.10169592728E+02 -0.39122115808E+02  0.40659128341E+02  0.00000000000E+00 0.  1.
         11    1    3    3    0    0  0.38291231036E+01 -0.42216505291E+00 -0.88407072850E-01  0.38533392202E+01  0.51100000000E-03 0.  1.
        -11    1    3    3    0    0 -0.19985589134E+01  0.15424902592E+02  0.38024904225E+02  0.41083028118E+02  0.51100000000E-03 0. -1.
         12    1    3    3    0    0  0.25516904643E+01 -0.48331448109E+01  0.11856186557E+01  0.55925043215E+01  0.00000000000E+00 0. -1.
</event>
<event>
 7    1  0.4963616E-011  0.5052886E+02  0.7816164E-02  0.1300439E+00
        -11   -1    0    0    0    0  0.00000000000E+00  0.00000000000E+00  0.45593999997E+02  0.45594000000E+02  0.51100000000E-03 0. -1.
         11   -1    0    0    0    0 -0.00000000000E+00 -0.00000000000E+00 -0.45593999997E+02  0.45594000000E+02  0.51100000000E-03 0.  1.
    9900012    2    1    2    0    0  0.19837852099E+02 -0.17048695322E+02  0.31128242952E+02  0.50528857149E+02  0.29999991790E+02 0.  0.
        -12    1    1    2    0    0 -0.19837852099E+02  0.17048695322E+02 -0.31128242952E+02  0.40659142851E+02  0.00000000000E+00 0.  1.
         11    1    3    3    0    0  0.80036671187E+01  0.29249778635E+01  0.62672307178E+01  0.10577918698E+02  0.51100000000E-03 0. -1.
        -11    1    3    3    0    0  0.56250960574E+01 -0.21909799420E+02  0.24632318951E+02  0.33442968670E+02  0.51100000000E-03 0.  1.
        -12    1    3    3    0    0  0.62090889230E+01  0.19361262353E+01  0.22869328353E+00  0.65079697810E+01  0.00000000000E+00 0.  1.
</event>
<event>
 7    1  0.4963616E-011  0.5052886E+02  0.7816164E-02  0.1300439E+00
        -11   -1    0    0    0    0  0.00000000000E+00  0.00000000000E+00  0.45593999997E+02  0.45594000000E+02  0.51100000000E-03 0.  1.
         11   -1    0    0    0    0 -0.00000000000E+00 -0.00000000000E+00 -0.45593999997E+02  0.45594000000E+02  0.51100000000E-03 0. -1.
    9900012    2    1    2    0    0 -0.25263088461E+02  0.61545225238E+01 -0.31258021535E+02  0.50528859621E+02  0.29999999305E+02 0.  0.
        -12    1    1    2    0    0  0.25263088461E+02 -0.61545225238E+01  0.31258021535E+02  0.40659140379E+02  0.00000000000E+00 0.  1.
         11    1    3    3    0    0 -0.26761873474E+02  0.50239604014E+01 -0.14019884705E+02  0.30626707582E+02  0.51100000000E-03 0. -1.
        -11    1    3    3    0    0  0.28191427097E+01  0.32637701719E+01 -0.25687480588E+01  0.50197836809E+01  0.51100000000E-03 0.  1.
         12    1    3    3    0    0 -0.13203576968E+01 -0.21332080494E+01 -0.14669388771E+02  0.14882368358E+02  0.00000000000E+00 0. -1.
</event>
<event>
 7    1  0.4963616E-011  0.5052885E+02  0.7816164E-02  0.1300439E+00
        -11   -1    0    0    0    0  0.00000000000E+00  0.00000000000E+00  0.45593999997E+02  0.45594000000E+02  0.51100000000E-03 0.  1.
         11   -1    0    0    0    0 -0.00000000000E+00 -0.00000000000E+00 -0.45593999997E+02  0.45594000000E+02  0.51100000000E-03 0. -1.
    9900012    2    1    2    0    0 -0.89436160592E+01 -0.37257649094E+01 -0.39487934337E+02  0.50528849116E+02  0.29999967373E+02 0.  0.
        -12    1    1    2    0    0  0.89436160592E+01  0.37257649094E+01  0.39487934337E+02  0.40659150884E+02  0.00000000000E+00 0.  1.
         11    1    3    3    0    0 -0.14355928871E+01  0.10848339603E+02 -0.20632791590E+02  0.23355074141E+02  0.51100000000E-03 0. -1.
        -11    1    3    3    0    0 -0.32999907756E+01 -0.14873026452E+02 -0.13491469413E+02  0.20349855089E+02  0.51100000000E-03 0.  1.
         12    1    3    3    0    0 -0.42080323964E+01  0.29892193988E+00 -0.53636733352E+01  0.68239198869E+01  0.00000000000E+00 0. -1.
</event>
<event>
 7    1  0.4963616E-011  0.5052886E+02  0.7816164E-02  0.1300439E+00
        -11   -1    0    0    0    0  0.00000000000E+00  0.00000000000E+00  0.45593999997E+02  0.45594000000E+02  0.51100000000E-03 0.  1.
         11   -1    0    0    0    0 -0.00000000000E+00 -0.00000000000E+00 -0.45593999997E+02  0.45594000000E+02  0.51100000000E-03 0. -1.
    9900012    2    1    2    0    0 -0.32840549688E+02  0.10820128268E+02 -0.21391323594E+02  0.50528860749E+02  0.30000002732E+02 0.  0.
        -12    1    1    2    0    0  0.32840549688E+02 -0.10820128268E+02  0.21391323594E+02  0.40659139251E+02  0.00000000000E+00 0.  1.
         11    1    3    3    0    0 -0.99408092996E+01  0.31833457841E+01 -0.35139899525E+01  0.11013696271E+02  0.51100000000E-03 0. -1.
        -11    1    3    3    0    0 -0.12328879536E+02 -0.21807843605E+01 -0.21282472404E+02  0.24692118640E+02  0.51100000000E-03 0.  1.
        -12    1    3    3    0    0 -0.10570860853E+02  0.98175668443E+01  0.34051387627E+01  0.14823045838E+02  0.00000000000E+00 0.  1.
</event>
<event>
 7    1  0.4963616E-011  0.5052886E+02  0.7816164E-02  0.1300439E+00
        -11   -1    0    0    0    0  0.00000000000E+00  0.00000000000E+00  0.45593999997E+02  0.45594000000E+02  0.51100000000E-03 0. -1.
         11   -1    0    0    0    0 -0.00000000000E+00 -0.00000000000E+00 -0.45593999997E+02  0.45594000000E+02  0.51100000000E-03 0.  1.
    9900012    2    1    2    0    0 -0.33613564772E+02  0.22869601631E+02 -0.52449780763E+00  0.50528861871E+02  0.30000006143E+02 0.  0.
        -12    1    1    2    0    0  0.33613564772E+02 -0.22869601631E+02  0.52449780763E+00  0.40659138129E+02  0.00000000000E+00 0.  1.
         11    1    3    3    0    0 -0.12670098204E+02  0.15292770452E+02  0.13009114621E+01  0.19902074954E+02  0.51100000000E-03 0. -1.
        -11    1    3    3    0    0 -0.20368992270E+02 -0.13838626740E+01 -0.51440717981E+01  0.21054035169E+02  0.51100000000E-03 0.  1.
        -12    1    3    3    0    0 -0.57447429865E+00  0.89606938527E+01  0.33186625284E+01  0.95727517475E+01  0.00000000000E+00 0.  1.
</event>
<event>
 7    1  0.4963616E-011  0.5052886E+02  0.7816164E-02  0.1300439E+00
        -11   -1    0    0    0    0  0.00000000000E+00  0.00000000000E+00  0.45593999997E+02  0.45594000000E+02  0.51100000000E-03 0.  1.
         11   -1    0    0    0    0 -0.00000000000E+00 -0.00000000000E+00 -0.45593999997E+02  0.45594000000E+02  0.51100000000E-03 0. -1.
    9900012    2    1    2    0    0  0.22588968304E+02 -0.22531576425E+02 -0.25203813475E+02  0.50528860327E+02  0.30000001451E+02 0.  0.
        -12    1    1    2    0    0 -0.22588968304E+02  0.22531576425E+02  0.25203813475E+02  0.40659139673E+02  0.00000000000E+00 0.  1.
         11    1    3    3    0    0  0.29870059016E+01  0.27673751130E+01 -0.11843278654E+02  0.12523730227E+02  0.51100000000E-03 0. -1.
        -11    1    3    3    0    0  0.18831886069E+02 -0.27443362339E+02 -0.12206444608E+02  0.35451027624E+02  0.51100000000E-03 0.  1.
        -12    1    3    3    0    0  0.77007633312E+00  0.21444108001E+01 -0.11540902126E+01  0.25541024759E+01  0.00000000000E+00 0.  1.
</event>
<event>
 7    1  0.4963616E-011  0.5052886E+02  0.7816164E-02  0.1300439E+00
        -11   -1    0    0    0    0  0.00000000000E+00  0.00000000000E+00  0.45593999997E+02  0.45594000000E+02  0.51100000000E-03 0.  1.
         11   -1    0    0    0    0 -0.00000000000E+00 -0.00000000000E+00 -0.45593999997E+02  0.45594000000E+02  0.51100000000E-03 0. -1.
    9900012    2    1    2    0    0  0.23354622494E+02  0.31500355017E+02 -0.10745006321E+02  0.50528856885E+02  0.29999990988E+02 0.  0.
        -12    1    1    2    0    0 -0.23354622494E+02 -0.31500355017E+02  0.10745006321E+02  0.40659143115E+02  0.00000000000E+00 0.  1.
         11    1    3    3    0    0  0.21058680635E+02  0.20373821000E+02 -0.83391701121E+01  0.30464772618E+02  0.51100000000E-03 0. -1.
        -11    1    3    3    0    0 -0.11556126738E+01  0.14246252267E+02 -0.44678860912E+01  0.14975084330E+02  0.51100000000E-03 0.  1.
        -12    1    3    3    0    0  0.34515545326E+01 -0.31197182499E+01  0.20620498819E+01  0.50889999377E+01  0.00000000000E+00 0.  1.
</event>
<event>
 7    1  0.4963616E-011  0.5052885E+02  0.7816164E-02  0.1300439E+00
        -11   -1    0    0    0    0  0.00000000000E+00  0.00000000000E+00  0.45593999997E+02  0.45594000000E+02  0.51100000000E-03 0. -1.
         11   -1    0    0    0    0 -0.00000000000E+00 -0.00000000000E+00 -0.45593999997E+02  0.45594000000E+02  0.51100000000E-03 0.  1.
    9900012    2    1    2    0    0 -0.28305452104E+01  0.33626922673E+02 -0.22680047154E+02  0.50528850310E+02  0.29999971001E+02 0.  0.
        -12    1    1    2    0    0  0.28305452104E+01 -0.33626922673E+02  0.22680047154E+02  0.40659149690E+02  0.00000000000E+00 0.  1.
         11    1    3    3    0    0 -0.12623306136E+02  0.14342980323E+02 -0.11111735202E+02  0.22102931973E+02  0.51100000000E-03 0. -1.
        -11    1    3    3    0    0  0.12981034168E+02  0.18386292189E+02 -0.90212570751E+01  0.24247599222E+02  0.51100000000E-03 0.  1.
        -12    1    3    3    0    0 -0.31882732420E+01  0.89765016093E+00 -0.25470548769E+01  0.41783191146E+01  0.00000000000E+00 0.  1.
</event>
<event>
 7    1  0.4963616E-011  0.5052886E+02  0.7816164E-02  0.1300439E+00
        -11   -1    0    0    0    0  0.00000000000E+00  0.00000000000E+00  0.45593999997E+02  0.45594000000E+02  0.51100000000E-03 0.  1.
         11   -1    0    0    0    0 -0.00000000000E+00 -0.00000000000E+00 -0.45593999997E+02  0.45594000000E+02  0.51100000000E-03 0. -1.
    9900012    2    1    2    0    0  0.14397783059E+02 -0.33074434237E+02 -0.18760361712E+02  0.50528861683E+02  0.30000005572E+02 0.  0.
        -12    1    1    2    0    0 -0.14397783059E+02  0.33074434237E+02  0.18760361712E+02  0.40659138317E+02  0.00000000000E+00 0.  1.
         11    1    3    3    0    0  0.10760780148E+02 -0.87524887090E+01 -0.19147296379E+02  0.23643591244E+02  0.51100000000E-03 0. -1.
        -11    1    3    3    0    0  0.54162133417E+01 -0.10562125904E+02  0.40390940330E+01  0.12538267481E+02  0.51100000000E-03 0.  1.
         12    1    3    3    0    0 -0.17792104307E+01 -0.13759819624E+02 -0.36521593661E+01  0.14347002958E+02  0.00000000000E+00 0. -1.
</event>
<event>
 7    1  0.4963616E-011  0.5052886E+02  0.7816164E-02  0.1300439E+00
        -11   -1    0    0    0    0  0.00000000000E+00  0.00000000000E+00  0.45593999997E+02  0.45594000000E+02  0.51100000000E-03 0. -1.
         11   -1    0    0    0    0 -0.00000000000E+00 -0.00000000000E+00 -0.45593999997E+02  0.45594000000E+02  0.51100000000E-03 0.  1.
    9900012    2    1    2    0    0 -0.22713449530E+02 -0.26115486307E+02  0.21336503101E+02  0.50528858603E+02  0.29999996209E+02 0.  0.
        -12    1    1    2    0    0  0.22713449530E+02  0.26115486307E+02 -0.21336503101E+02  0.40659141397E+02  0.00000000000E+00 0.  1.
         11    1    3    3    0    0 -0.23968456292E+02 -0.22657396395E+02  0.27254269909E+02  0.42785975938E+02  0.51100000000E-03 0. -1.
        -11    1    3    3    0    0  0.53004339403E-01 -0.12921185612E+01 -0.48949285573E+01  0.50628752383E+01  0.51100000000E-03 0.  1.
         12    1    3    3    0    0  0.12020024233E+01 -0.21659713508E+01 -0.10228382511E+01  0.26800074265E+01  0.00000000000E+00 0. -1.
</event>
<event>
 7    1  0.4963616E-011  0.5052887E+02  0.7816164E-02  0.1300439E+00
        -11   -1    0    0    0    0  0.00000000000E+00  0.00000000000E+00  0.45593999997E+02  0.45594000000E+02  0.51100000000E-03 0.  1.
         11   -1    0    0    0    0 -0.00000000000E+00 -0.00000000000E+00 -0.45593999997E+02  0.45594000000E+02  0.51100000000E-03 0. -1.
    9900012    2    1    2    0    0  0.15299019145E+02  0.36528765653E+02 -0.92061800969E+01  0.50528874839E+02  0.30000045560E+02 0.  0.
        -12    1    1    2    0    0 -0.15299019145E+02 -0.36528765653E+02  0.92061800969E+01  0.40659125161E+02  0.00000000000E+00 0.  1.
         11    1    3    3    0    0  0.36186300848E+01  0.11724868428E+02  0.39117074168E+01  0.12878993692E+02  0.51100000000E-03 0. -1.
        -11    1    3    3    0    0 -0.16486583491E+01  0.17937286582E+01 -0.10671019945E+02  0.10945602029E+02  0.51100000000E-03 0.  1.
        -12    1    3    3    0    0  0.13329047409E+02  0.23010168566E+02 -0.24468675686E+01  0.26704279117E+02  0.00000000000E+00 0.  1.
</event>
<event>
 7    1  0.4963616E-011  0.5052899E+02  0.7816164E-02  0.1300438E+00
        -11   -1    0    0    0    0  0.00000000000E+00  0.00000000000E+00  0.45593999997E+02  0.45594000000E+02  0.51100000000E-03 0.  1.
         11   -1    0    0    0    0 -0.00000000000E+00 -0.00000000000E+00 -0.45593999997E+02  0.45594000000E+02  0.51100000000E-03 0. -1.
    9900012    2    1    2    0    0 -0.69360616975E+01  0.27374681658E+02 -0.29251882855E+02  0.50528993638E+02  0.30000406660E+02 0.  0.
        -12    1    1    2    0    0  0.69360616975E+01 -0.27374681658E+02  0.29251882855E+02  0.40659006362E+02  0.00000000000E+00 0.  1.
         11    1    3    3    0    0  0.39348642871E+01  0.17268812078E+02 -0.10116283235E+02  0.20396916784E+02  0.51100000000E-03 0. -1.
        -11    1    3    3    0    0 -0.14772653641E+02  0.10939644622E+02 -0.18521851773E+02  0.26095327425E+02  0.51100000000E-03 0.  1.
        -12    1    3    3    0    0  0.39017276569E+01 -0.83377504216E+00 -0.61374784688E+00  0.40367494286E+01  0.00000000000E+00 0.  1.
</event>
<event>
 7    1  0.4963616E-011  0.5052886E+02  0.7816164E-02  0.1300439E+00
        -11   -1    0    0    0    0  0.00000000000E+00  0.00000000000E+00  0.45593999997E+02  0.45594000000E+02  0.51100000000E-03 0. -1.
         11   -1    0    0    0    0 -0.00000000000E+00 -0.00000000000E+00 -0.45593999997E+02  0.45594000000E+02  0.51100000000E-03 0.  1.
    9900012    2    1    2    0    0 -0.51214029488E+01 -0.25869936554E+02  0.30946452200E+02  0.50528864628E+02  0.30000014523E+02 0.  0.
        -12    1    1    2    0    0  0.51214029488E+01  0.25869936554E+02 -0.30946452200E+02  0.40659135372E+02  0.00000000000E+00 0.  1.
         11    1    3    3    0    0  0.64374798889E+01 -0.21288051573E+02  0.11129621033E+02  0.24869474295E+02  0.51100000000E-03 0. -1.
        -11    1    3    3    0    0 -0.38398831925E+01  0.33722783078E+01  0.76595292595E+01  0.92078962123E+01  0.51100000000E-03 0.  1.
         12    1    3    3    0    0 -0.77189996452E+01 -0.79541632879E+01  0.12157301907E+02  0.16451494121E+02  0.00000000000E+00 0. -1.
</event>
<event>
 7    1  0.4963616E-011  0.5052887E+02  0.7816164E-02  0.1300439E+00
        -11   -1    0    0    0    0  0.00000000000E+00  0.00000000000E+00  0.45593999997E+02  0.45594000000E+02  0.51100000000E-03 0.  1.
         11   -1    0    0    0    0 -0.00000000000E+00 -0.00000000000E+00 -0.45593999997E+02  0.45594000000E+02  0.51100000000E-03 0. -1.
    9900012    2    1    2    0    0 -0.33575735855E+02 -0.13122529816E+02 -0.18805162736E+02  0.50528868523E+02  0.30000026361E+02 0.  0.
        -12    1    1    2    0    0  0.33575735855E+02  0.13122529816E+02  0.18805162736E+02  0.40659131477E+02  0.00000000000E+00 0.  1.
         11    1    3    3    0    0 -0.27791812932E+02 -0.49785711929E+01 -0.24705064792E+02  0.37516813081E+02  0.51100000000E-03 0. -1.
        -11    1    3    3    0    0 -0.19265099902E+01 -0.46834560293E+01  0.59710566119E+01  0.78294136718E+01  0.51100000000E-03 0.  1.
         12    1    3    3    0    0 -0.38574129331E+01 -0.34605025942E+01 -0.71154556076E-01  0.51826417696E+01  0.00000000000E+00 0. -1.
</event>
<event>
 7    1  0.4963616E-011  0.5052886E+02  0.7816164E-02  0.1300439E+00
        -11   -1    0    0    0    0  0.00000000000E+00  0.00000000000E+00  0.45593999997E+02  0.45594000000E+02  0.51100000000E-03 0. -1.
         11   -1    0    0    0    0 -0.00000000000E+00 -0.00000000000E+00 -0.45593999997E+02  0.45594000000E+02  0.51100000000E-03 0.  1.
    9900012    2    1    2    0    0 -0.29975038528E+02 -0.27186747367E+02  0.39425072249E+01  0.50528861662E+02  0.30000005508E+02 0.  0.
        -12    1    1    2    0    0  0.29975038528E+02  0.27186747367E+02 -0.39425072249E+01  0.40659138338E+02  0.00000000000E+00 0.  1.
         11    1    3    3    0    0 -0.43347359666E+01  0.61269746915E+01  0.27720647961E+01  0.80008810930E+01  0.51100000000E-03 0.  1.
        -11    1    3    3    0    0 -0.15059735581E+02 -0.20182630026E+02 -0.23821442355E+01  0.25294442116E+02  0.51100000000E-03 0. -1.
        -12    1    3    3    0    0 -0.10580566980E+02 -0.13131092033E+02  0.35525866643E+01  0.17233538453E+02  0.00000000000E+00 0.  1.
</event>
<event>
 7    1  0.4963616E-011  0.5052885E+02  0.7816164E-02  0.1300439E+00
        -11   -1    0    0    0    0  0.00000000000E+00  0.00000000000E+00  0.45593999997E+02  0.45594000000E+02  0.51100000000E-03 0.  1.
         11   -1    0    0    0    0 -0.00000000000E+00 -0.00000000000E+00 -0.45593999997E+02  0.45594000000E+02  0.51100000000E-03 0. -1.
    9900012    2    1    2    0    0  0.16042326798E+02 -0.21603007512E+02 -0.30481479649E+02  0.50528846243E+02  0.29999958641E+02 0.  0.
        -12    1    1    2    0    0 -0.16042326798E+02  0.21603007512E+02  0.30481479649E+02  0.40659153757E+02  0.00000000000E+00 0.  1.
         11    1    3    3    0    0  0.21344668666E+01 -0.19863641823E+02 -0.16647313714E+02  0.26004870110E+02  0.51100000000E-03 0. -1.
        -11    1    3    3    0    0  0.64524076570E+01  0.18766056094E+01  0.16880756577E+01  0.69285505607E+01  0.51100000000E-03 0.  1.
         12    1    3    3    0    0  0.74554522744E+01 -0.36159712982E+01 -0.15522241592E+02  0.17595425573E+02  0.00000000000E+00 0. -1.
</event>
<event>
 7    1  0.5688458E-011  0.5052886E+02  0.7816164E-02  0.1300439E+00
        -11   -1    0    0    0    0  0.00000000000E+00  0.00000000000E+00  0.45593999997E+02  0.45594000000E+02  0.51100000000E-03 0. -1.
         11   -1    0    0    0    0 -0.00000000000E+00 -0.00000000000E+00 -0.45593999997E+02  0.45594000000E+02  0.51100000000E-03 0.  1.
    9900012    2    1    2    0    0 -0.24566387041E+01  0.81731779880E+01  0.39753366082E+02  0.50528855555E+02  0.29999986945E+02 0.  0.
        -12    1    1    2    0    0  0.24566387041E+01 -0.81731779880E+01 -0.39753366082E+02  0.40659144445E+02  0.00000000000E+00 0.  1.
         11    1    3    3    0    0 -0.65614468932E+01  0.25687694186E+01  0.33448170654E+02  0.34182324117E+02  0.51100000000E-03 0. -1.
        -11    1    3    3    0    0  0.19566339023E+01 -0.32722553699E+01 -0.17256263328E+01  0.41849561449E+01  0.51100000000E-03 0.  1.
        -12    1    3    3    0    0  0.21481742868E+01  0.88766639393E+01  0.80308217606E+01  0.12161575293E+02  0.00000000000E+00 0.  1.
</event>
<event>
 7    1  0.4963616E-011  0.5052886E+02  0.7816164E-02  0.1300439E+00
        -11   -1    0    0    0    0  0.00000000000E+00  0.00000000000E+00  0.45593999997E+02  0.45594000000E+02  0.51100000000E-03 0.  1.
         11   -1    0    0    0    0 -0.00000000000E+00 -0.00000000000E+00 -0.45593999997E+02  0.45594000000E+02  0.51100000000E-03 0. -1.
    9900012    2    1    2    0    0 -0.13021884317E+02  0.34099761194E+02 -0.17910967768E+02  0.50528856489E+02  0.29999989785E+02 0.  0.
        -12    1    1    2    0    0  0.13021884317E+02 -0.34099761194E+02  0.17910967768E+02  0.40659143511E+02  0.00000000000E+00 0.  1.
         11    1    3    3    0    0  0.15670741758E+01  0.36674379446E+01  0.29989736401E+01  0.49899564833E+01  0.51100000000E-03 0.  1.
        -11    1    3    3    0    0 -0.64987424091E+01  0.31555913838E+02 -0.15595177073E+02  0.35794118222E+02  0.51100000000E-03 0. -1.
        -12    1    3    3    0    0 -0.80902160832E+01 -0.11235905890E+01 -0.53147643352E+01  0.97447817843E+01  0.00000000000E+00 0.  1.
</event>
<event>
 7    1  0.4963616E-011  0.5052886E+02  0.7816164E-02  0.1300439E+00
        -11   -1    0    0    0    0  0.00000000000E+00  0.00000000000E+00  0.45593999997E+02  0.45594000000E+02  0.51100000000E-03 0.  1.
         11   -1    0    0    0    0 -0.00000000000E+00 -0.00000000000E+00 -0.45593999997E+02  0.45594000000E+02  0.51100000000E-03 0. -1.
    9900012    2    1    2    0    0  0.33818659567E+02 -0.10140815819E+02 -0.20165004287E+02  0.50528864762E+02  0.30000014931E+02 0.  0.
        -12    1    1    2    0    0 -0.33818659567E+02  0.10140815819E+02  0.20165004287E+02  0.40659135238E+02  0.00000000000E+00 0.  1.
         11    1    3    3    0    0 -0.23452320544E+01  0.47039018427E+01 -0.37369279090E+01  0.64491422990E+01  0.51100000000E-03 0.  1.
        -11    1    3    3    0    0  0.31261312746E+02 -0.76280477416E+01 -0.13056018005E+02  0.34726306935E+02  0.51100000000E-03 0. -1.
         12    1    3    3    0    0  0.49025788751E+01 -0.72166699200E+01 -0.33720583738E+01  0.93534155279E+01  0.00000000000E+00 0. -1.
</event>
<event>
 7    1  0.4963616E-011  0.5052885E+02  0.7816164E-02  0.1300439E+00
        -11   -1    0    0    0    0  0.00000000000E+00  0.00000000000E+00  0.45593999997E+02  0.45594000000E+02  0.51100000000E-03 0.  1.
         11   -1    0    0    0    0 -0.00000000000E+00 -0.00000000000E+00 -0.45593999997E+02  0.45594000000E+02  0.51100000000E-03 0. -1.
    9900012    2    1    2    0    0  0.24645905674E+02  0.25127125860E+02 -0.20356158850E+02  0.50528851908E+02  0.29999975859E+02 0.  0.
        -12    1    1    2    0    0 -0.24645905674E+02 -0.25127125860E+02  0.20356158850E+02  0.40659148092E+02  0.00000000000E+00 0.  1.
         11    1    3    3    0    0  0.11071546596E+02  0.27205413673E+02 -0.14920279093E+02  0.32944322813E+02  0.51100000000E-03 0. -1.
        -11    1    3    3    0    0 -0.58767530924E+00 -0.68049629145E+00 -0.30188210756E+01  0.31498759371E+01  0.51100000000E-03 0.  1.
         12    1    3    3    0    0  0.14162034387E+02 -0.13977915211E+01 -0.24170586806E+01  0.14434653158E+02  0.00000000000E+00 0. -1.
</event>
<event>
 7    1  0.4963616E-011  0.5052886E+02  0.7816164E-02  0.1300439E+00
        -11   -1    0    0    0    0  0.00000000000E+00  0.00000000000E+00  0.45593999997E+02  0.45594000000E+02  0.51100000000E-03 0.  1.
         11   -1    0    0    0    0 -0.00000000000E+00 -0.00000000000E+00 -0.45593999997E+02  0.45594000000E+02  0.51100000000E-03 0. -1.
    9900012    2    1    2    0    0  0.12023890971E+02  0.18641652896E+02 -0.34074631466E+02  0.50528859744E+02  0.29999999679E+02 0.  0.
        -12    1    1    2    0    0 -0.12023890971E+02 -0.18641652896E+02  0.34074631466E+02  0.40659140256E+02  0.00000000000E+00 0.  1.
         11    1    3    3    0    0 -0.16665669670E+01 -0.18933012416E+01  0.21255445457E+00  0.25312476577E+01  0.51100000000E-03 0.  1.
        -11    1    3    3    0    0  0.16859074589E+02  0.82618227759E+01 -0.28343647782E+02  0.33997771712E+02  0.51100000000E-03 0. -1.
         12    1    3    3    0    0 -0.31686166509E+01  0.12273131362E+02 -0.59435381392E+01  0.13999840375E+02  0.00000000000E+00 0. -1.
</event>
<event>
 7    1  0.4963616E-011  0.5052886E+02  0.7816164E-02  0.1300439E+00
        -11   -1    0    0    0    0  0.00000000000E+00  0.00000000000E+00  0.45593999997E+02  0.45594000000E+02  0.51100000000E-03 0. -1.
         11   -1    0    0    0    0 -0.00000000000E+00 -0.00000000000E+00 -0.45593999997E+02  0.45594000000E+02  0.51100000000E-03 0.  1.
    9900012    2    1    2    0    0 -0.26442515774E+02 -0.27677770467E+02 -0.13707659784E+02  0.50528861356E+02  0.30000004578E+02 0.  0.
        -12    1    1    2    0    0  0.26442515774E+02  0.27677770467E+02  0.13707659784E+02  0.40659138644E+02  0.00000000000E+00 0.  1.
         11    1    3    3    0    0 -0.91406041930E+01 -0.13171937776E+02  0.41842791891E+01  0.16569815400E+02  0.51100000000E-03 0. -1.
        -11    1    3    3    0    0 -0.11230074937E+02 -0.78043608605E+01 -0.20413518170E+02  0.24571006408E+02  0.51100000000E-03 0.  1.
         12    1    3    3    0    0 -0.60718366440E+01 -0.67014718304E+01  0.25215791965E+01  0.93880395488E+01  0.00000000000E+00 0. -1.
</event>
<event>
 7    1  0.4963616E-011  0.5052886E+02  0.7816164E-02  0.1300439E+00
        -11   -1    0    0    0    0  0.00000000000E+00  0.00000000000E+00  0.45593999997E+02  0.45594000000E+02  0.51100000000E-03 0. -1.
         11   -1    0    0    0    0 -0.00000000000E+00 -0.00000000000E+00 -0.45593999997E+02  0.45594000000E+02  0.51100000000E-03 0.  1.
    9900012    2    1    2    0    0 -0.12116451662E+02  0.29242026457E+02  0.25519818890E+02  0.50528859965E+02  0.30000000351E+02 0.  0.
        -12    1    1    2    0    0  0.12116451662E+02 -0.29242026457E+02 -0.25519818890E+02  0.40659140035E+02  0.00000000000E+00 0.  1.
         11    1    3    3    0    0  0.63993683623E+01  0.14515143748E+02  0.38133000287E+01  0.16315102538E+02  0.51100000000E-03 0. -1.
        -11    1    3    3    0    0 -0.10389672887E+02  0.11726298644E+01  0.66845184548E+01  0.12409800592E+02  0.51100000000E-03 0.  1.
         12    1    3    3    0    0 -0.81261471367E+01  0.13554252845E+02  0.15022000406E+02  0.21803956836E+02  0.00000000000E+00 0. -1.
</event>
<event>
 7    1  0.4963616E-011  0.5052888E+02  0.7816164E-02  0.1300439E+00
        -11   -1    0    0    0    0  0.00000000000E+00  0.00000000000E+00  0.45593999997E+02  0.45594000000E+02  0.51100000000E-03 0.  1.
         11   -1    0    0    0    0 -0.00000000000E+00 -0.00000000000E+00 -0.45593999997E+02  0.45594000000E+02  0.51100000000E-03 0. -1.
    9900012    2    1    2    0    0  0.27728667182E+01 -0.26213048809E+02 -0.30957255224E+02  0.50528875948E+02  0.30000048931E+02 0.  0.
        -12    1    1    2    0    0 -0.27728667182E+01  0.26213048809E+02  0.30957255224E+02  0.40659124052E+02  0.00000000000E+00 0.  1.
         11    1    3    3    0    0  0.65647862263E+01 -0.18632728613E+02 -0.25313998883E+02  0.32110333749E+02  0.51100000000E-03 0. -1.
        -11    1    3    3    0    0 -0.79026960820E+01 -0.90520928930E+00 -0.68369173309E+01  0.10488824914E+02  0.51100000000E-03 0.  1.
         12    1    3    3    0    0  0.41107765739E+01 -0.66751109069E+01  0.11936609901E+01  0.79297172849E+01  0.00000000000E+00 0. -1.
</event>
<event>
 7    1  0.4963616E-011  0.5052886E+02  0.7816164E-02  0.1300439E+00
        -11   -1    0    0    0    0  0.00000000000E+00  0.00000000000E+00  0.45593999997E+02  0.45594000000E+02  0.51100000000E-03 0.  1.
         11   -1    0    0    0    0 -0.00000000000E+00 -0.00000000000E+00 -0.45593999997E+02  0.45594000000E+02  0.51100000000E-03 0. -1.
    9900012    2    1    2    0    0 -0.80299844693E+01 -0.19209362824E+02 -0.34923992244E+02  0.50528861975E+02  0.30000006458E+02 0.  0.
        -12    1    1    2    0    0  0.80299844693E+01  0.19209362824E+02  0.34923992244E+02  0.40659138025E+02  0.00000000000E+00 0.  1.
         11    1    3    3    0    0 -0.15127461236E+02 -0.58291843117E+01 -0.17146698847E+02  0.23597219217E+02  0.51100000000E-03 0. -1.
        -11    1    3    3    0    0 -0.43535742642E+00 -0.10343126125E+02 -0.43288950687E+01  0.11220923621E+02  0.51100000000E-03 0.  1.
         12    1    3    3    0    0  0.75328341927E+01 -0.30370523874E+01 -0.13448398329E+02  0.15710719137E+02  0.00000000000E+00 0. -1.
</event>
<event>
 7    1  0.4963616E-011  0.5052886E+02  0.7816164E-02  0.1300439E+00
        -11   -1    0    0    0    0  0.00000000000E+00  0.00000000000E+00  0.45593999997E+02  0.45594000000E+02  0.51100000000E-03 0.  1.
         11   -1    0    0    0    0 -0.00000000000E+00 -0.00000000000E+00 -0.45593999997E+02  0.45594000000E+02  0.51100000000E-03 0. -1.
    9900012    2    1    2    0    0 -0.24732001682E+02  0.34921382362E+01 -0.32082683223E+02  0.50528862042E+02  0.30000006664E+02 0.  0.
        -12    1    1    2    0    0  0.24732001682E+02 -0.34921382362E+01  0.32082683223E+02  0.40659137958E+02  0.00000000000E+00 0.  1.
         11    1    3    3    0    0 -0.13389180437E+02  0.11604504183E+02 -0.21036737003E+02  0.27504162851E+02  0.51100000000E-03 0. -1.
        -11    1    3    3    0    0 -0.27210509354E+00 -0.82409471500E+01 -0.14469395062E+01  0.83714326914E+01  0.51100000000E-03 0.  1.
         12    1    3    3    0    0 -0.11070716152E+02  0.12858120284E+00 -0.95990067136E+01  0.14653266500E+02  0.00000000000E+00 0. -1.
</event>
<event>
 7    1  0.4963616E-011  0.5052887E+02  0.7816164E-02  0.1300439E+00
        -11   -1    0    0    0    0  0.00000000000E+00  0.00000000000E+00  0.45593999997E+02  0.45594000000E+02  0.51100000000E-03 0.  1.
         11   -1    0    0    0    0 -0.00000000000E+00 -0.00000000000E+00 -0.45593999997E+02  0.45594000000E+02  0.51100000000E-03 0. -1.
    9900012    2    1    2    0    0 -0.20195128414E+02 -0.34854446479E+02 -0.55217061532E+01  0.50528869539E+02  0.30000029450E+02 0.  0.
        -12    1    1    2    0    0  0.20195128414E+02  0.34854446479E+02  0.55217061532E+01  0.40659130461E+02  0.00000000000E+00 0.  1.
         11    1    3    3    0    0 -0.12840008728E+01 -0.10178462088E+02  0.44101110556E+01  0.11166862966E+02  0.51100000000E-03 0. -1.
        -11    1    3    3    0    0 -0.15124517982E+02 -0.19673767759E+02 -0.16870895645E+02  0.30007254159E+02  0.51100000000E-03 0.  1.
        -12    1    3    3    0    0 -0.37866095591E+01 -0.50022166320E+01  0.69390784361E+01  0.93547524141E+01  0.00000000000E+00 0.  1.
</event>
<event>
 7    1  0.4963616E-011  0.5052890E+02  0.7816164E-02  0.1300439E+00
        -11   -1    0    0    0    0  0.00000000000E+00  0.00000000000E+00  0.45593999997E+02  0.45594000000E+02  0.51100000000E-03 0. -1.
         11   -1    0    0    0    0 -0.00000000000E+00 -0.00000000000E+00 -0.45593999997E+02  0.45594000000E+02  0.51100000000E-03 0.  1.
    9900012    2    1    2    0    0  0.59725701469E+00  0.38388644218E+02 -0.13383487801E+02  0.50528899339E+02  0.30000120030E+02 0.  0.
        -12    1    1    2    0    0 -0.59725701469E+00 -0.38388644218E+02  0.13383487801E+02  0.40659100661E+02  0.00000000000E+00 0.  1.
         11    1    3    3    0    0  0.10502575253E+02  0.20555535835E+02  0.26796204240E+01  0.23238212201E+02  0.51100000000E-03 0. -1.
        -11    1    3    3    0    0 -0.84714406341E+01  0.11500588475E+02 -0.64077793337E+01  0.15655301911E+02  0.51100000000E-03 0.  1.
         12    1    3    3    0    0 -0.14338776039E+01  0.63325199087E+01 -0.96553288912E+01  0.11635385227E+02  0.00000000000E+00 0. -1.
</event>
<event>
 7    1  0.4963616E-011  0.5052886E+02  0.7816164E-02  0.1300439E+00
        -11   -1    0    0    0    0  0.00000000000E+00  0.00000000000E+00  0.45593999997E+02  0.45594000000E+02  0.51100000000E-03 0. -1.
         11   -1    0    0    0    0 -0.00000000000E+00 -0.00000000000E+00 -0.45593999997E+02  0.45594000000E+02  0.51100000000E-03 0.  1.
    9900012    2    1    2    0    0  0.28200975596E+02 -0.15930548647E+02 -0.24578210277E+02  0.50528858037E+02  0.29999994490E+02 0.  0.
        -12    1    1    2    0    0 -0.28200975596E+02  0.15930548647E+02  0.24578210277E+02  0.40659141963E+02  0.00000000000E+00 0.  1.
         11    1    3    3    0    0  0.24942478597E+02 -0.19587410428E+02 -0.10033704832E+02  0.33263630571E+02  0.51100000000E-03 0. -1.
        -11    1    3    3    0    0  0.19699114267E+01 -0.19473751974E+00 -0.12613907699E+02  0.12768286550E+02  0.51100000000E-03 0.  1.
         12    1    3    3    0    0  0.12885855720E+01  0.38515993005E+01 -0.19305977466E+01  0.44969409166E+01  0.00000000000E+00 0. -1.
</event>
<event>
 7    1  0.4963616E-011  0.5052886E+02  0.7816164E-02  0.1300439E+00
        -11   -1    0    0    0    0  0.00000000000E+00  0.00000000000E+00  0.45593999997E+02  0.45594000000E+02  0.51100000000E-03 0.  1.
         11   -1    0    0    0    0 -0.00000000000E+00 -0.00000000000E+00 -0.45593999997E+02  0.45594000000E+02  0.51100000000E-03 0. -1.
    9900012    2    1    2    0    0 -0.26249157976E+02  0.83736731519E+00 -0.31039431995E+02  0.50528858137E+02  0.29999994795E+02 0.  0.
        -12    1    1    2    0    0  0.26249157976E+02 -0.83736731519E+00  0.31039431995E+02  0.40659141863E+02  0.00000000000E+00 0.  1.
         11    1    3    3    0    0 -0.19242490134E+02  0.65042877646E+01 -0.74220441828E+01  0.21625584986E+02  0.51100000000E-03 0. -1.
        -11    1    3    3    0    0 -0.80973015296E+01 -0.71568985963E+01 -0.87043420369E+01  0.13876348948E+02  0.51100000000E-03 0.  1.
         12    1    3    3    0    0  0.10906336878E+01  0.14899781469E+01 -0.14913045775E+02  0.15026924203E+02  0.00000000000E+00 0. -1.
</event>
<event>
 7    1  0.4963616E-011  0.5052889E+02  0.7816164E-02  0.1300439E+00
        -11   -1    0    0    0    0  0.00000000000E+00  0.00000000000E+00  0.45593999997E+02  0.45594000000E+02  0.51100000000E-03 0.  1.
         11   -1    0    0    0    0 -0.00000000000E+00 -0.00000000000E+00 -0.45593999997E+02  0.45594000000E+02  0.51100000000E-03 0. -1.
    9900012    2    1    2    0    0 -0.38474487947E+02 -0.76602317857E+01  0.10686327567E+02  0.50528893140E+02  0.30000101188E+02 0.  0.
        -12    1    1    2    0    0  0.38474487947E+02  0.76602317857E+01 -0.10686327567E+02  0.40659106860E+02  0.00000000000E+00 0.  1.
         11    1    3    3    0    0 -0.26518172858E+02  0.71231289889E+01 -0.80446196151E+00  0.27469976659E+02  0.51100000000E-03 0. -1.
        -11    1    3    3    0    0 -0.31789288788E+01 -0.80930827869E+01  0.32390906839E+01  0.92787545787E+01  0.51100000000E-03 0.  1.
         12    1    3    3    0    0 -0.87773862097E+01 -0.66902779877E+01  0.82516988450E+01  0.13780161902E+02  0.00000000000E+00 0. -1.
</event>
<event>
 7    1  0.4963616E-011  0.5052885E+02  0.7816164E-02  0.1300439E+00
        -11   -1    0    0    0    0  0.00000000000E+00  0.00000000000E+00  0.45593999997E+02  0.45594000000E+02  0.51100000000E-03 0. -1.
         11   -1    0    0    0    0 -0.00000000000E+00 -0.00000000000E+00 -0.45593999997E+02  0.45594000000E+02  0.51100000000E-03 0.  1.
    9900012    2    1    2    0    0 -0.24988188504E+02 -0.21254750467E+02  0.24020670171E+02  0.50528848784E+02  0.29999966365E+02 0.  0.
        -12    1    1    2    0    0  0.24988188504E+02  0.21254750467E+02 -0.24020670171E+02  0.40659151216E+02  0.00000000000E+00 0.  1.
         11    1    3    3    0    0 -0.42823456775E+01 -0.20911822447E+02  0.12498507719E+02  0.24735713008E+02  0.51100000000E-03 0. -1.
        -11    1    3    3    0    0 -0.12192000760E+01  0.28525216607E+01  0.28977669578E+01  0.42450420791E+01  0.51100000000E-03 0.  1.
         12    1    3    3    0    0 -0.19486642750E+02 -0.31954496805E+01  0.86243954945E+01  0.21548093697E+02  0.00000000000E+00 0. -1.
</event>
<event>
 7    1  0.4963616E-011  0.5052885E+02  0.7816164E-02  0.1300439E+00
        -11   -1    0    0    0    0  0.00000000000E+00  0.00000000000E+00  0.45593999997E+02  0.45594000000E+02  0.51100000000E-03 0.  1.
         11   -1    0    0    0    0 -0.00000000000E+00 -0.00000000000E+00 -0.45593999997E+02  0.45594000000E+02  0.51100000000E-03 0. -1.
    9900012    2    1    2    0    0  0.28390365967E+02 -0.28182891428E+02  0.72717151611E+01  0.50528854776E+02  0.29999984577E+02 0.  0.
        -12    1    1    2    0    0 -0.28390365967E+02  0.28182891428E+02 -0.72717151611E+01  0.40659145224E+02  0.00000000000E+00 0.  1.
         11    1    3    3    0    0 -0.12347567945E+01  0.45272288783E+00  0.56114743701E+01  0.57635255897E+01  0.51100000000E-03 0.  1.
        -11    1    3    3    0    0  0.18186053489E+02 -0.25909717326E+02  0.60224948666E+01  0.32222917902E+02  0.51100000000E-03 0. -1.
         12    1    3    3    0    0  0.11439069272E+02 -0.27258969899E+01 -0.43622540756E+01  0.12542411284E+02  0.00000000000E+00 0. -1.
</event>
<event>
 7    1  0.4963616E-011  0.5052886E+02  0.7816164E-02  0.1300439E+00
        -11   -1    0    0    0    0  0.00000000000E+00  0.00000000000E+00  0.45593999997E+02  0.45594000000E+02  0.51100000000E-03 0. -1.
         11   -1    0    0    0    0 -0.00000000000E+00 -0.00000000000E+00 -0.45593999997E+02  0.45594000000E+02  0.51100000000E-03 0.  1.
    9900012    2    1    2    0    0  0.31156730420E+02 -0.19687124125E+02  0.17170941831E+02  0.50528856500E+02  0.29999989819E+02 0.  0.
        -12    1    1    2    0    0 -0.31156730420E+02  0.19687124125E+02 -0.17170941831E+02  0.40659143500E+02  0.00000000000E+00 0.  1.
         11    1    3    3    0    0  0.71456015612E+01 -0.12612045778E+02  0.11296955978E+02  0.18377827266E+02  0.51100000000E-03 0. -1.
        -11    1    3    3    0    0  0.78376546725E+01  0.46503476754E+01 -0.38983532686E+01  0.99122007010E+01  0.51100000000E-03 0.  1.
         12    1    3    3    0    0  0.16173474186E+02 -0.11725426023E+02  0.97723391214E+01  0.22238828534E+02  0.00000000000E+00 0. -1.
</event>
<event>
 7    1  0.4963616E-011  0.5052886E+02  0.7816164E-02  0.1300439E+00
        -11   -1    0    0    0    0  0.00000000000E+00  0.00000000000E+00  0.45593999997E+02  0.45594000000E+02  0.51100000000E-03 0.  1.
         11   -1    0    0    0    0 -0.00000000000E+00 -0.00000000000E+00 -0.45593999997E+02  0.45594000000E+02  0.51100000000E-03 0. -1.
    9900012    2    1    2    0    0 -0.50914941570E+01 -0.39356174300E+02  0.88506402786E+01  0.50528860786E+02  0.30000002846E+02 0.  0.
        -12    1    1    2    0    0  0.50914941570E+01  0.39356174300E+02 -0.88506402786E+01  0.40659139214E+02  0.00000000000E+00 0.  1.
         11    1    3    3    0    0  0.97287960240E+01 -0.12153537140E+02  0.33373747430E+01  0.15921557949E+02  0.51100000000E-03 0.  1.
        -11    1    3    3    0    0 -0.13514305394E+02 -0.11461536028E+02  0.62629012650E+01  0.18794339332E+02  0.51100000000E-03 0. -1.
         12    1    3    3    0    0 -0.13059847870E+01 -0.15741101131E+02 -0.74963572936E+00  0.15812963505E+02  0.00000000000E+00 0. -1.
</event>
<event>
 7    1  0.4963616E-011  0.5052887E+02  0.7816164E-02  0.1300439E+00
        -11   -1    0    0    0    0  0.00000000000E+00  0.00000000000E+00  0.45593999997E+02  0.45594000000E+02  0.51100000000E-03 0.  1.
         11   -1    0    0    0    0 -0.00000000000E+00 -0.00000000000E+00 -0.45593999997E+02  0.45594000000E+02  0.51100000000E-03 0. -1.
    9900012    2    1    2    0    0  0.16294133943E+02 -0.17009343848E+02 -0.33141340968E+02  0.50528867443E+02  0.30000023081E+02 0.  0.
        -12    1    1    2    0    0 -0.16294133943E+02  0.17009343848E+02  0.33141340968E+02  0.40659132557E+02  0.00000000000E+00 0.  1.
         11    1    3    3    0    0  0.22248616970E+02 -0.14000915373E+02 -0.15325902902E+02  0.30428767448E+02  0.51100000000E-03 0. -1.
        -11    1    3    3    0    0 -0.19632088609E+01  0.13715856477E+01 -0.10053043033E+02  0.10334365520E+02  0.51100000000E-03 0.  1.
         12    1    3    3    0    0 -0.39912741667E+01 -0.43800141227E+01 -0.77623950338E+01  0.97657344757E+01  0.00000000000E+00 0. -1.
</event>
<event>
 7    1  0.4963616E-011  0.5052883E+02  0.7816164E-02  0.1300439E+00
        -11   -1    0    0    0    0  0.00000000000E+00  0.00000000000E+00  0.45593999997E+02  0.45594000000E+02  0.51100000000E-03 0.  1.
         11   -1    0    0    0    0 -0.00000000000E+00 -0.00000000000E+00 -0.45593999997E+02  0.45594000000E+02  0.51100000000E-03 0. -1.
    9900012    2    1    2    0    0 -0.29860651725E+02  0.16654090933E+02 -0.22003422434E+02  0.50528832952E+02  0.29999918241E+02 0.  0.
        -12    1    1    2    0    0  0.29860651725E+02 -0.16654090933E+02  0.22003422434E+02  0.40659167048E+02  0.00000000000E+00 0.  1.
         11    1    3    3    0    0 -0.14378031343E+02  0.88876429274E+01 -0.11649522208E+02  0.20528744483E+02  0.51100000000E-03 0. -1.
        -11    1    3    3    0    0 -0.10931615596E+02  0.89729201317E+01  0.41599057847E+01  0.14741720783E+02  0.51100000000E-03 0.  1.
        -12    1    3    3    0    0 -0.45510047858E+01 -0.12064721266E+01 -0.14513806010E+02  0.15258367686E+02  0.00000000000E+00 0.  1.
</event>
<event>
 7    1  0.4963616E-011  0.5052888E+02  0.7816164E-02  0.1300439E+00
        -11   -1    0    0    0    0  0.00000000000E+00  0.00000000000E+00  0.45593999997E+02  0.45594000000E+02  0.51100000000E-03 0.  1.
         11   -1    0    0    0    0 -0.00000000000E+00 -0.00000000000E+00 -0.45593999997E+02  0.45594000000E+02  0.51100000000E-03 0. -1.
    9900012    2    1    2    0    0  0.23608178492E+02 -0.27523002927E+02 -0.18392996279E+02  0.50528879327E+02  0.30000059202E+02 0.  0.
        -12    1    1    2    0    0 -0.23608178492E+02  0.27523002927E+02  0.18392996279E+02  0.40659120673E+02  0.00000000000E+00 0.  1.
         11    1    3    3    0    0  0.59864894621E+01  0.13610524750E+01 -0.70571314392E+01  0.93538026669E+01  0.51100000000E-03 0. -1.
        -11    1    3    3    0    0  0.17830371919E+02 -0.21964912275E+02 -0.47402545033E+00  0.28294950688E+02  0.51100000000E-03 0.  1.
        -12    1    3    3    0    0 -0.20868288915E+00 -0.69191431260E+01 -0.10861839389E+02  0.12880125972E+02  0.00000000000E+00 0.  1.
</event>
<event>
 7    1  0.4963616E-011  0.5052885E+02  0.7816164E-02  0.1300439E+00
        -11   -1    0    0    0    0  0.00000000000E+00  0.00000000000E+00  0.45593999997E+02  0.45594000000E+02  0.51100000000E-03 0. -1.
         11   -1    0    0    0    0 -0.00000000000E+00 -0.00000000000E+00 -0.45593999997E+02  0.45594000000E+02  0.51100000000E-03 0.  1.
    9900012    2    1    2    0    0 -0.36028955567E+02 -0.10642436302E+02  0.15550541374E+02  0.50528850640E+02  0.29999972004E+02 0.  0.
        -12    1    1    2    0    0  0.36028955567E+02  0.10642436302E+02 -0.15550541374E+02  0.40659149360E+02  0.00000000000E+00 0.  1.
         11    1    3    3    0    0 -0.30556947826E+02 -0.18727949298E+02  0.17862531171E+02  0.40044140213E+02  0.51100000000E-03 0. -1.
        -11    1    3    3    0    0 -0.82969782285E+00  0.36264792928E+01 -0.14392738295E+01  0.39888920712E+01  0.51100000000E-03 0.  1.
         12    1    3    3    0    0 -0.46423099183E+01  0.44590337028E+01 -0.87271596786E+00  0.64958183550E+01  0.00000000000E+00 0. -1.
</event>
<event>
 7    1  0.4963616E-011  0.5052886E+02  0.7816164E-02  0.1300439E+00
        -11   -1    0    0    0    0  0.00000000000E+00  0.00000000000E+00  0.45593999997E+02  0.45594000000E+02  0.51100000000E-03 0. -1.
         11   -1    0    0    0    0 -0.00000000000E+00 -0.00000000000E+00 -0.45593999997E+02  0.45594000000E+02  0.51100000000E-03 0.  1.
    9900012    2    1    2    0    0 -0.21606849425E+02 -0.33521710596E+02 -0.79123058090E+01  0.50528860726E+02  0.30000002662E+02 0.  0.
        -12    1    1    2    0    0  0.21606849425E+02  0.33521710596E+02  0.79123058090E+01  0.40659139274E+02  0.00000000000E+00 0.  1.
         11    1    3    3    0    0 -0.11214747910E+02 -0.56488323295E+01  0.87910383757E+01  0.15328477855E+02  0.51100000000E-03 0. -1.
        -11    1    3    3    0    0 -0.40877185921E+01 -0.15154362770E+02 -0.13371249109E+02  0.20619273926E+02  0.51100000000E-03 0.  1.
         12    1    3    3    0    0 -0.63043829227E+01 -0.12718515496E+02 -0.33320950761E+01  0.14581108944E+02  0.00000000000E+00 0. -1.
</event>
<event>
 7    1  0.4963616E-011  0.5052889E+02  0.7816164E-02  0.1300439E+00
        -11   -1    0    0    0    0  0.00000000000E+00  0.00000000000E+00  0.45593999997E+02  0.45594000000E+02  0.51100000000E-03 0.  1.
         11   -1    0    0    0    0 -0.00000000000E+00 -0.00000000000E+00 -0.45593999997E+02  0.45594000000E+02  0.51100000000E-03 0. -1.
    9900012    2    1    2    0    0  0.28396342710E+01  0.27872738714E+02 -0.29465412161E+02  0.50528885400E+02  0.30000077663E+02 0.  0.
        -12    1    1    2    0    0 -0.28396342710E+01 -0.27872738714E+02  0.29465412161E+02  0.40659114600E+02  0.00000000000E+00 0.  1.
         11    1    3    3    0    0  0.11247344532E+02  0.56546843552E+01 -0.23846417388E+01  0.12812678512E+02  0.51100000000E-03 0. -1.
        -11    1    3    3    0    0 -0.47697116105E+01  0.12550083925E+01 -0.59693849266E+01  0.77433036603E+01  0.51100000000E-03 0.  1.
         12    1    3    3    0    0 -0.36379986505E+01  0.20963045966E+02 -0.21111385496E+02  0.29972903228E+02  0.00000000000E+00 0. -1.
</event>
<event>
 7    1  0.4963616E-011  0.5052883E+02  0.7816164E-02  0.1300439E+00
        -11   -1    0    0    0    0  0.00000000000E+00  0.00000000000E+00  0.45593999997E+02  0.45594000000E+02  0.51100000000E-03 0. -1.
         11   -1    0    0    0    0 -0.00000000000E+00 -0.00000000000E+00 -0.45593999997E+02  0.45594000000E+02  0.51100000000E-03 0.  1.
    9900012    2    1    2    0    0  0.16821279079E+01 -0.23359785828E+02  0.33236414053E+02  0.50528826775E+02  0.29999899466E+02 0.  0.
        -12    1    1    2    0    0 -0.16821279079E+01  0.23359785828E+02 -0.33236414053E+02  0.40659173225E+02  0.00000000000E+00 0.  1.
         11    1    3    3    0    0 -0.12656898744E+01 -0.19954615461E+02  0.28315988787E+02  0.34663869811E+02  0.51100000000E-03 0. -1.
        -11    1    3    3    0    0 -0.54889733510E+01 -0.27135069935E+01  0.10062546628E+00  0.61238937284E+01  0.51100000000E-03 0.  1.
         12    1    3    3    0    0  0.84367911332E+01 -0.69166337362E+00  0.48197997997E+01  0.97410632355E+01  0.00000000000E+00 0. -1.
</event>
<event>
 7    1  0.4963616E-011  0.5052887E+02  0.7816164E-02  0.1300439E+00
        -11   -1    0    0    0    0  0.00000000000E+00  0.00000000000E+00  0.45593999997E+02  0.45594000000E+02  0.51100000000E-03 0. -1.
         11   -1    0    0    0    0 -0.00000000000E+00 -0.00000000000E+00 -0.45593999997E+02  0.45594000000E+02  0.51100000000E-03 0.  1.
    9900012    2    1    2    0    0  0.15849957668E+02  0.28930095639E+02  0.23769592747E+02  0.50528866572E+02  0.30000020432E+02 0.  0.
        -12    1    1    2    0    0 -0.15849957668E+02 -0.28930095639E+02 -0.23769592747E+02  0.40659133428E+02  0.00000000000E+00 0.  1.
         11    1    3    3    0    0  0.69525391555E+01  0.10095521287E+02 -0.26886106029E+01  0.12549341735E+02  0.51100000000E-03 0. -1.
        -11    1    3    3    0    0 -0.18771990267E+01 -0.25074340009E+01  0.47316234237E+01  0.56744481617E+01  0.51100000000E-03 0.  1.
         12    1    3    3    0    0  0.10774617539E+02  0.21342008353E+02  0.21726579926E+02  0.32305076675E+02  0.00000000000E+00 0. -1.
</event>
<event>
 7    1  0.4963616E-011  0.5052887E+02  0.7816164E-02  0.1300439E+00
        -11   -1    0    0    0    0  0.00000000000E+00  0.00000000000E+00  0.45593999997E+02  0.45594000000E+02  0.51100000000E-03 0.  1.
         11   -1    0    0    0    0 -0.00000000000E+00 -0.00000000000E+00 -0.45593999997E+02  0.45594000000E+02  0.51100000000E-03 0. -1.
    9900012    2    1    2    0    0  0.18308399552E+02  0.32030022863E+02 -0.17089324108E+02  0.50528869940E+02  0.30000030669E+02 0.  0.
        -12    1    1    2    0    0 -0.18308399552E+02 -0.32030022863E+02  0.17089324108E+02  0.40659130060E+02  0.00000000000E+00 0.  1.
         11    1    3    3    0    0 -0.31711929928E+00 -0.13319309354E+01 -0.50216645315E+00  0.14583470350E+01  0.51100000000E-03 0. -1.
        -11    1    3    3    0    0  0.99928223917E+01  0.35834373690E+02 -0.13255701775E+02  0.39492688778E+02  0.51100000000E-03 0.  1.
        -12    1    3    3    0    0  0.86326964593E+01 -0.24724198916E+01 -0.33314558797E+01  0.95778341266E+01  0.00000000000E+00 0.  1.
</event>
<event>
 7    1  0.4963616E-011  0.5052886E+02  0.7816164E-02  0.1300439E+00
        -11   -1    0    0    0    0  0.00000000000E+00  0.00000000000E+00  0.45593999997E+02  0.45594000000E+02  0.51100000000E-03 0.  1.
         11   -1    0    0    0    0 -0.00000000000E+00 -0.00000000000E+00 -0.45593999997E+02  0.45594000000E+02  0.51100000000E-03 0. -1.
    9900012    2    1    2    0    0  0.37432109890E+02 -0.10308575924E+02  0.12072109004E+02  0.50528863214E+02  0.30000010224E+02 0.  0.
        -12    1    1    2    0    0 -0.37432109890E+02  0.10308575924E+02 -0.12072109004E+02  0.40659136786E+02  0.00000000000E+00 0.  1.
         11    1    3    3    0    0  0.36003560696E+02 -0.31752059995E+01  0.43376165938E+01  0.36402654215E+02  0.51100000000E-03 0. -1.
        -11    1    3    3    0    0 -0.25821696721E+01 -0.11974567227E+01  0.61680173294E+01  0.67930803657E+01  0.51100000000E-03 0.  1.
         12    1    3    3    0    0  0.40107188661E+01 -0.59359132019E+01  0.15664750811E+01  0.73331286327E+01  0.00000000000E+00 0. -1.
</event>
<event>
 7    1  0.4963616E-011  0.5052887E+02  0.7816164E-02  0.1300439E+00
        -11   -1    0    0    0    0  0.00000000000E+00  0.00000000000E+00  0.45593999997E+02  0.45594000000E+02  0.51100000000E-03 0. -1.
         11   -1    0    0    0    0 -0.00000000000E+00 -0.00000000000E+00 -0.45593999997E+02  0.45594000000E+02  0.51100000000E-03 0.  1.
    9900012    2    1    2    0    0 -0.23564362305E+02 -0.47822322744E+01  0.32787439920E+02  0.50528866551E+02  0.30000020368E+02 0.  0.
        -12    1    1    2    0    0  0.23564362305E+02  0.47822322744E+01 -0.32787439920E+02  0.40659133449E+02  0.00000000000E+00 0.  1.
         11    1    3    3    0    0  0.15154248153E+01 -0.11668780586E+01  0.20426875768E+02  0.20516222134E+02  0.51100000000E-03 0. -1.
        -11    1    3    3    0    0 -0.70806994604E+01  0.12989528803E+01 -0.70735628972E+00  0.72335286421E+01  0.51100000000E-03 0.  1.
         12    1    3    3    0    0 -0.17999087659E+02 -0.49143070961E+01  0.13067920442E+02  0.22779115775E+02  0.00000000000E+00 0. -1.
</event>
<event>
 7    1  0.4963616E-011  0.5052886E+02  0.7816164E-02  0.1300439E+00
        -11   -1    0    0    0    0  0.00000000000E+00  0.00000000000E+00  0.45593999997E+02  0.45594000000E+02  0.51100000000E-03 0. -1.
         11   -1    0    0    0    0 -0.00000000000E+00 -0.00000000000E+00 -0.45593999997E+02  0.45594000000E+02  0.51100000000E-03 0.  1.
    9900012    2    1    2    0    0  0.21544561980E+02 -0.23563902389E+02  0.25174199043E+02  0.50528856574E+02  0.29999990041E+02 0.  0.
        -12    1    1    2    0    0 -0.21544561980E+02  0.23563902389E+02 -0.25174199043E+02  0.40659143426E+02  0.00000000000E+00 0.  1.
         11    1    3    3    0    0  0.26221529693E+02 -0.11301266776E+02  0.12428869560E+02  0.31141034809E+02  0.51100000000E-03 0. -1.
        -11    1    3    3    0    0 -0.49395826061E+00 -0.56950524058E+01  0.18743551704E+01  0.60158810024E+01  0.51100000000E-03 0.  1.
         12    1    3    3    0    0 -0.41830094517E+01 -0.65675832072E+01  0.10870974312E+02  0.13371940762E+02  0.00000000000E+00 0. -1.
</event>
<event>
 7    1  0.4963616E-011  0.5052887E+02  0.7816164E-02  0.1300439E+00
        -11   -1    0    0    0    0  0.00000000000E+00  0.00000000000E+00  0.45593999997E+02  0.45594000000E+02  0.51100000000E-03 0.  1.
         11   -1    0    0    0    0 -0.00000000000E+00 -0.00000000000E+00 -0.45593999997E+02  0.45594000000E+02  0.51100000000E-03 0. -1.
    9900012    2    1    2    0    0  0.26677718012E+02  0.26826136869E+02  0.14893716176E+02  0.50528867703E+02  0.30000023869E+02 0.  0.
        -12    1    1    2    0    0 -0.26677718012E+02 -0.26826136869E+02 -0.14893716176E+02  0.40659132297E+02  0.00000000000E+00 0.  1.
         11    1    3    3    0    0  0.29113334551E+02  0.22330297223E+02  0.15228326806E+02  0.39725688922E+02  0.51100000000E-03 0. -1.
        -11    1    3    3    0    0 -0.37065274251E+01  0.11674699235E+01  0.37380719607E+01  0.53920788032E+01  0.51100000000E-03 0.  1.
        -12    1    3    3    0    0  0.12709108858E+01  0.33283697216E+01 -0.40726825901E+01  0.54110999772E+01  0.00000000000E+00 0.  1.
</event>
<event>
 7    1  0.4963616E-011  0.5052884E+02  0.7816164E-02  0.1300439E+00
        -11   -1    0    0    0    0  0.00000000000E+00  0.00000000000E+00  0.45593999997E+02  0.45594000000E+02  0.51100000000E-03 0.  1.
         11   -1    0    0    0    0 -0.00000000000E+00 -0.00000000000E+00 -0.45593999997E+02  0.45594000000E+02  0.51100000000E-03 0. -1.
    9900012    2    1    2    0    0  0.31964749931E+02  0.56300248149E+01 -0.24489277173E+02  0.50528842187E+02  0.29999946313E+02 0.  0.
        -12    1    1    2    0    0 -0.31964749931E+02 -0.56300248149E+01  0.24489277173E+02  0.40659157813E+02  0.00000000000E+00 0.  1.
         11    1    3    3    0    0  0.72062564810E+00  0.86898119459E+00 -0.18540274257E+01  0.21706790637E+01  0.51100000000E-03 0. -1.
        -11    1    3    3    0    0  0.12822746925E+02  0.13356292262E+02 -0.20951944910E+02  0.27960639790E+02  0.51100000000E-03 0.  1.
        -12    1    3    3    0    0  0.18421377358E+02 -0.85952486416E+01 -0.16833048375E+01  0.20397523334E+02  0.00000000000E+00 0.  1.
</event>
<event>
 7    1  0.4963616E-011  0.5052886E+02  0.7816164E-02  0.1300439E+00
        -11   -1    0    0    0    0  0.00000000000E+00  0.00000000000E+00  0.45593999997E+02  0.45594000000E+02  0.51100000000E-03 0.  1.
         11   -1    0    0    0    0 -0.00000000000E+00 -0.00000000000E+00 -0.45593999997E+02  0.45594000000E+02  0.51100000000E-03 0. -1.
    9900012    2    1    2    0    0  0.30114334585E+02 -0.22174383148E+02 -0.15955852555E+02  0.50528860237E+02  0.30000001177E+02 0.  0.
        -12    1    1    2    0    0 -0.30114334585E+02  0.22174383148E+02  0.15955852555E+02  0.40659139763E+02  0.00000000000E+00 0.  1.
         11    1    3    3    0    0  0.32247576613E+02 -0.24570360649E+02 -0.15491851664E+02  0.43400533269E+02  0.51100000000E-03 0. -1.
        -11    1    3    3    0    0  0.24668666395E+00 -0.20529318746E+01 -0.12538292035E+00  0.20714981848E+01  0.51100000000E-03 0.  1.
         12    1    3    3    0    0 -0.23799286919E+01  0.44489093757E+01 -0.33861797097E+00  0.50568287831E+01  0.00000000000E+00 0. -1.
</event>
<event>
 7    1  0.4963616E-011  0.5052886E+02  0.7816164E-02  0.1300439E+00
        -11   -1    0    0    0    0  0.00000000000E+00  0.00000000000E+00  0.45593999997E+02  0.45594000000E+02  0.51100000000E-03 0.  1.
         11   -1    0    0    0    0 -0.00000000000E+00 -0.00000000000E+00 -0.45593999997E+02  0.45594000000E+02  0.51100000000E-03 0. -1.
    9900012    2    1    2    0    0  0.22260130450E+02 -0.11641461937E+02 -0.31970742875E+02  0.50528862729E+02  0.30000008750E+02 0.  0.
        -12    1    1    2    0    0 -0.22260130450E+02  0.11641461937E+02  0.31970742875E+02  0.40659137271E+02  0.00000000000E+00 0.  1.
         11    1    3    3    0    0 -0.21239333936E+01 -0.10334703877E+02 -0.89282380322E+01  0.13821383140E+02  0.51100000000E-03 0. -1.
        -11    1    3    3    0    0  0.15737375026E+02  0.44272204725E+01 -0.20128066181E+02  0.25930759771E+02  0.51100000000E-03 0.  1.
        -12    1    3    3    0    0  0.86466888172E+01 -0.57339785330E+01 -0.29144386613E+01  0.10776719818E+02  0.00000000000E+00 0.  1.
</event>
<event>
 7    1  0.4963616E-011  0.5052885E+02  0.7816164E-02  0.1300439E+00
        -11   -1    0    0    0    0  0.00000000000E+00  0.00000000000E+00  0.45593999997E+02  0.45594000000E+02  0.51100000000E-03 0.  1.
         11   -1    0    0    0    0 -0.00000000000E+00 -0.00000000000E+00 -0.45593999997E+02  0.45594000000E+02  0.51100000000E-03 0. -1.
    9900012    2    1    2    0    0  0.39703631037E+02 -0.60834903256E+01 -0.63070647266E+01  0.50528852966E+02  0.29999979077E+02 0.  0.
        -12    1    1    2    0    0 -0.39703631037E+02  0.60834903256E+01  0.63070647266E+01  0.40659147034E+02  0.00000000000E+00 0.  1.
         11    1    3    3    0    0  0.29415878871E+02  0.31188430750E+01 -0.31422834126E+01  0.29747185702E+02  0.51100000000E-03 0. -1.
        -11    1    3    3    0    0  0.77660921657E+01 -0.11093455158E+02 -0.74549198697E+01  0.15458097082E+02  0.51100000000E-03 0.  1.
        -12    1    3    3    0    0  0.25216599999E+01  0.18911217579E+01  0.42901385557E+01  0.53235701822E+01  0.00000000000E+00 0.  1.
</event>
<event>
 7    1  0.4963616E-011  0.5052887E+02  0.7816164E-02  0.1300439E+00
        -11   -1    0    0    0    0  0.00000000000E+00  0.00000000000E+00  0.45593999997E+02  0.45594000000E+02  0.51100000000E-03 0.  1.
         11   -1    0    0    0    0 -0.00000000000E+00 -0.00000000000E+00 -0.45593999997E+02  0.45594000000E+02  0.51100000000E-03 0. -1.
    9900012    2    1    2    0    0  0.12209048110E+01 -0.12171564023E+02 -0.38775348032E+02  0.50528865795E+02  0.30000018069E+02 0.  0.
        -12    1    1    2    0    0 -0.12209048110E+01  0.12171564023E+02  0.38775348032E+02  0.40659134205E+02  0.00000000000E+00 0.  1.
         11    1    3    3    0    0  0.12175360790E+02 -0.10407247546E+02 -0.22228551355E+02  0.27398151533E+02  0.51100000000E-03 0. -1.
        -11    1    3    3    0    0  0.19214302822E+00  0.27249801153E+01 -0.78091354825E+01  0.82731513232E+01  0.51100000000E-03 0.  1.
         12    1    3    3    0    0 -0.11146599007E+02 -0.44892965925E+01 -0.87376611945E+01  0.14857562938E+02  0.00000000000E+00 0. -1.
</event>
<event>
 7    1  0.4963616E-011  0.5052886E+02  0.7816164E-02  0.1300439E+00
        -11   -1    0    0    0    0  0.00000000000E+00  0.00000000000E+00  0.45593999997E+02  0.45594000000E+02  0.51100000000E-03 0.  1.
         11   -1    0    0    0    0 -0.00000000000E+00 -0.00000000000E+00 -0.45593999997E+02  0.45594000000E+02  0.51100000000E-03 0. -1.
    9900012    2    1    2    0    0  0.22559465694E+02  0.20136706551E+02 -0.27179942169E+02  0.50528859583E+02  0.29999999189E+02 0.  0.
        -12    1    1    2    0    0 -0.22559465694E+02 -0.20136706551E+02  0.27179942169E+02  0.40659140417E+02  0.00000000000E+00 0.  1.
         11    1    3    3    0    0  0.34057602477E+01  0.99658474989E+01 -0.23952442600E+02  0.26165565654E+02  0.51100000000E-03 0. -1.
        -11    1    3    3    0    0  0.15760901017E+02  0.43056596365E+01  0.10132288263E+01  0.16369830137E+02  0.51100000000E-03 0.  1.
        -12    1    3    3    0    0  0.33928044290E+01  0.58651994159E+01 -0.42407283951E+01  0.79934637926E+01  0.00000000000E+00 0.  1.
</event>
<event>
 7    1  0.4963616E-011  0.5052886E+02  0.7816164E-02  0.1300439E+00
        -11   -1    0    0    0    0  0.00000000000E+00  0.00000000000E+00  0.45593999997E+02  0.45594000000E+02  0.51100000000E-03 0. -1.
         11   -1    0    0    0    0 -0.00000000000E+00 -0.00000000000E+00 -0.45593999997E+02  0.45594000000E+02  0.51100000000E-03 0.  1.
    9900012    2    1    2    0    0 -0.34858370480E+02  0.67169928229E+01  0.19822758191E+02  0.50528859239E+02  0.29999998144E+02 0.  0.
        -12    1    1    2    0    0  0.34858370480E+02 -0.67169928229E+01 -0.19822758191E+02  0.40659140761E+02  0.00000000000E+00 0.  1.
         11    1    3    3    0    0 -0.94675267084E+01 -0.10385156423E+02  0.95844165783E+01  0.17010190396E+02  0.51100000000E-03 0.  1.
        -11    1    3    3    0    0 -0.20367319905E+02  0.13102185183E+02  0.11756076140E+02  0.26920258230E+02  0.51100000000E-03 0. -1.
        -12    1    3    3    0    0 -0.50235238662E+01  0.39999640623E+01 -0.15177345268E+01  0.65984106138E+01  0.00000000000E+00 0.  1.
</event>
<event>
 7    1  0.4963616E-011  0.5052886E+02  0.7816164E-02  0.1300439E+00
        -11   -1    0    0    0    0  0.00000000000E+00  0.00000000000E+00  0.45593999997E+02  0.45594000000E+02  0.51100000000E-03 0.  1.
         11   -1    0    0    0    0 -0.00000000000E+00 -0.00000000000E+00 -0.45593999997E+02  0.45594000000E+02  0.51100000000E-03 0. -1.
    9900012    2    1    2    0    0 -0.22145380923E+02 -0.33987080973E+02  0.27615943939E+01  0.50528856221E+02  0.29999988968E+02 0.  0.
        -12    1    1    2    0    0  0.22145380923E+02  0.33987080973E+02 -0.27615943939E+01  0.40659143779E+02  0.00000000000E+00 0.  1.
         11    1    3    3    0    0  0.18501340127E+01 -0.45494817639E+01 -0.26958110164E+00  0.49186842159E+01  0.51100000000E-03 0. -1.
        -11    1    3    3    0    0 -0.14479371431E+02 -0.33739713162E+01  0.87913464522E+01  0.17272048292E+02  0.51100000000E-03 0.  1.
        -12    1    3    3    0    0 -0.95161435045E+01 -0.26063627893E+02 -0.57601709567E+01  0.28338123713E+02  0.00000000000E+00 0.  1.
</event>
<event>
 7    1  0.4963616E-011  0.5052886E+02  0.7816164E-02  0.1300439E+00
        -11   -1    0    0    0    0  0.00000000000E+00  0.00000000000E+00  0.45593999997E+02  0.45594000000E+02  0.51100000000E-03 0.  1.
         11   -1    0    0    0    0 -0.00000000000E+00 -0.00000000000E+00 -0.45593999997E+02  0.45594000000E+02  0.51100000000E-03 0. -1.
    9900012    2    1    2    0    0  0.16495237029E+01  0.98932278214E+01 -0.39402651659E+02  0.50528857819E+02  0.29999993825E+02 0.  0.
        -12    1    1    2    0    0 -0.16495237029E+01 -0.98932278214E+01  0.39402651659E+02  0.40659142181E+02  0.00000000000E+00 0.  1.
         11    1    3    3    0    0 -0.29491199151E+01  0.90879929127E+01 -0.29417226134E+02  0.30929955013E+02  0.51100000000E-03 0. -1.
        -11    1    3    3    0    0 -0.53959023181E+01 -0.21378639385E+01 -0.11034476998E+01  0.59079455933E+01  0.51100000000E-03 0.  1.
         12    1    3    3    0    0  0.99945459360E+01  0.29430988472E+01 -0.88819778255E+01  0.13690957212E+02  0.00000000000E+00 0. -1.
</event>
<event>
 7    1  0.4963616E-011  0.5052885E+02  0.7816164E-02  0.1300439E+00
        -11   -1    0    0    0    0  0.00000000000E+00  0.00000000000E+00  0.45593999997E+02  0.45594000000E+02  0.51100000000E-03 0.  1.
         11   -1    0    0    0    0 -0.00000000000E+00 -0.00000000000E+00 -0.45593999997E+02  0.45594000000E+02  0.51100000000E-03 0. -1.
    9900012    2    1    2    0    0  0.44383792915E+01  0.36930082248E+02 -0.16420600166E+02  0.50528852254E+02  0.29999976912E+02 0.  0.
        -12    1    1    2    0    0 -0.44383792915E+01 -0.36930082248E+02  0.16420600166E+02  0.40659147746E+02  0.00000000000E+00 0.  1.
         11    1    3    3    0    0  0.61910066172E+00  0.10487088303E+02 -0.12462741486E+02  0.16299761725E+02  0.51100000000E-03 0. -1.
        -11    1    3    3    0    0 -0.36760451889E+00  0.94120595078E+01  0.85234190924E+01  0.12703175609E+02  0.51100000000E-03 0.  1.
        -12    1    3    3    0    0  0.41868831487E+01  0.17030934438E+02 -0.12481277773E+02  0.21525914920E+02  0.00000000000E+00 0.  1.
</event>
<event>
 7    1  0.4963616E-011  0.5052886E+02  0.7816164E-02  0.1300439E+00
        -11   -1    0    0    0    0  0.00000000000E+00  0.00000000000E+00  0.45593999997E+02  0.45594000000E+02  0.51100000000E-03 0.  1.
         11   -1    0    0    0    0 -0.00000000000E+00 -0.00000000000E+00 -0.45593999997E+02  0.45594000000E+02  0.51100000000E-03 0. -1.
    9900012    2    1    2    0    0 -0.30525910517E+02  0.19430229970E+02 -0.18541859606E+02  0.50528860717E+02  0.30000002635E+02 0.  0.
        -12    1    1    2    0    0  0.30525910517E+02 -0.19430229970E+02  0.18541859606E+02  0.40659139283E+02  0.00000000000E+00 0.  1.
         11    1    3    3    0    0 -0.29257035698E+02  0.11212219848E+02 -0.13394782509E+02  0.34075037938E+02  0.51100000000E-03 0. -1.
        -11    1    3    3    0    0  0.49048983089E+01  0.13937285527E+01 -0.51556658685E+01  0.72513031593E+01  0.51100000000E-03 0.  1.
        -12    1    3    3    0    0 -0.61737731287E+01  0.68242815694E+01  0.85887716178E-02  0.92025196196E+01  0.00000000000E+00 0.  1.
</event>
<event>
 7    1  0.4963616E-011  0.5052886E+02  0.7816164E-02  0.1300439E+00
        -11   -1    0    0    0    0  0.00000000000E+00  0.00000000000E+00  0.45593999997E+02  0.45594000000E+02  0.51100000000E-03 0. -1.
         11   -1    0    0    0    0 -0.00000000000E+00 -0.00000000000E+00 -0.45593999997E+02  0.45594000000E+02  0.51100000000E-03 0.  1.
    9900012    2    1    2    0    0  0.15827318397E+02  0.33988842640E+02  0.15729597940E+02  0.50528859785E+02  0.29999999804E+02 0.  0.
        -12    1    1    2    0    0 -0.15827318397E+02 -0.33988842640E+02 -0.15729597940E+02  0.40659140215E+02  0.00000000000E+00 0.  1.
         11    1    3    3    0    0  0.17147534500E+02  0.25972497324E+02  0.10073944260E+01  0.31138776477E+02  0.51100000000E-03 0. -1.
        -11    1    3    3    0    0  0.16121192423E+01  0.58831964890E+01  0.14530347447E+02  0.15758868188E+02  0.51100000000E-03 0.  1.
         12    1    3    3    0    0 -0.29323353462E+01  0.21331488268E+01  0.19185606719E+00  0.36312151203E+01  0.00000000000E+00 0. -1.
</event>
<event>
 7    1  0.4963616E-011  0.5052886E+02  0.7816164E-02  0.1300439E+00
        -11   -1    0    0    0    0  0.00000000000E+00  0.00000000000E+00  0.45593999997E+02  0.45594000000E+02  0.51100000000E-03 0.  1.
         11   -1    0    0    0    0 -0.00000000000E+00 -0.00000000000E+00 -0.45593999997E+02  0.45594000000E+02  0.51100000000E-03 0. -1.
    9900012    2    1    2    0    0 -0.29459873440E+02  0.21158077878E+02 -0.18374359038E+02  0.50528862372E+02  0.30000007665E+02 0.  0.
        -12    1    1    2    0    0  0.29459873440E+02 -0.21158077878E+02  0.18374359038E+02  0.40659137628E+02  0.00000000000E+00 0.  1.
         11    1    3    3    0    0 -0.14182582247E+02  0.11510039902E+02  0.35689637593E+01  0.18610861353E+02  0.51100000000E-03 0. -1.
        -11    1    3    3    0    0  0.25135418327E+00  0.65355776947E+01 -0.10532225225E+02  0.12397770896E+02  0.51100000000E-03 0.  1.
        -12    1    3    3    0    0 -0.15528645377E+02  0.31124602810E+01 -0.11411097572E+02  0.19520230123E+02  0.00000000000E+00 0.  1.
</event>
<event>
 7    1  0.4963616E-011  0.5052886E+02  0.7816164E-02  0.1300439E+00
        -11   -1    0    0    0    0  0.00000000000E+00  0.00000000000E+00  0.45593999997E+02  0.45594000000E+02  0.51100000000E-03 0.  1.
         11   -1    0    0    0    0 -0.00000000000E+00 -0.00000000000E+00 -0.45593999997E+02  0.45594000000E+02  0.51100000000E-03 0. -1.
    9900012    2    1    2    0    0  0.56104181813E+01  0.40197059102E+02  0.24259593772E+01  0.50528860419E+02  0.30000001729E+02 0.  0.
        -12    1    1    2    0    0 -0.56104181813E+01 -0.40197059102E+02 -0.24259593772E+01  0.40659139581E+02  0.00000000000E+00 0.  1.
         11    1    3    3    0    0 -0.75106463533E+00 -0.20400263314E+01 -0.39793262079E+01  0.45344065598E+01  0.51100000000E-03 0. -1.
        -11    1    3    3    0    0 -0.49670674688E+01  0.16417478265E+02  0.34976359219E+00  0.17155981076E+02  0.51100000000E-03 0.  1.
         12    1    3    3    0    0  0.11328550285E+02  0.25819607168E+02  0.60555219929E+01  0.28838472783E+02  0.00000000000E+00 0. -1.
</event>
<event>
 7    1  0.4963616E-011  0.5052886E+02  0.7816164E-02  0.1300439E+00
        -11   -1    0    0    0    0  0.00000000000E+00  0.00000000000E+00  0.45593999997E+02  0.45594000000E+02  0.51100000000E-03 0. -1.
         11   -1    0    0    0    0 -0.00000000000E+00 -0.00000000000E+00 -0.45593999997E+02  0.45594000000E+02  0.51100000000E-03 0.  1.
    9900012    2    1    2    0    0  0.38310515479E+02 -0.12461769887E+02  0.54931271170E+01  0.50528858955E+02  0.29999997279E+02 0.  0.
        -12    1    1    2    0    0 -0.38310515479E+02  0.12461769887E+02 -0.54931271170E+01  0.40659141045E+02  0.00000000000E+00 0.  1.
         11    1    3    3    0    0  0.23125246643E+02 -0.17246685666E+01 -0.49076895651E+00  0.23194662498E+02  0.51100000000E-03 0. -1.
        -11    1    3    3    0    0 -0.18821725467E+01 -0.62448060850E+01 -0.33898205386E+01  0.73505822953E+01  0.51100000000E-03 0.  1.
         12    1    3    3    0    0  0.17067441383E+02 -0.44922952355E+01  0.93737166120E+01  0.19983614162E+02  0.00000000000E+00 0. -1.
</event>
<event>
 7    1  0.4963616E-011  0.5052885E+02  0.7816164E-02  0.1300439E+00
        -11   -1    0    0    0    0  0.00000000000E+00  0.00000000000E+00  0.45593999997E+02  0.45594000000E+02  0.51100000000E-03 0.  1.
         11   -1    0    0    0    0 -0.00000000000E+00 -0.00000000000E+00 -0.45593999997E+02  0.45594000000E+02  0.51100000000E-03 0. -1.
    9900012    2    1    2    0    0 -0.27708852650E+02 -0.17258673677E+02 -0.24238889291E+02  0.50528854825E+02  0.29999984726E+02 0.  0.
        -12    1    1    2    0    0  0.27708852650E+02  0.17258673677E+02  0.24238889291E+02  0.40659145175E+02  0.00000000000E+00 0.  1.
         11    1    3    3    0    0 -0.14184717482E+02 -0.12766175655E+02 -0.13588093436E+02  0.23426859251E+02  0.51100000000E-03 0. -1.
        -11    1    3    3    0    0  0.46329130130E+01  0.23401562026E+01 -0.52103145723E+00  0.52164823472E+01  0.51100000000E-03 0.  1.
        -12    1    3    3    0    0 -0.18157048182E+02 -0.68326542255E+01 -0.10129764398E+02  0.21885513227E+02  0.00000000000E+00 0.  1.
</event>
<event>
 7    1  0.4963616E-011  0.5052886E+02  0.7816164E-02  0.1300439E+00
        -11   -1    0    0    0    0  0.00000000000E+00  0.00000000000E+00  0.45593999997E+02  0.45594000000E+02  0.51100000000E-03 0. -1.
         11   -1    0    0    0    0 -0.00000000000E+00 -0.00000000000E+00 -0.45593999997E+02  0.45594000000E+02  0.51100000000E-03 0.  1.
    9900012    2    1    2    0    0  0.22196523247E+02 -0.13619085510E+02  0.31225004990E+02  0.50528855014E+02  0.29999985301E+02 0.  0.
        -12    1    1    2    0    0 -0.22196523247E+02  0.13619085510E+02 -0.31225004990E+02  0.40659144986E+02  0.00000000000E+00 0.  1.
         11    1    3    3    0    0  0.12839343731E+01 -0.52481072460E+01  0.12728201556E+02  0.13827444892E+02  0.51100000000E-03 0. -1.
        -11    1    3    3    0    0  0.19568945661E+02  0.72890818638E+00  0.47323036738E+01  0.20146206585E+02  0.51100000000E-03 0.  1.
        -12    1    3    3    0    0  0.13436432120E+01 -0.90998864504E+01  0.13764499761E+02  0.16555203537E+02  0.00000000000E+00 0.  1.
</event>
<event>
 7    1  0.4963616E-011  0.5052886E+02  0.7816164E-02  0.1300439E+00
        -11   -1    0    0    0    0  0.00000000000E+00  0.00000000000E+00  0.45593999997E+02  0.45594000000E+02  0.51100000000E-03 0.  1.
         11   -1    0    0    0    0 -0.00000000000E+00 -0.00000000000E+00 -0.45593999997E+02  0.45594000000E+02  0.51100000000E-03 0. -1.
    9900012    2    1    2    0    0 -0.16328236217E+02  0.30623750873E+02 -0.21183496055E+02  0.50528856864E+02  0.29999990924E+02 0.  0.
        -12    1    1    2    0    0  0.16328236217E+02 -0.30623750873E+02  0.21183496055E+02  0.40659143136E+02  0.00000000000E+00 0.  1.
         11    1    3    3    0    0 -0.18522381904E+02  0.58212303760E+01 -0.92082638724E+01  0.21488542954E+02  0.51100000000E-03 0. -1.
        -11    1    3    3    0    0 -0.78212618745E-01  0.16335819334E+02 -0.32192960589E+01  0.16650194531E+02  0.51100000000E-03 0.  1.
         12    1    3    3    0    0  0.22723583058E+01  0.84667011624E+01 -0.87559361233E+01  0.12390119380E+02  0.00000000000E+00 0. -1.
</event>
<event>
 7    1  0.4963616E-011  0.5052886E+02  0.7816164E-02  0.1300439E+00
        -11   -1    0    0    0    0  0.00000000000E+00  0.00000000000E+00  0.45593999997E+02  0.45594000000E+02  0.51100000000E-03 0. -1.
         11   -1    0    0    0    0 -0.00000000000E+00 -0.00000000000E+00 -0.45593999997E+02  0.45594000000E+02  0.51100000000E-03 0.  1.
    9900012    2    1    2    0    0 -0.35496084635E+02 -0.17158140684E+01  0.19754738283E+02  0.50528859244E+02  0.29999998159E+02 0.  0.
        -12    1    1    2    0    0  0.35496084635E+02  0.17158140684E+01 -0.19754738283E+02  0.40659140756E+02  0.00000000000E+00 0.  1.
         11    1    3    3    0    0 -0.24355184062E+01 -0.78913836572E+01  0.32505254804E+01  0.88753367312E+01  0.51100000000E-03 0. -1.
        -11    1    3    3    0    0 -0.28534125616E+02  0.30015588911E+01  0.20124082781E+02  0.35045461739E+02  0.51100000000E-03 0.  1.
        -12    1    3    3    0    0 -0.45264406135E+01  0.31740106977E+01 -0.36198699785E+01  0.66080607744E+01  0.00000000000E+00 0.  1.
</event>
<event>
 7    1  0.4963616E-011  0.5052886E+02  0.7816164E-02  0.1300439E+00
        -11   -1    0    0    0    0  0.00000000000E+00  0.00000000000E+00  0.45593999997E+02  0.45594000000E+02  0.51100000000E-03 0. -1.
         11   -1    0    0    0    0 -0.00000000000E+00 -0.00000000000E+00 -0.45593999997E+02  0.45594000000E+02  0.51100000000E-03 0.  1.
    9900012    2    1    2    0    0  0.14482935533E+02 -0.11846225523E+02  0.36098160641E+02  0.50528859792E+02  0.29999999825E+02 0.  0.
        -12    1    1    2    0    0 -0.14482935533E+02  0.11846225523E+02 -0.36098160641E+02  0.40659140208E+02  0.00000000000E+00 0.  1.
         11    1    3    3    0    0 -0.49601015000E+01 -0.95064140410E+01  0.19305658935E+02  0.22083545503E+02  0.51100000000E-03 0. -1.
        -11    1    3    3    0    0  0.16819451579E+02 -0.65310768529E+00  0.18399084202E+02  0.24936856274E+02  0.51100000000E-03 0.  1.
        -12    1    3    3    0    0  0.26235854535E+01 -0.16867037966E+01 -0.16065824967E+01  0.35084580157E+01  0.00000000000E+00 0.  1.
</event>
<event>
 7    1  0.4963616E-011  0.5052883E+02  0.7816164E-02  0.1300439E+00
        -11   -1    0    0    0    0  0.00000000000E+00  0.00000000000E+00  0.45593999997E+02  0.45594000000E+02  0.51100000000E-03 0.  1.
         11   -1    0    0    0    0 -0.00000000000E+00 -0.00000000000E+00 -0.45593999997E+02  0.45594000000E+02  0.51100000000E-03 0. -1.
    9900012    2    1    2    0    0 -0.39632442857E+02 -0.21703687955E+01 -0.88163057941E+01  0.50528827906E+02  0.29999902902E+02 0.  0.
        -12    1    1    2    0    0  0.39632442857E+02  0.21703687955E+01  0.88163057941E+01  0.40659172094E+02  0.00000000000E+00 0.  1.
         11    1    3    3    0    0 -0.13137547929E+02 -0.71532505688E+01  0.30789817014E+01  0.15272337341E+02  0.51100000000E-03 0. -1.
        -11    1    3    3    0    0 -0.44593537986E+01  0.85741022687E+01  0.57891091284E+00  0.96817459232E+01  0.51100000000E-03 0.  1.
         12    1    3    3    0    0 -0.22035541130E+02 -0.35912204955E+01 -0.12474198408E+02  0.25574744642E+02  0.00000000000E+00 0. -1.
</event>
<event>
 7    1  0.4963616E-011  0.5052885E+02  0.7816164E-02  0.1300439E+00
        -11   -1    0    0    0    0  0.00000000000E+00  0.00000000000E+00  0.45593999997E+02  0.45594000000E+02  0.51100000000E-03 0.  1.
         11   -1    0    0    0    0 -0.00000000000E+00 -0.00000000000E+00 -0.45593999997E+02  0.45594000000E+02  0.51100000000E-03 0. -1.
    9900012    2    1    2    0    0 -0.17492816314E+02  0.36432375481E+02 -0.44553430886E+01  0.50528847429E+02  0.29999962244E+02 0.  0.
        -12    1    1    2    0    0  0.17492816314E+02 -0.36432375481E+02  0.44553430886E+01  0.40659152571E+02  0.00000000000E+00 0.  1.
         11    1    3    3    0    0 -0.18653176380E+02  0.16107189733E+02  0.24776327708E+01  0.24769360398E+02  0.51100000000E-03 0. -1.
        -11    1    3    3    0    0  0.86562765653E+00  0.20968510944E+02 -0.95437455090E+01  0.23054518886E+02  0.51100000000E-03 0.  1.
         12    1    3    3    0    0  0.29473240904E+00 -0.64332519579E+00  0.26107696496E+01  0.27049681446E+01  0.00000000000E+00 0. -1.
</event>
<event>
 7    1  0.4963616E-011  0.5052887E+02  0.7816164E-02  0.1300439E+00
        -11   -1    0    0    0    0  0.00000000000E+00  0.00000000000E+00  0.45593999997E+02  0.45594000000E+02  0.51100000000E-03 0. -1.
         11   -1    0    0    0    0 -0.00000000000E+00 -0.00000000000E+00 -0.45593999997E+02  0.45594000000E+02  0.51100000000E-03 0.  1.
    9900012    2    1    2    0    0 -0.19858750322E+02  0.33538809143E+02  0.11573371964E+02  0.50528872837E+02  0.30000039474E+02 0.  0.
        -12    1    1    2    0    0  0.19858750322E+02 -0.33538809143E+02 -0.11573371964E+02  0.40659127163E+02  0.00000000000E+00 0.  1.
         11    1    3    3    0    0 -0.70646243200E+01  0.13731736028E+02  0.91141088068E+01  0.17931438055E+02  0.51100000000E-03 0. -1.
        -11    1    3    3    0    0 -0.11459467983E+02 -0.12805684078E+00 -0.30746328518E+01  0.11865461324E+02  0.51100000000E-03 0.  1.
        -12    1    3    3    0    0 -0.13346580188E+01  0.19935129956E+02  0.55338960086E+01  0.20731973457E+02  0.00000000000E+00 0.  1.
</event>
<event>
 7    1  0.4963616E-011  0.5052885E+02  0.7816164E-02  0.1300439E+00
        -11   -1    0    0    0    0  0.00000000000E+00  0.00000000000E+00  0.45593999997E+02  0.45594000000E+02  0.51100000000E-03 0.  1.
         11   -1    0    0    0    0 -0.00000000000E+00 -0.00000000000E+00 -0.45593999997E+02  0.45594000000E+02  0.51100000000E-03 0. -1.
    9900012    2    1    2    0    0 -0.28411659309E+02  0.25110015585E+02 -0.14677561883E+02  0.50528854778E+02  0.29999984584E+02 0.  0.
        -12    1    1    2    0    0  0.28411659309E+02 -0.25110015585E+02  0.14677561883E+02  0.40659145222E+02  0.00000000000E+00 0.  1.
         11    1    3    3    0    0 -0.64774247487E+01  0.11033100963E+02  0.44432138358E+01  0.13543577728E+02  0.51100000000E-03 0. -1.
        -11    1    3    3    0    0 -0.19023676812E+02  0.10950238874E+02 -0.22578422503E+02  0.31489572461E+02  0.51100000000E-03 0.  1.
        -12    1    3    3    0    0 -0.29105577484E+01  0.31266757484E+01  0.34576467843E+01  0.54957045888E+01  0.00000000000E+00 0.  1.
</event>
<event>
 7    1  0.4963616E-011  0.5052879E+02  0.7816164E-02  0.1300439E+00
        -11   -1    0    0    0    0  0.00000000000E+00  0.00000000000E+00  0.45593999997E+02  0.45594000000E+02  0.51100000000E-03 0. -1.
         11   -1    0    0    0    0 -0.00000000000E+00 -0.00000000000E+00 -0.45593999997E+02  0.45594000000E+02  0.51100000000E-03 0.  1.
    9900012    2    1    2    0    0 -0.10450190393E+02 -0.37019548139E+02  0.13172613952E+02  0.50528792162E+02  0.29999794255E+02 0.  0.
        -12    1    1    2    0    0  0.10450190393E+02  0.37019548139E+02 -0.13172613952E+02  0.40659207838E+02  0.00000000000E+00 0.  1.
         11    1    3    3    0    0  0.90166419493E+01 -0.21328369403E+02  0.59127319197E+01  0.23898945007E+02  0.51100000000E-03 0.  1.
        -11    1    3    3    0    0 -0.19816309142E+02 -0.15095984993E+02  0.72286410819E+01  0.25938930646E+02  0.51100000000E-03 0. -1.
         12    1    3    3    0    0  0.34947679952E+00 -0.59519374272E+00  0.31240950188E-01  0.69091650852E+00  0.00000000000E+00 0. -1.
</event>
<event>
 7    1  0.4963616E-011  0.5052889E+02  0.7816164E-02  0.1300439E+00
        -11   -1    0    0    0    0  0.00000000000E+00  0.00000000000E+00  0.45593999997E+02  0.45594000000E+02  0.51100000000E-03 0.  1.
         11   -1    0    0    0    0 -0.00000000000E+00 -0.00000000000E+00 -0.45593999997E+02  0.45594000000E+02  0.51100000000E-03 0. -1.
    9900012    2    1    2    0    0 -0.83011670805E+01  0.27173401207E+02 -0.29083670766E+02  0.50528892616E+02  0.30000099595E+02 0.  0.
        -12    1    1    2    0    0  0.83011670805E+01 -0.27173401207E+02  0.29083670766E+02  0.40659107384E+02  0.00000000000E+00 0.  1.
         11    1    3    3    0    0 -0.83423269311E+01 -0.36905712477E+01 -0.81096732637E+01  0.12205799255E+02  0.51100000000E-03 0.  1.
        -11    1    3    3    0    0  0.30978198941E+01  0.18984765488E+02 -0.16242142898E+02  0.25175881611E+02  0.51100000000E-03 0. -1.
        -12    1    3    3    0    0 -0.30566600435E+01  0.11879206967E+02 -0.47318546041E+01  0.13147211749E+02  0.00000000000E+00 0.  1.
</event>
<event>
 7    1  0.4963616E-011  0.5052896E+02  0.7816164E-02  0.1300438E+00
        -11   -1    0    0    0    0  0.00000000000E+00  0.00000000000E+00  0.45593999997E+02  0.45594000000E+02  0.51100000000E-03 0. -1.
         11   -1    0    0    0    0 -0.00000000000E+00 -0.00000000000E+00 -0.45593999997E+02  0.45594000000E+02  0.51100000000E-03 0.  1.
    9900012    2    1    2    0    0 -0.26925523225E+02 -0.13557708974E+02  0.27283008878E+02  0.50528956148E+02  0.30000292705E+02 0.  0.
        -12    1    1    2    0    0  0.26925523225E+02  0.13557708974E+02 -0.27283008878E+02  0.40659043852E+02  0.00000000000E+00 0.  1.
         11    1    3    3    0    0 -0.15924400823E+02 -0.10673087727E+02  0.21997348731E+02  0.29178497128E+02  0.51100000000E-03 0. -1.
        -11    1    3    3    0    0 -0.76276367460E+01  0.58181288204E+01 -0.16340591121E+01  0.97314754658E+01  0.51100000000E-03 0.  1.
        -12    1    3    3    0    0 -0.33734856563E+01 -0.87027500672E+01  0.69197192591E+01  0.11618983554E+02  0.00000000000E+00 0.  1.
</event>
<event>
 7    1  0.4963616E-011  0.5052885E+02  0.7816164E-02  0.1300439E+00
        -11   -1    0    0    0    0  0.00000000000E+00  0.00000000000E+00  0.45593999997E+02  0.45594000000E+02  0.51100000000E-03 0.  1.
         11   -1    0    0    0    0 -0.00000000000E+00 -0.00000000000E+00 -0.45593999997E+02  0.45594000000E+02  0.51100000000E-03 0. -1.
    9900012    2    1    2    0    0 -0.23857421181E+02 -0.13071858412E+02 -0.30217811918E+02  0.50528853614E+02  0.29999981046E+02 0.  0.
        -12    1    1    2    0    0  0.23857421181E+02  0.13071858412E+02  0.30217811918E+02  0.40659146386E+02  0.00000000000E+00 0.  1.
         11    1    3    3    0    0 -0.13228126544E+01 -0.14915459261E+02 -0.36208436070E+01  0.15405559612E+02  0.51100000000E-03 0. -1.
        -11    1    3    3    0    0 -0.17049088024E+02  0.25110040127E+01 -0.18137599466E+02  0.25018973965E+02  0.51100000000E-03 0.  1.
         12    1    3    3    0    0 -0.54855205020E+01 -0.66740316380E+00 -0.84593688447E+01  0.10104320037E+02  0.00000000000E+00 0. -1.
</event>
<event>
 7    1  0.4963616E-011  0.5052885E+02  0.7816164E-02  0.1300439E+00
        -11   -1    0    0    0    0  0.00000000000E+00  0.00000000000E+00  0.45593999997E+02  0.45594000000E+02  0.51100000000E-03 0.  1.
         11   -1    0    0    0    0 -0.00000000000E+00 -0.00000000000E+00 -0.45593999997E+02  0.45594000000E+02  0.51100000000E-03 0. -1.
    9900012    2    1    2    0    0  0.37438198255E+02  0.15509104758E+02 -0.33189731066E+01  0.50528848490E+02  0.29999965471E+02 0.  0.
        -12    1    1    2    0    0 -0.37438198255E+02 -0.15509104758E+02  0.33189731066E+01  0.40659151510E+02  0.00000000000E+00 0.  1.
         11    1    3    3    0    0  0.25476065749E+02  0.90255855029E+01 -0.45402288842E+01  0.27406291217E+02  0.51100000000E-03 0. -1.
        -11    1    3    3    0    0 -0.43500658953E+01  0.36186275937E+01 -0.24379672142E+01  0.61612679988E+01  0.51100000000E-03 0.  1.
        -12    1    3    3    0    0  0.16312198402E+02  0.28648916619E+01  0.36592229917E+01  0.16961289274E+02  0.00000000000E+00 0.  1.
</event>
<event>
 7    1  0.4963616E-011  0.5052886E+02  0.7816164E-02  0.1300439E+00
        -11   -1    0    0    0    0  0.00000000000E+00  0.00000000000E+00  0.45593999997E+02  0.45594000000E+02  0.51100000000E-03 0.  1.
         11   -1    0    0    0    0 -0.00000000000E+00 -0.00000000000E+00 -0.45593999997E+02  0.45594000000E+02  0.51100000000E-03 0. -1.
    9900012    2    1    2    0    0  0.12933258002E+02 -0.35057949974E+02 -0.16026136282E+02  0.50528855112E+02  0.29999985598E+02 0.  0.
        -12    1    1    2    0    0 -0.12933258002E+02  0.35057949974E+02  0.16026136282E+02  0.40659144888E+02  0.00000000000E+00 0.  1.
         11    1    3    3    0    0  0.15718842792E+02 -0.32089317366E+02 -0.15807420600E+02  0.39072763583E+02  0.51100000000E-03 0. -1.
        -11    1    3    3    0    0 -0.44727041668E+01 -0.11029251242E+01 -0.45324408780E+01  0.64625495718E+01  0.51100000000E-03 0.  1.
         12    1    3    3    0    0  0.16871193764E+01 -0.18657074836E+01  0.43137251964E+01  0.49935419568E+01  0.00000000000E+00 0. -1.
</event>
<event>
 7    1  0.4963616E-011  0.5052887E+02  0.7816164E-02  0.1300439E+00
        -11   -1    0    0    0    0  0.00000000000E+00  0.00000000000E+00  0.45593999997E+02  0.45594000000E+02  0.51100000000E-03 0. -1.
         11   -1    0    0    0    0 -0.00000000000E+00 -0.00000000000E+00 -0.45593999997E+02  0.45594000000E+02  0.51100000000E-03 0.  1.
    9900012    2    1    2    0    0 -0.12534870226E+01  0.24044219476E+02  0.32763842352E+02  0.50528867132E+02  0.30000022135E+02 0.  0.
        -12    1    1    2    0    0  0.12534870226E+01 -0.24044219476E+02 -0.32763842352E+02  0.40659132868E+02  0.00000000000E+00 0.  1.
         11    1    3    3    0    0 -0.85794371041E+01  0.14790595913E+02  0.32625169858E+02  0.36834361363E+02  0.51100000000E-03 0. -1.
        -11    1    3    3    0    0  0.30117472100E+01  0.87908163731E+01  0.70315243740E+00  0.93189858554E+01  0.51100000000E-03 0.  1.
         12    1    3    3    0    0  0.43142028715E+01  0.46280718965E+00 -0.56447994351E+00  0.43755199140E+01  0.00000000000E+00 0. -1.
</event>
<event>
 7    1  0.4963616E-011  0.5052887E+02  0.7816164E-02  0.1300439E+00
        -11   -1    0    0    0    0  0.00000000000E+00  0.00000000000E+00  0.45593999997E+02  0.45594000000E+02  0.51100000000E-03 0.  1.
         11   -1    0    0    0    0 -0.00000000000E+00 -0.00000000000E+00 -0.45593999997E+02  0.45594000000E+02  0.51100000000E-03 0. -1.
    9900012    2    1    2    0    0 -0.30343342965E+02  0.96875568084E+01 -0.25270492944E+02  0.50528867780E+02  0.30000024104E+02 0.  0.
        -12    1    1    2    0    0  0.30343342965E+02 -0.96875568084E+01  0.25270492944E+02  0.40659132220E+02  0.00000000000E+00 0.  1.
         11    1    3    3    0    0 -0.14834099687E+02  0.12340291412E+02 -0.91524398516E+01  0.21356508637E+02  0.51100000000E-03 0. -1.
        -11    1    3    3    0    0 -0.95306398063E+00  0.31925019951E+00 -0.14150503726E+02  0.14186155491E+02  0.51100000000E-03 0.  1.
        -12    1    3    3    0    0 -0.14556179298E+02 -0.29719848029E+01 -0.19675493667E+01  0.14986203653E+02  0.00000000000E+00 0.  1.
</event>
<event>
 7    1  0.4963616E-011  0.5052885E+02  0.7816164E-02  0.1300439E+00
        -11   -1    0    0    0    0  0.00000000000E+00  0.00000000000E+00  0.45593999997E+02  0.45594000000E+02  0.51100000000E-03 0.  1.
         11   -1    0    0    0    0 -0.00000000000E+00 -0.00000000000E+00 -0.45593999997E+02  0.45594000000E+02  0.51100000000E-03 0. -1.
    9900012    2    1    2    0    0 -0.49520771481E+01 -0.20955538141E+02 -0.34489258006E+02  0.50528848943E+02  0.29999966848E+02 0.  0.
        -12    1    1    2    0    0  0.49520771481E+01  0.20955538141E+02  0.34489258006E+02  0.40659151057E+02  0.00000000000E+00 0.  1.
         11    1    3    3    0    0  0.65688841346E+01 -0.20939894444E+02 -0.30171240533E+02  0.37308620635E+02  0.51100000000E-03 0. -1.
        -11    1    3    3    0    0 -0.41253159576E+01  0.11719325730E+01  0.49465970905E+00  0.43169834601E+01  0.51100000000E-03 0.  1.
         12    1    3    3    0    0 -0.73956453252E+01 -0.11875762694E+01 -0.48126771824E+01  0.89032448486E+01  0.00000000000E+00 0. -1.
</event>
<event>
 7    1  0.4963616E-011  0.5052886E+02  0.7816164E-02  0.1300439E+00
        -11   -1    0    0    0    0  0.00000000000E+00  0.00000000000E+00  0.45593999997E+02  0.45594000000E+02  0.51100000000E-03 0.  1.
         11   -1    0    0    0    0 -0.00000000000E+00 -0.00000000000E+00 -0.45593999997E+02  0.45594000000E+02  0.51100000000E-03 0. -1.
    9900012    2    1    2    0    0 -0.34836736920E+02  0.10430082968E+02 -0.18187379791E+02  0.50528860147E+02  0.30000000901E+02 0.  0.
        -12    1    1    2    0    0  0.34836736920E+02 -0.10430082968E+02  0.18187379791E+02  0.40659139853E+02  0.00000000000E+00 0.  1.
         11    1    3    3    0    0  0.25712013817E+01 -0.20885491900E-01 -0.71058323838E+01  0.75567431396E+01  0.51100000000E-03 0. -1.
        -11    1    3    3    0    0 -0.34220146402E+02  0.73448757590E+01 -0.13949871368E+02  0.37677108848E+02  0.51100000000E-03 0.  1.
        -12    1    3    3    0    0 -0.31877918999E+01  0.31060927011E+01  0.28683239605E+01  0.52950081594E+01  0.00000000000E+00 0.  1.
</event>
<event>
 7    1  0.4963616E-011  0.5052887E+02  0.7816164E-02  0.1300439E+00
        -11   -1    0    0    0    0  0.00000000000E+00  0.00000000000E+00  0.45593999997E+02  0.45594000000E+02  0.51100000000E-03 0.  1.
         11   -1    0    0    0    0 -0.00000000000E+00 -0.00000000000E+00 -0.45593999997E+02  0.45594000000E+02  0.51100000000E-03 0. -1.
    9900012    2    1    2    0    0 -0.14254242020E+02 -0.33674331406E+02 -0.17776985871E+02  0.50528865259E+02  0.30000016441E+02 0.  0.
        -12    1    1    2    0    0  0.14254242020E+02  0.33674331406E+02  0.17776985871E+02  0.40659134741E+02  0.00000000000E+00 0.  1.
         11    1    3    3    0    0 -0.28234895719E+01 -0.61136308473E+01 -0.44580773793E+01  0.80760776173E+01  0.51100000000E-03 0. -1.
        -11    1    3    3    0    0 -0.15501416631E+02 -0.22667100572E+02  0.25346312176E+00  0.27461893775E+02  0.51100000000E-03 0.  1.
        -12    1    3    3    0    0  0.40706641821E+01 -0.48935999873E+01 -0.13572371613E+02  0.14990893867E+02  0.00000000000E+00 0.  1.
</event>
<event>
 7    1  0.4963616E-011  0.5052887E+02  0.7816164E-02  0.1300439E+00
        -11   -1    0    0    0    0  0.00000000000E+00  0.00000000000E+00  0.45593999997E+02  0.45594000000E+02  0.51100000000E-03 0.  1.
         11   -1    0    0    0    0 -0.00000000000E+00 -0.00000000000E+00 -0.45593999997E+02  0.45594000000E+02  0.51100000000E-03 0. -1.
    9900012    2    1    2    0    0 -0.30324207637E+02 -0.10287254589E+02 -0.25055534269E+02  0.50528868513E+02  0.30000026332E+02 0.  0.
        -12    1    1    2    0    0  0.30324207637E+02  0.10287254589E+02  0.25055534269E+02  0.40659131487E+02  0.00000000000E+00 0.  1.
         11    1    3    3    0    0 -0.17698732096E+02  0.22403031658E+00 -0.80898998764E+01  0.19461289466E+02  0.51100000000E-03 0. -1.
        -11    1    3    3    0    0 -0.88483556701E+01 -0.12215104365E+02 -0.20616589894E+02  0.25544978994E+02  0.51100000000E-03 0.  1.
        -12    1    3    3    0    0 -0.37771198705E+01  0.17038194599E+01  0.36509555013E+01  0.55226000526E+01  0.00000000000E+00 0.  1.
</event>
<event>
 7    1  0.4963616E-011  0.5052886E+02  0.7816164E-02  0.1300439E+00
        -11   -1    0    0    0    0  0.00000000000E+00  0.00000000000E+00  0.45593999997E+02  0.45594000000E+02  0.51100000000E-03 0. -1.
         11   -1    0    0    0    0 -0.00000000000E+00 -0.00000000000E+00 -0.45593999997E+02  0.45594000000E+02  0.51100000000E-03 0.  1.
    9900012    2    1    2    0    0 -0.27470385701E+02  0.28337521045E+02  0.97738668765E+01  0.50528860028E+02  0.30000000542E+02 0.  0.
        -12    1    1    2    0    0  0.27470385701E+02 -0.28337521045E+02 -0.97738668765E+01  0.40659139972E+02  0.00000000000E+00 0.  1.
         11    1    3    3    0    0  0.42138279592E+00  0.19248534228E+02  0.48712705053E+01  0.19859831570E+02  0.51100000000E-03 0.  1.
        -11    1    3    3    0    0 -0.16075676616E+02  0.16401027012E+01  0.41356597284E+01  0.16679957949E+02  0.51100000000E-03 0. -1.
        -12    1    3    3    0    0 -0.11816091881E+02  0.74488841158E+01  0.76693664279E+00  0.13989070509E+02  0.00000000000E+00 0.  1.
</event>
<event>
 7    1  0.4963616E-011  0.5052886E+02  0.7816164E-02  0.1300439E+00
        -11   -1    0    0    0    0  0.00000000000E+00  0.00000000000E+00  0.45593999997E+02  0.45594000000E+02  0.51100000000E-03 0.  1.
         11   -1    0    0    0    0 -0.00000000000E+00 -0.00000000000E+00 -0.45593999997E+02  0.45594000000E+02  0.51100000000E-03 0. -1.
    9900012    2    1    2    0    0 -0.32237014483E+02  0.20417129433E+02 -0.14038572136E+02  0.50528858535E+02  0.29999996002E+02 0.  0.
        -12    1    1    2    0    0  0.32237014483E+02 -0.20417129433E+02  0.14038572136E+02  0.40659141465E+02  0.00000000000E+00 0.  1.
         11    1    3    3    0    0 -0.11764348501E+02  0.77079860455E+01 -0.21611859566E+01  0.14229675665E+02  0.51100000000E-03 0. -1.
        -11    1    3    3    0    0 -0.56959639045E+00 -0.57792094440E+01 -0.62983098598E+01  0.85669369786E+01  0.51100000000E-03 0.  1.
        -12    1    3    3    0    0 -0.19903069592E+02  0.18488352831E+02 -0.55790763195E+01  0.27732245891E+02  0.00000000000E+00 0.  1.
</event>
<event>
 7    1  0.4963616E-011  0.5052886E+02  0.7816164E-02  0.1300439E+00
        -11   -1    0    0    0    0  0.00000000000E+00  0.00000000000E+00  0.45593999997E+02  0.45594000000E+02  0.51100000000E-03 0.  1.
         11   -1    0    0    0    0 -0.00000000000E+00 -0.00000000000E+00 -0.45593999997E+02  0.45594000000E+02  0.51100000000E-03 0. -1.
    9900012    2    1    2    0    0  0.31322472528E+02  0.13004687641E+02 -0.22426465765E+02  0.50528861389E+02  0.30000004678E+02 0.  0.
        -12    1    1    2    0    0 -0.31322472528E+02 -0.13004687641E+02  0.22426465765E+02  0.40659138611E+02  0.00000000000E+00 0.  1.
         11    1    3    3    0    0  0.25257076703E+02  0.18373173826E+02 -0.16955037986E+02  0.35538243533E+02  0.51100000000E-03 0. -1.
        -11    1    3    3    0    0  0.63069238468E+01 -0.64846187779E+01  0.35550050760E+00  0.90528420938E+01  0.51100000000E-03 0.  1.
         12    1    3    3    0    0 -0.24152802218E+00  0.11161325930E+01 -0.58269282864E+01  0.59377757625E+01  0.00000000000E+00 0. -1.
</event>
<event>
 7    1  0.4963616E-011  0.5052886E+02  0.7816164E-02  0.1300439E+00
        -11   -1    0    0    0    0  0.00000000000E+00  0.00000000000E+00  0.45593999997E+02  0.45594000000E+02  0.51100000000E-03 0.  1.
         11   -1    0    0    0    0 -0.00000000000E+00 -0.00000000000E+00 -0.45593999997E+02  0.45594000000E+02  0.51100000000E-03 0. -1.
    9900012    2    1    2    0    0  0.90362885328E+01 -0.58247229326E+01 -0.39212031659E+02  0.50528864071E+02  0.30000012829E+02 0.  0.
        -12    1    1    2    0    0 -0.90362885328E+01  0.58247229326E+01  0.39212031659E+02  0.40659135929E+02  0.00000000000E+00 0.  1.
         11    1    3    3    0    0  0.16357297205E+02  0.34001555573E+01 -0.14004477836E+02  0.21800174985E+02  0.51100000000E-03 0. -1.
        -11    1    3    3    0    0 -0.84039783767E+01 -0.74947025548E+01 -0.23533834588E+02  0.26089054978E+02  0.51100000000E-03 0.  1.
         12    1    3    3    0    0  0.10829697050E+01 -0.17301759351E+01 -0.16737192346E+01  0.26396341081E+01  0.00000000000E+00 0. -1.
</event>
<event>
 7    1  0.4963616E-011  0.5052892E+02  0.7816164E-02  0.1300439E+00
        -11   -1    0    0    0    0  0.00000000000E+00  0.00000000000E+00  0.45593999997E+02  0.45594000000E+02  0.51100000000E-03 0.  1.
         11   -1    0    0    0    0 -0.00000000000E+00 -0.00000000000E+00 -0.45593999997E+02  0.45594000000E+02  0.51100000000E-03 0. -1.
    9900012    2    1    2    0    0  0.38803473604E+01  0.39389038127E+02 -0.93063111021E+01  0.50528919261E+02  0.30000180586E+02 0.  0.
        -12    1    1    2    0    0 -0.38803473604E+01 -0.39389038127E+02  0.93063111021E+01  0.40659080739E+02  0.00000000000E+00 0.  1.
         11    1    3    3    0    0  0.45373764019E+01  0.25357937427E+02 -0.14272223060E+02  0.29450112504E+02  0.51100000000E-03 0. -1.
        -11    1    3    3    0    0 -0.76115056360E+01  0.68789862051E+01  0.41590883168E+01  0.11070387759E+02  0.51100000000E-03 0.  1.
         12    1    3    3    0    0  0.69544765946E+01  0.71521144941E+01  0.80682364106E+00  0.10008418998E+02  0.00000000000E+00 0. -1.
</event>
<event>
 7    1  0.4963616E-011  0.5052884E+02  0.7816164E-02  0.1300439E+00
        -11   -1    0    0    0    0  0.00000000000E+00  0.00000000000E+00  0.45593999997E+02  0.45594000000E+02  0.51100000000E-03 0. -1.
         11   -1    0    0    0    0 -0.00000000000E+00 -0.00000000000E+00 -0.45593999997E+02  0.45594000000E+02  0.51100000000E-03 0.  1.
    9900012    2    1    2    0    0  0.25493988848E+02 -0.17175807008E+02  0.26612323085E+02  0.50528836780E+02  0.29999929876E+02 0.  0.
        -12    1    1    2    0    0 -0.25493988848E+02  0.17175807008E+02 -0.26612323085E+02  0.40659163220E+02  0.00000000000E+00 0.  1.
         11    1    3    3    0    0  0.51941921634E+01  0.43796986294E+01  0.11005614753E+02  0.12933868279E+02  0.51100000000E-03 0. -1.
        -11    1    3    3    0    0  0.65086360933E+01 -0.17000382526E+02  0.31779695942E+01  0.18479037876E+02  0.51100000000E-03 0.  1.
        -12    1    3    3    0    0  0.13791160592E+02 -0.45551231119E+01  0.12428738738E+02  0.19115930625E+02  0.00000000000E+00 0.  1.
</event>
<event>
 7    1  0.4963616E-011  0.5052886E+02  0.7816164E-02  0.1300439E+00
        -11   -1    0    0    0    0  0.00000000000E+00  0.00000000000E+00  0.45593999997E+02  0.45594000000E+02  0.51100000000E-03 0.  1.
         11   -1    0    0    0    0 -0.00000000000E+00 -0.00000000000E+00 -0.45593999997E+02  0.45594000000E+02  0.51100000000E-03 0. -1.
    9900012    2    1    2    0    0  0.27175288198E+02  0.22983345555E+00 -0.30242630392E+02  0.50528858284E+02  0.29999995239E+02 0.  0.
        -12    1    1    2    0    0 -0.27175288198E+02 -0.22983345555E+00  0.30242630392E+02  0.40659141716E+02  0.00000000000E+00 0.  1.
         11    1    3    3    0    0  0.16096942562E+02 -0.11124310465E+02 -0.15276927732E+02  0.24824309947E+02  0.51100000000E-03 0. -1.
        -11    1    3    3    0    0 -0.16499412373E+01  0.30515918303E+01  0.10518741504E+01  0.36250459686E+01  0.51100000000E-03 0.  1.
         12    1    3    3    0    0  0.12728286874E+02  0.83025520903E+01 -0.16017576810E+02  0.22079502368E+02  0.00000000000E+00 0. -1.
</event>
<event>
 7    1  0.4963616E-011  0.5052886E+02  0.7816164E-02  0.1300439E+00
        -11   -1    0    0    0    0  0.00000000000E+00  0.00000000000E+00  0.45593999997E+02  0.45594000000E+02  0.51100000000E-03 0.  1.
         11   -1    0    0    0    0 -0.00000000000E+00 -0.00000000000E+00 -0.45593999997E+02  0.45594000000E+02  0.51100000000E-03 0. -1.
    9900012    2    1    2    0    0  0.24540767552E+02 -0.23359668079E+02 -0.22477593840E+02  0.50528860934E+02  0.30000003295E+02 0.  0.
        -12    1    1    2    0    0 -0.24540767552E+02  0.23359668079E+02  0.22477593840E+02  0.40659139066E+02  0.00000000000E+00 0.  1.
         11    1    3    3    0    0  0.92451403547E+01 -0.83094171595E+01 -0.18005868877E+02  0.21879907404E+02  0.51100000000E-03 0. -1.
        -11    1    3    3    0    0  0.57527341924E+01 -0.15288720194E+02  0.28966880241E+01  0.16590048753E+02  0.51100000000E-03 0.  1.
        -12    1    3    3    0    0  0.95428930047E+01  0.23846927463E+00 -0.73684129865E+01  0.12058904778E+02  0.00000000000E+00 0.  1.
</event>
<event>
 7    1  0.4963616E-011  0.5052887E+02  0.7816164E-02  0.1300439E+00
        -11   -1    0    0    0    0  0.00000000000E+00  0.00000000000E+00  0.45593999997E+02  0.45594000000E+02  0.51100000000E-03 0.  1.
         11   -1    0    0    0    0 -0.00000000000E+00 -0.00000000000E+00 -0.45593999997E+02  0.45594000000E+02  0.51100000000E-03 0. -1.
    9900012    2    1    2    0    0 -0.40246850501E+01  0.63337043436E+01 -0.39960618132E+02  0.50528869390E+02  0.30000028998E+02 0.  0.
        -12    1    1    2    0    0  0.40246850501E+01 -0.63337043436E+01  0.39960618132E+02  0.40659130610E+02  0.00000000000E+00 0.  1.
         11    1    3    3    0    0 -0.80960116775E+01  0.16085195354E+01 -0.17589991108E+02  0.19430402148E+02  0.51100000000E-03 0. -1.
        -11    1    3    3    0    0  0.11447060597E+02  0.96580819297E+00 -0.18909572619E+02  0.22125549003E+02  0.51100000000E-03 0.  1.
        -12    1    3    3    0    0 -0.73757339701E+01  0.37593766152E+01 -0.34610544045E+01  0.89729182389E+01  0.00000000000E+00 0.  1.
</event>
<event>
 7    1  0.4963616E-011  0.5052885E+02  0.7816164E-02  0.1300439E+00
        -11   -1    0    0    0    0  0.00000000000E+00  0.00000000000E+00  0.45593999997E+02  0.45594000000E+02  0.51100000000E-03 0.  1.
         11   -1    0    0    0    0 -0.00000000000E+00 -0.00000000000E+00 -0.45593999997E+02  0.45594000000E+02  0.51100000000E-03 0. -1.
    9900012    2    1    2    0    0 -0.18987111379E+02 -0.32446612551E+02 -0.15487841221E+02  0.50528852318E+02  0.29999977106E+02 0.  0.
        -12    1    1    2    0    0  0.18987111379E+02  0.32446612551E+02  0.15487841221E+02  0.40659147682E+02  0.00000000000E+00 0.  1.
         11    1    3    3    0    0  0.32335933046E+00 -0.17341950678E+02  0.21088918189E+01  0.17472699836E+02  0.51100000000E-03 0. -1.
        -11    1    3    3    0    0 -0.79257117859E+01  0.10880588148E+01 -0.68535442303E+01  0.10534317637E+02  0.51100000000E-03 0.  1.
         12    1    3    3    0    0 -0.11384758923E+02 -0.16192720687E+02 -0.10743188809E+02  0.22521834845E+02  0.00000000000E+00 0. -1.
</event>
<event>
 7    1  0.4963616E-011  0.5052875E+02  0.7816164E-02  0.1300439E+00
        -11   -1    0    0    0    0  0.00000000000E+00  0.00000000000E+00  0.45593999997E+02  0.45594000000E+02  0.51100000000E-03 0.  1.
         11   -1    0    0    0    0 -0.00000000000E+00 -0.00000000000E+00 -0.45593999997E+02  0.45594000000E+02  0.51100000000E-03 0. -1.
    9900012    2    1    2    0    0  0.46434434423E+01  0.27173758391E+02 -0.29886444942E+02  0.50528753778E+02  0.29999677581E+02 0.  0.
        -12    1    1    2    0    0 -0.46434434423E+01 -0.27173758391E+02  0.29886444942E+02  0.40659246222E+02  0.00000000000E+00 0.  1.
         11    1    3    3    0    0  0.55695600275E+01  0.21738634784E+02 -0.84608027715E+01  0.23982773505E+02  0.51100000000E-03 0. -1.
        -11    1    3    3    0    0 -0.32233968998E+00 -0.44883953914E+01 -0.24500470059E+01  0.51237024364E+01  0.51100000000E-03 0.  1.
         12    1    3    3    0    0 -0.60377689526E+00  0.99235189986E+01 -0.18975595164E+02  0.21422277836E+02  0.00000000000E+00 0. -1.
</event>
<event>
 7    1  0.4963616E-011  0.5052886E+02  0.7816164E-02  0.1300439E+00
        -11   -1    0    0    0    0  0.00000000000E+00  0.00000000000E+00  0.45593999997E+02  0.45594000000E+02  0.51100000000E-03 0. -1.
         11   -1    0    0    0    0 -0.00000000000E+00 -0.00000000000E+00 -0.45593999997E+02  0.45594000000E+02  0.51100000000E-03 0.  1.
    9900012    2    1    2    0    0  0.30376970357E+02 -0.16249315625E+02  0.21595493722E+02  0.50528856681E+02  0.29999990367E+02 0.  0.
        -12    1    1    2    0    0 -0.30376970357E+02  0.16249315625E+02 -0.21595493722E+02  0.40659143319E+02  0.00000000000E+00 0.  1.
         11    1    3    3    0    0  0.20852213095E+02 -0.14998079449E+02  0.22933645817E+02  0.34434129709E+02  0.51100000000E-03 0. -1.
        -11    1    3    3    0    0  0.51669312171E+01  0.49443998732E+01  0.25346032417E+01  0.75873896804E+01  0.51100000000E-03 0.  1.
         12    1    3    3    0    0  0.43578260446E+01 -0.61956360494E+01 -0.38727553363E+01  0.85073372912E+01  0.00000000000E+00 0. -1.
</event>
<event>
 7    1  0.4963616E-011  0.5052885E+02  0.7816164E-02  0.1300439E+00
        -11   -1    0    0    0    0  0.00000000000E+00  0.00000000000E+00  0.45593999997E+02  0.45594000000E+02  0.51100000000E-03 0. -1.
         11   -1    0    0    0    0 -0.00000000000E+00 -0.00000000000E+00 -0.45593999997E+02  0.45594000000E+02  0.51100000000E-03 0.  1.
    9900012    2    1    2    0    0  0.17468939071E+02 -0.35322932109E+02 -0.10014643195E+02  0.50528850435E+02  0.29999971382E+02 0.  0.
        -12    1    1    2    0    0 -0.17468939071E+02  0.35322932109E+02  0.10014643195E+02  0.40659149565E+02  0.00000000000E+00 0.  1.
         11    1    3    3    0    0  0.81121865069E+01 -0.32088523856E+02  0.98600064831E+00  0.33112733665E+02  0.51100000000E-03 0. -1.
        -11    1    3    3    0    0  0.91981661217E+01 -0.40171685813E+01 -0.12309434280E+02  0.15882886260E+02  0.51100000000E-03 0.  1.
         12    1    3    3    0    0  0.15858644220E+00  0.78276032856E+00  0.13087904359E+01  0.15332305099E+01  0.00000000000E+00 0. -1.
</event>
<event>
 7    1  0.4963616E-011  0.5052885E+02  0.7816164E-02  0.1300439E+00
        -11   -1    0    0    0    0  0.00000000000E+00  0.00000000000E+00  0.45593999997E+02  0.45594000000E+02  0.51100000000E-03 0.  1.
         11   -1    0    0    0    0 -0.00000000000E+00 -0.00000000000E+00 -0.45593999997E+02  0.45594000000E+02  0.51100000000E-03 0. -1.
    9900012    2    1    2    0    0  0.58684248697E+01  0.27313138251E+00 -0.40232493995E+02  0.50528848702E+02  0.29999966114E+02 0.  0.
        -12    1    1    2    0    0 -0.58684248697E+01 -0.27313138251E+00  0.40232493995E+02  0.40659151298E+02  0.00000000000E+00 0.  1.
         11    1    3    3    0    0 -0.85045490903E+01 -0.27248769007E+01 -0.67180868636E+01  0.11175195780E+02  0.51100000000E-03 0.  1.
        -11    1    3    3    0    0  0.89323727877E+01 -0.49885949820E+01 -0.12005299827E+02  0.15773413953E+02  0.51100000000E-03 0. -1.
        -12    1    3    3    0    0  0.54406011723E+01  0.79866032652E+01 -0.21509107304E+02  0.23580238969E+02  0.00000000000E+00 0.  1.
</event>
<event>
 7    1  0.4963616E-011  0.5052884E+02  0.7816164E-02  0.1300439E+00
        -11   -1    0    0    0    0  0.00000000000E+00  0.00000000000E+00  0.45593999997E+02  0.45594000000E+02  0.51100000000E-03 0. -1.
         11   -1    0    0    0    0 -0.00000000000E+00 -0.00000000000E+00 -0.45593999997E+02  0.45594000000E+02  0.51100000000E-03 0.  1.
    9900012    2    1    2    0    0  0.18932048528E+01 -0.37818353743E+02  0.14810654772E+02  0.50528836221E+02  0.29999928176E+02 0.  0.
        -12    1    1    2    0    0 -0.18932048528E+01  0.37818353743E+02 -0.14810654772E+02  0.40659163779E+02  0.00000000000E+00 0.  1.
         11    1    3    3    0    0 -0.11729771579E+02 -0.64467489044E+01  0.58997174187E+01  0.14627193121E+02  0.51100000000E-03 0. -1.
        -11    1    3    3    0    0  0.48354399386E+01 -0.16919000254E+02  0.23211606425E+01  0.17748854498E+02  0.51100000000E-03 0.  1.
         12    1    3    3    0    0  0.87875364930E+01 -0.14452604584E+02  0.65897767113E+01  0.18152788601E+02  0.00000000000E+00 0. -1.
</event>
<event>
 7    1  0.4963616E-011  0.5052887E+02  0.7816164E-02  0.1300439E+00
        -11   -1    0    0    0    0  0.00000000000E+00  0.00000000000E+00  0.45593999997E+02  0.45594000000E+02  0.51100000000E-03 0.  1.
         11   -1    0    0    0    0 -0.00000000000E+00 -0.00000000000E+00 -0.45593999997E+02  0.45594000000E+02  0.51100000000E-03 0. -1.
    9900012    2    1    2    0    0  0.33125254518E+02  0.82124160679E+01  0.22100650495E+02  0.50528867977E+02  0.30000024703E+02 0.  0.
        -12    1    1    2    0    0 -0.33125254518E+02 -0.82124160679E+01 -0.22100650495E+02  0.40659132023E+02  0.00000000000E+00 0.  1.
         11    1    3    3    0    0  0.26802456438E+02  0.68199177219E+01  0.24247302729E+02  0.36780628579E+02  0.51100000000E-03 0.  1.
        -11    1    3    3    0    0 -0.20751435777E+01 -0.25235152599E+01  0.17381420080E+01  0.37007415522E+01  0.51100000000E-03 0. -1.
        -12    1    3    3    0    0  0.83979416580E+01  0.39160136059E+01 -0.38847942418E+01  0.10047497845E+02  0.00000000000E+00 0.  1.
</event>
<event>
 7    1  0.4963616E-011  0.5052886E+02  0.7816164E-02  0.1300439E+00
        -11   -1    0    0    0    0  0.00000000000E+00  0.00000000000E+00  0.45593999997E+02  0.45594000000E+02  0.51100000000E-03 0.  1.
         11   -1    0    0    0    0 -0.00000000000E+00 -0.00000000000E+00 -0.45593999997E+02  0.45594000000E+02  0.51100000000E-03 0. -1.
    9900012    2    1    2    0    0  0.15501943514E+02  0.29586672081E+02 -0.23183708208E+02  0.50528859037E+02  0.29999997529E+02 0.  0.
        -12    1    1    2    0    0 -0.15501943514E+02 -0.29586672081E+02  0.23183708208E+02  0.40659140963E+02  0.00000000000E+00 0.  1.
         11    1    3    3    0    0  0.15851059958E+02  0.11353269906E+02 -0.51890617508E+01  0.20176203842E+02  0.51100000000E-03 0. -1.
        -11    1    3    3    0    0 -0.26941283449E+01  0.19636491423E+02 -0.10616435579E+02  0.22484635367E+02  0.51100000000E-03 0.  1.
         12    1    3    3    0    0  0.23450119009E+01 -0.14030892474E+01 -0.73782108785E+01  0.78680198284E+01  0.00000000000E+00 0. -1.
</event>
<event>
 7    1  0.4963616E-011  0.5052886E+02  0.7816164E-02  0.1300439E+00
        -11   -1    0    0    0    0  0.00000000000E+00  0.00000000000E+00  0.45593999997E+02  0.45594000000E+02  0.51100000000E-03 0.  1.
         11   -1    0    0    0    0 -0.00000000000E+00 -0.00000000000E+00 -0.45593999997E+02  0.45594000000E+02  0.51100000000E-03 0. -1.
    9900012    2    1    2    0    0  0.40389808789E+02  0.42459000992E+01 -0.19497677427E+01  0.50528856921E+02  0.29999991096E+02 0.  0.
        -12    1    1    2    0    0 -0.40389808789E+02 -0.42459000992E+01  0.19497677427E+01  0.40659143079E+02  0.00000000000E+00 0.  1.
         11    1    3    3    0    0  0.41396807577E+02 -0.31310244914E+01 -0.35165659020E+01  0.41663715964E+02  0.51100000000E-03 0. -1.
        -11    1    3    3    0    0  0.11721276137E+01  0.47589894847E+01 -0.42453633877E+00  0.49195625235E+01  0.51100000000E-03 0.  1.
         12    1    3    3    0    0 -0.21791264011E+01  0.26179351060E+01  0.19913344981E+01  0.39455784334E+01  0.00000000000E+00 0. -1.
</event>
<event>
 7    1  0.4963616E-011  0.5052884E+02  0.7816164E-02  0.1300439E+00
        -11   -1    0    0    0    0  0.00000000000E+00  0.00000000000E+00  0.45593999997E+02  0.45594000000E+02  0.51100000000E-03 0.  1.
         11   -1    0    0    0    0 -0.00000000000E+00 -0.00000000000E+00 -0.45593999997E+02  0.45594000000E+02  0.51100000000E-03 0. -1.
    9900012    2    1    2    0    0 -0.13062289098E+02 -0.30718984158E+02 -0.23213962758E+02  0.50528838042E+02  0.29999933712E+02 0.  0.
        -12    1    1    2    0    0  0.13062289098E+02  0.30718984158E+02  0.23213962758E+02  0.40659161958E+02  0.00000000000E+00 0.  1.
         11    1    3    3    0    0 -0.93985156739E+01 -0.60717603938E+01 -0.57516459971E+01  0.12580930136E+02  0.51100000000E-03 0. -1.
        -11    1    3    3    0    0  0.88696983105E+01 -0.45398014483E+01 -0.44029184544E+01  0.10893440067E+02  0.51100000000E-03 0.  1.
        -12    1    3    3    0    0 -0.12533471735E+02 -0.20107422316E+02 -0.13059398306E+02  0.27054467839E+02  0.00000000000E+00 0.  1.
</event>
<event>
 7    1  0.4963616E-011  0.5052886E+02  0.7816164E-02  0.1300439E+00
        -11   -1    0    0    0    0  0.00000000000E+00  0.00000000000E+00  0.45593999997E+02  0.45594000000E+02  0.51100000000E-03 0. -1.
         11   -1    0    0    0    0 -0.00000000000E+00 -0.00000000000E+00 -0.45593999997E+02  0.45594000000E+02  0.51100000000E-03 0.  1.
    9900012    2    1    2    0    0 -0.22686806115E+02  0.33246933925E+02 -0.57546179977E+01  0.50528863076E+02  0.30000009806E+02 0.  0.
        -12    1    1    2    0    0  0.22686806115E+02 -0.33246933925E+02  0.57546179977E+01  0.40659136924E+02  0.00000000000E+00 0.  1.
         11    1    3    3    0    0 -0.21363034339E+02  0.15062350434E+02 -0.12175223931E+02  0.28835563369E+02  0.51100000000E-03 0.  1.
        -11    1    3    3    0    0  0.17859855621E+01 -0.43068020935E+00  0.77317641742E+00  0.19932465738E+01  0.51100000000E-03 0. -1.
         12    1    3    3    0    0 -0.31097573382E+01  0.18615263700E+02  0.56474295155E+01  0.19700053133E+02  0.00000000000E+00 0. -1.
</event>
<event>
 7    1  0.4963616E-011  0.5052886E+02  0.7816164E-02  0.1300439E+00
        -11   -1    0    0    0    0  0.00000000000E+00  0.00000000000E+00  0.45593999997E+02  0.45594000000E+02  0.51100000000E-03 0.  1.
         11   -1    0    0    0    0 -0.00000000000E+00 -0.00000000000E+00 -0.45593999997E+02  0.45594000000E+02  0.51100000000E-03 0. -1.
    9900012    2    1    2    0    0 -0.19427663545E+01 -0.13404654123E+02 -0.38336751631E+02  0.50528860573E+02  0.30000002199E+02 0.  0.
        -12    1    1    2    0    0  0.19427663545E+01  0.13404654123E+02  0.38336751631E+02  0.40659139427E+02  0.00000000000E+00 0.  1.
         11    1    3    3    0    0 -0.12156978402E+02  0.23754100704E+01 -0.17560708915E+02  0.21489839337E+02  0.51100000000E-03 0. -1.
        -11    1    3    3    0    0  0.45993041419E+01 -0.53151770860E+01 -0.29581195147E+01  0.76259541941E+01  0.51100000000E-03 0.  1.
         12    1    3    3    0    0  0.56149079054E+01 -0.10464887107E+02 -0.17817923201E+02  0.21413067042E+02  0.00000000000E+00 0. -1.
</event>
<event>
 7    1  0.4963616E-011  0.5052886E+02  0.7816164E-02  0.1300439E+00
        -11   -1    0    0    0    0  0.00000000000E+00  0.00000000000E+00  0.45593999997E+02  0.45594000000E+02  0.51100000000E-03 0. -1.
         11   -1    0    0    0    0 -0.00000000000E+00 -0.00000000000E+00 -0.45593999997E+02  0.45594000000E+02  0.51100000000E-03 0.  1.
    9900012    2    1    2    0    0 -0.30058956110E+02  0.22523462354E+02  0.15566593033E+02  0.50528855672E+02  0.29999987300E+02 0.  0.
        -12    1    1    2    0    0  0.30058956110E+02 -0.22523462354E+02 -0.15566593033E+02  0.40659144328E+02  0.00000000000E+00 0.  1.
         11    1    3    3    0    0 -0.23008607283E+01  0.12380053856E+02  0.71143076808E+01  0.14462816724E+02  0.51100000000E-03 0. -1.
        -11    1    3    3    0    0 -0.26335454004E+02  0.59099352687E+01  0.12765638427E+02  0.29857076166E+02  0.51100000000E-03 0.  1.
        -12    1    3    3    0    0 -0.14226413777E+01  0.42334732290E+01 -0.43133530744E+01  0.62089627809E+01  0.00000000000E+00 0.  1.
</event>
<event>
 7    1  0.4963616E-011  0.5052895E+02  0.7816164E-02  0.1300438E+00
        -11   -1    0    0    0    0  0.00000000000E+00  0.00000000000E+00  0.45593999997E+02  0.45594000000E+02  0.51100000000E-03 0.  1.
         11   -1    0    0    0    0 -0.00000000000E+00 -0.00000000000E+00 -0.45593999997E+02  0.45594000000E+02  0.51100000000E-03 0. -1.
    9900012    2    1    2    0    0  0.23416364284E+01  0.38892085088E+02  0.11622423697E+02  0.50528950869E+02  0.30000276659E+02 0.  0.
        -12    1    1    2    0    0 -0.23416364284E+01 -0.38892085088E+02 -0.11622423697E+02  0.40659049131E+02  0.00000000000E+00 0.  1.
         11    1    3    3    0    0  0.41348349478E+01  0.36664706400E+02  0.26967078328E+01  0.36995537418E+02  0.51100000000E-03 0. -1.
        -11    1    3    3    0    0 -0.99777965319E-01  0.15184870790E+01  0.10801850738E+02  0.10908516777E+02  0.51100000000E-03 0.  1.
        -12    1    3    3    0    0 -0.16934205540E+01  0.70889160913E+00 -0.18761348732E+01  0.26248966739E+01  0.00000000000E+00 0.  1.
</event>
<event>
 7    1  0.4963616E-011  0.5052886E+02  0.7816164E-02  0.1300439E+00
        -11   -1    0    0    0    0  0.00000000000E+00  0.00000000000E+00  0.45593999997E+02  0.45594000000E+02  0.51100000000E-03 0. -1.
         11   -1    0    0    0    0 -0.00000000000E+00 -0.00000000000E+00 -0.45593999997E+02  0.45594000000E+02  0.51100000000E-03 0.  1.
    9900012    2    1    2    0    0  0.76659166342E+01 -0.32108788425E+02  0.23736573880E+02  0.50528861894E+02  0.30000006213E+02 0.  0.
        -12    1    1    2    0    0 -0.76659166342E+01  0.32108788425E+02 -0.23736573880E+02  0.40659138106E+02  0.00000000000E+00 0.  1.
         11    1    3    3    0    0  0.65497369174E+01 -0.73203461972E+01  0.13388121020E+02  0.16605068709E+02  0.51100000000E-03 0. -1.
        -11    1    3    3    0    0 -0.52904952436E+01 -0.23389563540E+02  0.12473404801E+02  0.27030480020E+02  0.51100000000E-03 0.  1.
        -12    1    3    3    0    0  0.64066749605E+01 -0.13988786879E+01 -0.21249519411E+01  0.68933131645E+01  0.00000000000E+00 0.  1.
</event>
<event>
 7    1  0.4963616E-011  0.5052889E+02  0.7816164E-02  0.1300439E+00
        -11   -1    0    0    0    0  0.00000000000E+00  0.00000000000E+00  0.45593999997E+02  0.45594000000E+02  0.51100000000E-03 0. -1.
         11   -1    0    0    0    0 -0.00000000000E+00 -0.00000000000E+00 -0.45593999997E+02  0.45594000000E+02  0.51100000000E-03 0.  1.
    9900012    2    1    2    0    0  0.24992890636E+02  0.18568543217E+02 -0.26148190877E+02  0.50528889512E+02  0.30000090160E+02 0.  0.
        -12    1    1    2    0    0 -0.24992890636E+02 -0.18568543217E+02  0.26148190877E+02  0.40659110488E+02  0.00000000000E+00 0.  1.
         11    1    3    3    0    0  0.20724684444E+01  0.48019268014E+01  0.30054746065E+01  0.60321227052E+01  0.51100000000E-03 0. -1.
        -11    1    3    3    0    0  0.21386643722E+02  0.56557751023E+01 -0.28691127281E+02  0.36229230003E+02  0.51100000000E-03 0.  1.
        -12    1    3    3    0    0  0.15337784696E+01  0.81108413138E+01 -0.46253820190E+00  0.82675368036E+01  0.00000000000E+00 0.  1.
</event>
<event>
 7    1  0.4963616E-011  0.5052886E+02  0.7816164E-02  0.1300439E+00
        -11   -1    0    0    0    0  0.00000000000E+00  0.00000000000E+00  0.45593999997E+02  0.45594000000E+02  0.51100000000E-03 0.  1.
         11   -1    0    0    0    0 -0.00000000000E+00 -0.00000000000E+00 -0.45593999997E+02  0.45594000000E+02  0.51100000000E-03 0. -1.
    9900012    2    1    2    0    0 -0.39821752172E+02  0.39232064899E+01 -0.72112713808E+01  0.50528856747E+02  0.29999990567E+02 0.  0.
        -12    1    1    2    0    0  0.39821752172E+02 -0.39232064899E+01  0.72112713808E+01  0.40659143253E+02  0.00000000000E+00 0.  1.
         11    1    3    3    0    0 -0.28650278821E+02  0.19170338930E+01 -0.15025738025E+02  0.32408120879E+02  0.51100000000E-03 0. -1.
        -11    1    3    3    0    0 -0.11423713490E+02 -0.18780167620E+01  0.82328932698E+01  0.14205939206E+02  0.51100000000E-03 0.  1.
         12    1    3    3    0    0  0.25224013902E+00  0.38841893590E+01 -0.41842662572E+00  0.39147966621E+01  0.00000000000E+00 0. -1.
</event>
<event>
 7    1  0.4963616E-011  0.5052887E+02  0.7816164E-02  0.1300439E+00
        -11   -1    0    0    0    0  0.00000000000E+00  0.00000000000E+00  0.45593999997E+02  0.45594000000E+02  0.51100000000E-03 0. -1.
         11   -1    0    0    0    0 -0.00000000000E+00 -0.00000000000E+00 -0.45593999997E+02  0.45594000000E+02  0.51100000000E-03 0.  1.
    9900012    2    1    2    0    0 -0.66870867210E+01 -0.67245242323E+01  0.39537687774E+02  0.50528866838E+02  0.30000021242E+02 0.  0.
        -12    1    1    2    0    0  0.66870867210E+01  0.67245242323E+01 -0.39537687774E+02  0.40659133162E+02  0.00000000000E+00 0.  1.
         11    1    3    3    0    0 -0.31060904996E+01  0.72075436517E+01  0.46850834878E+01  0.91403769742E+01  0.51100000000E-03 0.  1.
        -11    1    3    3    0    0 -0.16536833075E+01 -0.72682935397E+01  0.33502145986E+02  0.34321371555E+02  0.51100000000E-03 0. -1.
        -12    1    3    3    0    0 -0.19273129139E+01 -0.66637743442E+01  0.13504582997E+01  0.70671183093E+01  0.00000000000E+00 0.  1.
</event>
<event>
 7    1  0.4963616E-011  0.5052886E+02  0.7816164E-02  0.1300439E+00
        -11   -1    0    0    0    0  0.00000000000E+00  0.00000000000E+00  0.45593999997E+02  0.45594000000E+02  0.51100000000E-03 0. -1.
         11   -1    0    0    0    0 -0.00000000000E+00 -0.00000000000E+00 -0.45593999997E+02  0.45594000000E+02  0.51100000000E-03 0.  1.
    9900012    2    1    2    0    0  0.12850984079E+01  0.33182310938E+02  0.23461636458E+02  0.50528860531E+02  0.30000002069E+02 0.  0.
        -12    1    1    2    0    0 -0.12850984079E+01 -0.33182310938E+02 -0.23461636458E+02  0.40659139469E+02  0.00000000000E+00 0.  1.
         11    1    3    3    0    0 -0.20479195303E+01  0.18467463303E+02  0.14946085664E+02  0.23845893822E+02  0.51100000000E-03 0. -1.
        -11    1    3    3    0    0  0.26821344133E+01 -0.34752183185E+01 -0.28410000010E+01  0.52289835187E+01  0.51100000000E-03 0.  1.
        -12    1    3    3    0    0  0.65088352493E+00  0.18190065954E+02  0.11356550795E+02  0.21453983190E+02  0.00000000000E+00 0.  1.
</event>
<event>
 7    1  0.4963616E-011  0.5052885E+02  0.7816164E-02  0.1300439E+00
        -11   -1    0    0    0    0  0.00000000000E+00  0.00000000000E+00  0.45593999997E+02  0.45594000000E+02  0.51100000000E-03 0.  1.
         11   -1    0    0    0    0 -0.00000000000E+00 -0.00000000000E+00 -0.45593999997E+02  0.45594000000E+02  0.51100000000E-03 0. -1.
    9900012    2    1    2    0    0 -0.39804274826E+02 -0.78258112691E+01 -0.27464207397E+01  0.50528850435E+02  0.29999971383E+02 0.  0.
        -12    1    1    2    0    0  0.39804274826E+02  0.78258112691E+01  0.27464207397E+01  0.40659149565E+02  0.00000000000E+00 0.  1.
         11    1    3    3    0    0 -0.76130003495E+01 -0.62416659330E+01  0.99558271188E+01  0.14001237867E+02  0.51100000000E-03 0. -1.
        -11    1    3    3    0    0 -0.68130503615E+01  0.73785189337E+00 -0.81360316220E+01  0.10637532207E+02  0.51100000000E-03 0.  1.
         12    1    3    3    0    0 -0.25378224115E+02 -0.23219972295E+01 -0.45662162365E+01  0.25890080361E+02  0.00000000000E+00 0. -1.
</event>
<event>
 7    1  0.4963616E-011  0.5052888E+02  0.7816164E-02  0.1300439E+00
        -11   -1    0    0    0    0  0.00000000000E+00  0.00000000000E+00  0.45593999997E+02  0.45594000000E+02  0.51100000000E-03 0.  1.
         11   -1    0    0    0    0 -0.00000000000E+00 -0.00000000000E+00 -0.45593999997E+02  0.45594000000E+02  0.51100000000E-03 0. -1.
    9900012    2    1    2    0    0 -0.22260643784E+02 -0.27925453161E+02 -0.19437004129E+02  0.50528876480E+02  0.30000050548E+02 0.  0.
        -12    1    1    2    0    0  0.22260643784E+02  0.27925453161E+02  0.19437004129E+02  0.40659123520E+02  0.00000000000E+00 0.  1.
         11    1    3    3    0    0  0.10701963468E+01 -0.54876580878E+01 -0.71277248920E+01  0.90589278563E+01  0.51100000000E-03 0. -1.
        -11    1    3    3    0    0 -0.15973444897E+02 -0.18459953642E+02  0.24205123810E+01  0.24531198723E+02  0.51100000000E-03 0.  1.
        -12    1    3    3    0    0 -0.73573952332E+01 -0.39778414312E+01 -0.14729791618E+02  0.16938749900E+02  0.00000000000E+00 0.  1.
</event>
<event>
 7    1  0.4963616E-011  0.5052887E+02  0.7816164E-02  0.1300439E+00
        -11   -1    0    0    0    0  0.00000000000E+00  0.00000000000E+00  0.45593999997E+02  0.45594000000E+02  0.51100000000E-03 0.  1.
         11   -1    0    0    0    0 -0.00000000000E+00 -0.00000000000E+00 -0.45593999997E+02  0.45594000000E+02  0.51100000000E-03 0. -1.
    9900012    2    1    2    0    0 -0.13504695755E+02 -0.31271448761E+02 -0.22201009310E+02  0.50528866592E+02  0.30000020494E+02 0.  0.
        -12    1    1    2    0    0  0.13504695755E+02  0.31271448761E+02  0.22201009310E+02  0.40659133408E+02  0.00000000000E+00 0.  1.
         11    1    3    3    0    0 -0.11312668782E+00  0.37631337937E+00 -0.12293357012E+02  0.12299635616E+02  0.51100000000E-03 0. -1.
        -11    1    3    3    0    0 -0.60290329630E+01 -0.55019852395E+01  0.22548854892E+01  0.84679152614E+01  0.51100000000E-03 0.  1.
         12    1    3    3    0    0 -0.73625361044E+01 -0.26145776901E+02 -0.12162537788E+02  0.29761315715E+02  0.00000000000E+00 0. -1.
</event>
<event>
 7    1  0.4963616E-011  0.5052886E+02  0.7816164E-02  0.1300439E+00
        -11   -1    0    0    0    0  0.00000000000E+00  0.00000000000E+00  0.45593999997E+02  0.45594000000E+02  0.51100000000E-03 0.  1.
         11   -1    0    0    0    0 -0.00000000000E+00 -0.00000000000E+00 -0.45593999997E+02  0.45594000000E+02  0.51100000000E-03 0. -1.
    9900012    2    1    2    0    0 -0.91382863557E+01 -0.92087418939E+01 -0.38533834459E+02  0.50528860771E+02  0.30000002798E+02 0.  0.
        -12    1    1    2    0    0  0.91382863557E+01  0.92087418939E+01  0.38533834459E+02  0.40659139229E+02  0.00000000000E+00 0.  1.
         11    1    3    3    0    0 -0.16767621848E+02 -0.89177955382E+01 -0.14169741476E+02  0.23695185027E+02  0.51100000000E-03 0. -1.
        -11    1    3    3    0    0  0.53640885493E+01  0.34271482995E+01 -0.10272509772E+02  0.12084835485E+02  0.51100000000E-03 0.  1.
         12    1    3    3    0    0  0.22652469433E+01 -0.37180946552E+01 -0.14091583211E+02  0.14748840258E+02  0.00000000000E+00 0. -1.
</event>
<event>
 7    1  0.4963616E-011  0.5052887E+02  0.7816164E-02  0.1300439E+00
        -11   -1    0    0    0    0  0.00000000000E+00  0.00000000000E+00  0.45593999997E+02  0.45594000000E+02  0.51100000000E-03 0.  1.
         11   -1    0    0    0    0 -0.00000000000E+00 -0.00000000000E+00 -0.45593999997E+02  0.45594000000E+02  0.51100000000E-03 0. -1.
    9900012    2    1    2    0    0  0.44958744188E+01 -0.18361398557E+02 -0.35997377525E+02  0.50528867786E+02  0.30000024121E+02 0.  0.
        -12    1    1    2    0    0 -0.44958744188E+01  0.18361398557E+02  0.35997377525E+02  0.40659132214E+02  0.00000000000E+00 0.  1.
         11    1    3    3    0    0  0.30768801610E+01 -0.11037411071E+02 -0.28013508994E+02  0.30266290177E+02  0.51100000000E-03 0. -1.
        -11    1    3    3    0    0 -0.62902665595E+01 -0.83979023841E+01 -0.26353051918E+01  0.10818366400E+02  0.51100000000E-03 0.  1.
        -12    1    3    3    0    0  0.77092608173E+01  0.10739148985E+01 -0.53485633390E+01  0.94442112085E+01  0.00000000000E+00 0.  1.
</event>
<event>
 7    1  0.4963616E-011  0.5052886E+02  0.7816164E-02  0.1300439E+00
        -11   -1    0    0    0    0  0.00000000000E+00  0.00000000000E+00  0.45593999997E+02  0.45594000000E+02  0.51100000000E-03 0.  1.
         11   -1    0    0    0    0 -0.00000000000E+00 -0.00000000000E+00 -0.45593999997E+02  0.45594000000E+02  0.51100000000E-03 0. -1.
    9900012    2    1    2    0    0  0.11443016937E+02  0.38737676188E+02 -0.46492708294E+01  0.50528856966E+02  0.29999991233E+02 0.  0.
        -12    1    1    2    0    0 -0.11443016937E+02 -0.38737676188E+02  0.46492708294E+01  0.40659143034E+02  0.00000000000E+00 0.  1.
         11    1    3    3    0    0  0.32402942523E+00  0.64170231846E+01  0.48627212437E+00  0.64435737336E+01  0.51100000000E-03 0. -1.
        -11    1    3    3    0    0  0.13030630990E+01  0.33634527170E+02 -0.20920519036E+01  0.33724710122E+02  0.51100000000E-03 0.  1.
        -12    1    3    3    0    0  0.98159244128E+01 -0.13138741666E+01 -0.30434910502E+01  0.10360573110E+02  0.00000000000E+00 0.  1.
</event>
<event>
 7    1  0.4963616E-011  0.5052885E+02  0.7816164E-02  0.1300439E+00
        -11   -1    0    0    0    0  0.00000000000E+00  0.00000000000E+00  0.45593999997E+02  0.45594000000E+02  0.51100000000E-03 0. -1.
         11   -1    0    0    0    0 -0.00000000000E+00 -0.00000000000E+00 -0.45593999997E+02  0.45594000000E+02  0.51100000000E-03 0.  1.
    9900012    2    1    2    0    0  0.28353222013E+02  0.18436987546E+01  0.29083710339E+02  0.50528848131E+02  0.29999964379E+02 0.  0.
        -12    1    1    2    0    0 -0.28353222013E+02 -0.18436987546E+01 -0.29083710339E+02  0.40659151869E+02  0.00000000000E+00 0.  1.
         11    1    3    3    0    0  0.13599103807E+02 -0.32761238310E+01  0.23112380094E+02  0.27015749584E+02  0.51100000000E-03 0. -1.
        -11    1    3    3    0    0 -0.34145894201E+01 -0.10139643104E+01  0.10986072966E+01  0.37275303867E+01  0.51100000000E-03 0.  1.
         12    1    3    3    0    0  0.18168707627E+02  0.61337868961E+01  0.48727229483E+01  0.19785568161E+02  0.00000000000E+00 0. -1.
</event>
<event>
 7    1  0.4963616E-011  0.5052887E+02  0.7816164E-02  0.1300439E+00
        -11   -1    0    0    0    0  0.00000000000E+00  0.00000000000E+00  0.45593999997E+02  0.45594000000E+02  0.51100000000E-03 0.  1.
         11   -1    0    0    0    0 -0.00000000000E+00 -0.00000000000E+00 -0.45593999997E+02  0.45594000000E+02  0.51100000000E-03 0. -1.
    9900012    2    1    2    0    0 -0.29916571932E+02  0.20270943760E+02 -0.18634706093E+02  0.50528871771E+02  0.30000036237E+02 0.  0.
        -12    1    1    2    0    0  0.29916571932E+02 -0.20270943760E+02  0.18634706093E+02  0.40659128229E+02  0.00000000000E+00 0.  1.
         11    1    3    3    0    0 -0.22969554024E+02  0.26175643717E+02 -0.18769958077E+02  0.39561042233E+02  0.51100000000E-03 0. -1.
        -11    1    3    3    0    0 -0.18226927946E+01 -0.47375448335E+01  0.19057844036E+01  0.54220433904E+01  0.51100000000E-03 0.  1.
         12    1    3    3    0    0 -0.51243251137E+01 -0.11671551234E+01 -0.17705324197E+01  0.55457861482E+01  0.00000000000E+00 0. -1.
</event>
<event>
 7    1  0.4963616E-011  0.5052886E+02  0.7816164E-02  0.1300439E+00
        -11   -1    0    0    0    0  0.00000000000E+00  0.00000000000E+00  0.45593999997E+02  0.45594000000E+02  0.51100000000E-03 0. -1.
         11   -1    0    0    0    0 -0.00000000000E+00 -0.00000000000E+00 -0.45593999997E+02  0.45594000000E+02  0.51100000000E-03 0.  1.
    9900012    2    1    2    0    0 -0.29664049551E+02  0.26659907093E+02  0.79031151159E+01  0.50528859447E+02  0.29999998775E+02 0.  0.
        -12    1    1    2    0    0  0.29664049551E+02 -0.26659907093E+02 -0.79031151159E+01  0.40659140553E+02  0.00000000000E+00 0.  1.
         11    1    3    3    0    0 -0.25206027226E+02  0.72422779706E+01  0.72963630334E+01  0.27221890318E+02  0.51100000000E-03 0. -1.
        -11    1    3    3    0    0 -0.26522920642E+01  0.46958922450E+01 -0.50925872420E+01  0.74175806197E+01  0.51100000000E-03 0.  1.
         12    1    3    3    0    0 -0.18057302608E+01  0.14721736877E+02  0.56993393246E+01  0.15889388509E+02  0.00000000000E+00 0. -1.
</event>
<event>
 7    1  0.4963616E-011  0.5052885E+02  0.7816164E-02  0.1300439E+00
        -11   -1    0    0    0    0  0.00000000000E+00  0.00000000000E+00  0.45593999997E+02  0.45594000000E+02  0.51100000000E-03 0.  1.
         11   -1    0    0    0    0 -0.00000000000E+00 -0.00000000000E+00 -0.45593999997E+02  0.45594000000E+02  0.51100000000E-03 0. -1.
    9900012    2    1    2    0    0  0.97860667271E+01 -0.24837359991E+02 -0.30667648384E+02  0.50528853296E+02  0.29999980077E+02 0.  0.
        -12    1    1    2    0    0 -0.97860667271E+01  0.24837359991E+02  0.30667648384E+02  0.40659146704E+02  0.00000000000E+00 0.  1.
         11    1    3    3    0    0  0.67363427771E+01  0.31012743316E+00 -0.10580776167E+02  0.12547004327E+02  0.51100000000E-03 0.  1.
        -11    1    3    3    0    0  0.98552216857E+00 -0.28365947523E+02 -0.18210685013E+02  0.33722800621E+02  0.51100000000E-03 0. -1.
        -12    1    3    3    0    0  0.20642017814E+01  0.32184600985E+01 -0.18761872043E+01  0.42590483474E+01  0.00000000000E+00 0.  1.
</event>
<event>
 7    1  0.4963616E-011  0.5052885E+02  0.7816164E-02  0.1300439E+00
        -11   -1    0    0    0    0  0.00000000000E+00  0.00000000000E+00  0.45593999997E+02  0.45594000000E+02  0.51100000000E-03 0.  1.
         11   -1    0    0    0    0 -0.00000000000E+00 -0.00000000000E+00 -0.45593999997E+02  0.45594000000E+02  0.51100000000E-03 0. -1.
    9900012    2    1    2    0    0 -0.26438125349E+02 -0.28095362124E+02  0.12839106088E+02  0.50528849862E+02  0.29999969641E+02 0.  0.
        -12    1    1    2    0    0  0.26438125349E+02  0.28095362124E+02 -0.12839106088E+02  0.40659150138E+02  0.00000000000E+00 0.  1.
         11    1    3    3    0    0 -0.23332102560E+02 -0.21494064662E+02  0.20303602050E+01  0.31788428529E+02  0.51100000000E-03 0. -1.
        -11    1    3    3    0    0 -0.33558821874E+01 -0.97053450730E+01  0.11634921526E+02  0.15518603913E+02  0.51100000000E-03 0.  1.
         12    1    3    3    0    0  0.24985939840E+00  0.31040476111E+01 -0.82617564317E+00  0.32218174194E+01  0.00000000000E+00 0. -1.
</event>
<event>
 7    1  0.4963616E-011  0.5052886E+02  0.7816164E-02  0.1300439E+00
        -11   -1    0    0    0    0  0.00000000000E+00  0.00000000000E+00  0.45593999997E+02  0.45594000000E+02  0.51100000000E-03 0.  1.
         11   -1    0    0    0    0 -0.00000000000E+00 -0.00000000000E+00 -0.45593999997E+02  0.45594000000E+02  0.51100000000E-03 0. -1.
    9900012    2    1    2    0    0 -0.12927078336E+02 -0.35827874142E+02 -0.14227428132E+02  0.50528860423E+02  0.30000001743E+02 0.  0.
        -12    1    1    2    0    0  0.12927078336E+02  0.35827874142E+02  0.14227428132E+02  0.40659139577E+02  0.00000000000E+00 0.  1.
         11    1    3    3    0    0 -0.16238121541E+02 -0.31936157438E+02 -0.18508747982E+02  0.40325779537E+02  0.51100000000E-03 0. -1.
        -11    1    3    3    0    0 -0.15976809003E+01 -0.28977017990E+01  0.39937802808E+01  0.51864767586E+01  0.51100000000E-03 0.  1.
         12    1    3    3    0    0  0.49087241054E+01 -0.99401490518E+00  0.28753956922E+00  0.50166041281E+01  0.00000000000E+00 0. -1.
</event>
<event>
 7    1  0.4963616E-011  0.5052886E+02  0.7816164E-02  0.1300439E+00
        -11   -1    0    0    0    0  0.00000000000E+00  0.00000000000E+00  0.45593999997E+02  0.45594000000E+02  0.51100000000E-03 0. -1.
         11   -1    0    0    0    0 -0.00000000000E+00 -0.00000000000E+00 -0.45593999997E+02  0.45594000000E+02  0.51100000000E-03 0.  1.
    9900012    2    1    2    0    0 -0.12051947029E+02  0.36316626618E+02 -0.13748404896E+02  0.50528862856E+02  0.30000009137E+02 0.  0.
        -12    1    1    2    0    0  0.12051947029E+02 -0.36316626618E+02  0.13748404896E+02  0.40659137144E+02  0.00000000000E+00 0.  1.
         11    1    3    3    0    0 -0.86001047817E+01  0.26027029399E+01  0.15527276191E+01  0.91184882613E+01  0.51100000000E-03 0.  1.
        -11    1    3    3    0    0  0.60204840589E+01  0.23653838949E+02 -0.74586727493E+01  0.25522188871E+02  0.51100000000E-03 0. -1.
         12    1    3    3    0    0 -0.94723263060E+01  0.10060084729E+02 -0.78424597657E+01  0.15888185723E+02  0.00000000000E+00 0. -1.
</event>
<event>
 7    1  0.4963616E-011  0.5052886E+02  0.7816164E-02  0.1300439E+00
        -11   -1    0    0    0    0  0.00000000000E+00  0.00000000000E+00  0.45593999997E+02  0.45594000000E+02  0.51100000000E-03 0.  1.
         11   -1    0    0    0    0 -0.00000000000E+00 -0.00000000000E+00 -0.45593999997E+02  0.45594000000E+02  0.51100000000E-03 0. -1.
    9900012    2    1    2    0    0  0.15602091631E+02 -0.28050722547E+02 -0.24957915488E+02  0.50528857803E+02  0.29999993779E+02 0.  0.
        -12    1    1    2    0    0 -0.15602091631E+02  0.28050722547E+02  0.24957915488E+02  0.40659142197E+02  0.00000000000E+00 0.  1.
         11    1    3    3    0    0  0.90492384237E+01 -0.78918640076E+01 -0.31267449093E+01  0.12407528664E+02  0.51100000000E-03 0. -1.
        -11    1    3    3    0    0  0.24834170338E+01 -0.15679140613E+02 -0.26216010754E+02  0.30647708408E+02  0.51100000000E-03 0.  1.
        -12    1    3    3    0    0  0.40694361740E+01 -0.44797179264E+01  0.43848401754E+01  0.74736207315E+01  0.00000000000E+00 0.  1.
</event>
<event>
 7    1  0.4963616E-011  0.5052886E+02  0.7816164E-02  0.1300439E+00
        -11   -1    0    0    0    0  0.00000000000E+00  0.00000000000E+00  0.45593999997E+02  0.45594000000E+02  0.51100000000E-03 0. -1.
         11   -1    0    0    0    0 -0.00000000000E+00 -0.00000000000E+00 -0.45593999997E+02  0.45594000000E+02  0.51100000000E-03 0.  1.
    9900012    2    1    2    0    0 -0.22175448423E+02 -0.13050250985E+02  0.31481832306E+02  0.50528864140E+02  0.30000013040E+02 0.  0.
        -12    1    1    2    0    0  0.22175448423E+02  0.13050250985E+02 -0.31481832306E+02  0.40659135860E+02  0.00000000000E+00 0.  1.
         11    1    3    3    0    0 -0.20351697467E+02 -0.75448212682E+01  0.35829183016E+02  0.41890885329E+02  0.51100000000E-03 0. -1.
        -11    1    3    3    0    0  0.22376979473E+00 -0.53868601272E+01 -0.28486274031E+01  0.60977875737E+01  0.51100000000E-03 0.  1.
         12    1    3    3    0    0 -0.20475207511E+01 -0.11856958972E+00 -0.14987233072E+01  0.25401912379E+01  0.00000000000E+00 0. -1.
</event>
<event>
 7    1  0.4963616E-011  0.5052890E+02  0.7816164E-02  0.1300439E+00
        -11   -1    0    0    0    0  0.00000000000E+00  0.00000000000E+00  0.45593999997E+02  0.45594000000E+02  0.51100000000E-03 0.  1.
         11   -1    0    0    0    0 -0.00000000000E+00 -0.00000000000E+00 -0.45593999997E+02  0.45594000000E+02  0.51100000000E-03 0. -1.
    9900012    2    1    2    0    0  0.18075098121E+02 -0.23309878038E+02 -0.27983969713E+02  0.50528903267E+02  0.30000131971E+02 0.  0.
        -12    1    1    2    0    0 -0.18075098121E+02  0.23309878038E+02  0.27983969713E+02  0.40659096733E+02  0.00000000000E+00 0.  1.
         11    1    3    3    0    0  0.18030870620E+02 -0.32275769142E+01 -0.12755589143E+02  0.22321169385E+02  0.51100000000E-03 0. -1.
        -11    1    3    3    0    0 -0.48601529442E+01 -0.48701971541E+01 -0.83175171294E+01  0.10794489262E+02  0.51100000000E-03 0.  1.
         12    1    3    3    0    0  0.49043804456E+01 -0.15212103970E+02 -0.69108634400E+01  0.17413244621E+02  0.00000000000E+00 0. -1.
</event>
<event>
 7    1  0.4963616E-011  0.5052886E+02  0.7816164E-02  0.1300439E+00
        -11   -1    0    0    0    0  0.00000000000E+00  0.00000000000E+00  0.45593999997E+02  0.45594000000E+02  0.51100000000E-03 0.  1.
         11   -1    0    0    0    0 -0.00000000000E+00 -0.00000000000E+00 -0.45593999997E+02  0.45594000000E+02  0.51100000000E-03 0. -1.
    9900012    2    1    2    0    0  0.35639856774E+02 -0.31859464631E+01 -0.19308442995E+02  0.50528860602E+02  0.30000002285E+02 0.  0.
        -12    1    1    2    0    0 -0.35639856774E+02  0.31859464631E+01  0.19308442995E+02  0.40659139398E+02  0.00000000000E+00 0.  1.
         11    1    3    3    0    0  0.21065768017E+02  0.78876020904E+01 -0.18675408208E+02  0.29236137243E+02  0.51100000000E-03 0. -1.
        -11    1    3    3    0    0  0.16347831262E+02 -0.96152303864E+01 -0.85934222543E+00  0.18985328853E+02  0.51100000000E-03 0.  1.
         12    1    3    3    0    0 -0.17737425044E+01 -0.14583181670E+01  0.22630743924E+00  0.23073945057E+01  0.00000000000E+00 0. -1.
</event>
<event>
 7    1  0.4963616E-011  0.5052885E+02  0.7816164E-02  0.1300439E+00
        -11   -1    0    0    0    0  0.00000000000E+00  0.00000000000E+00  0.45593999997E+02  0.45594000000E+02  0.51100000000E-03 0. -1.
         11   -1    0    0    0    0 -0.00000000000E+00 -0.00000000000E+00 -0.45593999997E+02  0.45594000000E+02  0.51100000000E-03 0.  1.
    9900012    2    1    2    0    0  0.22940338131E+02 -0.32140555801E+02  0.96897746513E+01  0.50528853753E+02  0.29999981468E+02 0.  0.
        -12    1    1    2    0    0 -0.22940338131E+02  0.32140555801E+02 -0.96897746513E+01  0.40659146247E+02  0.00000000000E+00 0.  1.
         11    1    3    3    0    0  0.36279629696E+01 -0.18515354618E+02  0.17980168404E+01  0.18952924227E+02  0.51100000000E-03 0. -1.
        -11    1    3    3    0    0  0.17704539576E+01  0.46535466587E+01  0.28756340995E+01  0.57497195980E+01  0.51100000000E-03 0.  1.
         12    1    3    3    0    0  0.17541921204E+02 -0.18278747841E+02  0.50161237114E+01  0.25826209928E+02  0.00000000000E+00 0. -1.
</event>
<event>
 7    1  0.4963616E-011  0.5052883E+02  0.7816164E-02  0.1300439E+00
        -11   -1    0    0    0    0  0.00000000000E+00  0.00000000000E+00  0.45593999997E+02  0.45594000000E+02  0.51100000000E-03 0.  1.
         11   -1    0    0    0    0 -0.00000000000E+00 -0.00000000000E+00 -0.45593999997E+02  0.45594000000E+02  0.51100000000E-03 0. -1.
    9900012    2    1    2    0    0  0.11419404012E+02  0.13296782904E+02 -0.36687339541E+02  0.50528829987E+02  0.29999909227E+02 0.  0.
        -12    1    1    2    0    0 -0.11419404012E+02 -0.13296782904E+02  0.36687339541E+02  0.40659170013E+02  0.00000000000E+00 0.  1.
         11    1    3    3    0    0  0.11957556227E+01  0.63649816485E+00 -0.36844997523E+01  0.39256209839E+01  0.51100000000E-03 0. -1.
        -11    1    3    3    0    0 -0.24701167308E+01  0.18424663108E+02 -0.22270414954E+02  0.29009327290E+02  0.51100000000E-03 0.  1.
        -12    1    3    3    0    0  0.12693765120E+02 -0.57643783689E+01 -0.10732424834E+02  0.17593881713E+02  0.00000000000E+00 0.  1.
</event>
<event>
 7    1  0.4963616E-011  0.5052885E+02  0.7816164E-02  0.1300439E+00
        -11   -1    0    0    0    0  0.00000000000E+00  0.00000000000E+00  0.45593999997E+02  0.45594000000E+02  0.51100000000E-03 0.  1.
         11   -1    0    0    0    0 -0.00000000000E+00 -0.00000000000E+00 -0.45593999997E+02  0.45594000000E+02  0.51100000000E-03 0. -1.
    9900012    2    1    2    0    0  0.36329702719E+02  0.15332164859E+02 -0.99117901475E+01  0.50528853884E+02  0.29999981867E+02 0.  0.
        -12    1    1    2    0    0 -0.36329702719E+02 -0.15332164859E+02  0.99117901475E+01  0.40659146116E+02  0.00000000000E+00 0.  1.
         11    1    3    3    0    0  0.15465263855E+02 -0.84113643699E+01 -0.10794085381E+01  0.17637759487E+02  0.51100000000E-03 0. -1.
        -11    1    3    3    0    0  0.14673131088E+02  0.16742770606E+02 -0.72430736860E+01  0.23411178103E+02  0.51100000000E-03 0.  1.
         12    1    3    3    0    0  0.61913077763E+01  0.70007586227E+01 -0.15893079234E+01  0.94799162945E+01  0.00000000000E+00 0. -1.
</event>
<event>
 7    1  0.4963616E-011  0.5052888E+02  0.7816164E-02  0.1300439E+00
        -11   -1    0    0    0    0  0.00000000000E+00  0.00000000000E+00  0.45593999997E+02  0.45594000000E+02  0.51100000000E-03 0.  1.
         11   -1    0    0    0    0 -0.00000000000E+00 -0.00000000000E+00 -0.45593999997E+02  0.45594000000E+02  0.51100000000E-03 0. -1.
    9900012    2    1    2    0    0 -0.76875121169E+01  0.61314882991E+01 -0.39452139152E+02  0.50528877100E+02  0.30000052434E+02 0.  0.
        -12    1    1    2    0    0  0.76875121169E+01 -0.61314882991E+01  0.39452139152E+02  0.40659122900E+02  0.00000000000E+00 0.  1.
         11    1    3    3    0    0 -0.28949376305E+01 -0.77287136699E+01 -0.30589789849E+02  0.31683574958E+02  0.51100000000E-03 0. -1.
        -11    1    3    3    0    0 -0.35992077830E+00  0.83919013287E+01 -0.12755872186E+01  0.84959210148E+01  0.51100000000E-03 0.  1.
        -12    1    3    3    0    0 -0.44326537081E+01  0.54683006404E+01 -0.75867620844E+01  0.10349381127E+02  0.00000000000E+00 0.  1.
</event>
<event>
 7    1  0.4963616E-011  0.5052886E+02  0.7816164E-02  0.1300439E+00
        -11   -1    0    0    0    0  0.00000000000E+00  0.00000000000E+00  0.45593999997E+02  0.45594000000E+02  0.51100000000E-03 0.  1.
         11   -1    0    0    0    0 -0.00000000000E+00 -0.00000000000E+00 -0.45593999997E+02  0.45594000000E+02  0.51100000000E-03 0. -1.
    9900012    2    1    2    0    0  0.25690331415E+02 -0.15561928052E+01 -0.31476197809E+02  0.50528857206E+02  0.29999991963E+02 0.  0.
        -12    1    1    2    0    0 -0.25690331415E+02  0.15561928052E+01  0.31476197809E+02  0.40659142794E+02  0.00000000000E+00 0.  1.
         11    1    3    3    0    0  0.17768853690E+02  0.12584760394E+01 -0.34617069739E+02  0.38931445400E+02  0.51100000000E-03 0. -1.
        -11    1    3    3    0    0  0.62996407192E+01  0.11598027100E+01  0.34828848685E+01  0.72911660786E+01  0.51100000000E-03 0.  1.
         12    1    3    3    0    0  0.16218370063E+01 -0.39744715546E+01 -0.34201293856E+00  0.43062457273E+01  0.00000000000E+00 0. -1.
</event>
<event>
 7    1  0.4963616E-011  0.5052886E+02  0.7816164E-02  0.1300439E+00
        -11   -1    0    0    0    0  0.00000000000E+00  0.00000000000E+00  0.45593999997E+02  0.45594000000E+02  0.51100000000E-03 0.  1.
         11   -1    0    0    0    0 -0.00000000000E+00 -0.00000000000E+00 -0.45593999997E+02  0.45594000000E+02  0.51100000000E-03 0. -1.
    9900012    2    1    2    0    0  0.34952283746E+02  0.23972212482E+01 -0.20633876392E+02  0.50528860022E+02  0.30000000523E+02 0.  0.
        -12    1    1    2    0    0 -0.34952283746E+02 -0.23972212482E+01  0.20633876392E+02  0.40659139978E+02  0.00000000000E+00 0.  1.
         11    1    3    3    0    0  0.39255889407E+01  0.60058706058E+01  0.72104687478E+00  0.72111468659E+01  0.51100000000E-03 0. -1.
        -11    1    3    3    0    0  0.26184849154E+02 -0.55398690674E+01 -0.25261720523E+02  0.36803410148E+02  0.51100000000E-03 0.  1.
        -12    1    3    3    0    0  0.48418456516E+01  0.19312197098E+01  0.39067972559E+01  0.65143030080E+01  0.00000000000E+00 0.  1.
</event>
<event>
 7    1  0.4963616E-011  0.5052886E+02  0.7816164E-02  0.1300439E+00
        -11   -1    0    0    0    0  0.00000000000E+00  0.00000000000E+00  0.45593999997E+02  0.45594000000E+02  0.51100000000E-03 0. -1.
         11   -1    0    0    0    0 -0.00000000000E+00 -0.00000000000E+00 -0.45593999997E+02  0.45594000000E+02  0.51100000000E-03 0.  1.
    9900012    2    1    2    0    0  0.40332888766E+02 -0.55185994649E+00  0.51106945800E+01  0.50528860010E+02  0.30000000487E+02 0.  0.
        -12    1    1    2    0    0 -0.40332888766E+02  0.55185994649E+00 -0.51106945800E+01  0.40659139990E+02  0.00000000000E+00 0.  1.
         11    1    3    3    0    0  0.40508661909E+02 -0.56982181737E+00  0.90126237722E+01  0.41503057407E+02  0.51100000000E-03 0. -1.
        -11    1    3    3    0    0  0.17375487515E+01  0.33170139923E+01 -0.26178877938E+00  0.37536903328E+01  0.51100000000E-03 0.  1.
         12    1    3    3    0    0 -0.19133218947E+01 -0.32990521214E+01 -0.36401404128E+01  0.52721122709E+01  0.00000000000E+00 0. -1.
</event>
<event>
 7    1  0.4963616E-011  0.5052886E+02  0.7816164E-02  0.1300439E+00
        -11   -1    0    0    0    0  0.00000000000E+00  0.00000000000E+00  0.45593999997E+02  0.45594000000E+02  0.51100000000E-03 0. -1.
         11   -1    0    0    0    0 -0.00000000000E+00 -0.00000000000E+00 -0.45593999997E+02  0.45594000000E+02  0.51100000000E-03 0.  1.
    9900012    2    1    2    0    0  0.16698839397E+02  0.27803453295E+02  0.24521067489E+02  0.50528855849E+02  0.29999987838E+02 0.  0.
        -12    1    1    2    0    0 -0.16698839397E+02 -0.27803453295E+02 -0.24521067489E+02  0.40659144151E+02  0.00000000000E+00 0.  1.
         11    1    3    3    0    0 -0.27206374712E+01  0.10686210638E+02 -0.17149702530E+01  0.11159663493E+02  0.51100000000E-03 0. -1.
        -11    1    3    3    0    0  0.72125676101E+01  0.19071757574E+01  0.15269670855E+02  0.16994743280E+02  0.51100000000E-03 0.  1.
         12    1    3    3    0    0  0.12206909258E+02  0.15210066899E+02  0.10966366888E+02  0.22374449075E+02  0.00000000000E+00 0. -1.
</event>
<event>
 7    1  0.4963616E-011  0.5052886E+02  0.7816164E-02  0.1300439E+00
        -11   -1    0    0    0    0  0.00000000000E+00  0.00000000000E+00  0.45593999997E+02  0.45594000000E+02  0.51100000000E-03 0.  1.
         11   -1    0    0    0    0 -0.00000000000E+00 -0.00000000000E+00 -0.45593999997E+02  0.45594000000E+02  0.51100000000E-03 0. -1.
    9900012    2    1    2    0    0 -0.32795550605E+02 -0.15949243654E+02 -0.17978849900E+02  0.50528861343E+02  0.30000004539E+02 0.  0.
        -12    1    1    2    0    0  0.32795550605E+02  0.15949243654E+02  0.17978849900E+02  0.40659138657E+02  0.00000000000E+00 0.  1.
         11    1    3    3    0    0 -0.27959430517E+02 -0.81116283927E+01 -0.10652116111E+02  0.30999933031E+02  0.51100000000E-03 0. -1.
        -11    1    3    3    0    0  0.33403673238E+01 -0.77347329195E+01 -0.76009683920E+01  0.11347196480E+02  0.51100000000E-03 0.  1.
         12    1    3    3    0    0 -0.81764874116E+01 -0.10288234182E+00  0.27423460335E+00  0.81817318329E+01  0.00000000000E+00 0. -1.
</event>
<event>
 7    1  0.4963616E-011  0.5052885E+02  0.7816164E-02  0.1300439E+00
        -11   -1    0    0    0    0  0.00000000000E+00  0.00000000000E+00  0.45593999997E+02  0.45594000000E+02  0.51100000000E-03 0.  1.
         11   -1    0    0    0    0 -0.00000000000E+00 -0.00000000000E+00 -0.45593999997E+02  0.45594000000E+02  0.51100000000E-03 0. -1.
    9900012    2    1    2    0    0  0.29328548708E+02 -0.13190576707E+02 -0.24879936141E+02  0.50528852129E+02  0.29999976533E+02 0.  0.
        -12    1    1    2    0    0 -0.29328548708E+02  0.13190576707E+02  0.24879936141E+02  0.40659147871E+02  0.00000000000E+00 0.  1.
         11    1    3    3    0    0  0.28481963247E+02 -0.16673892499E+02 -0.26534504415E+02  0.42347619134E+02  0.51100000000E-03 0. -1.
        -11    1    3    3    0    0  0.74650581173E+00  0.43582079499E+01 -0.16817171323E+01  0.47306891925E+01  0.51100000000E-03 0.  1.
         12    1    3    3    0    0  0.10007964923E+00 -0.87489215758E+00  0.33362854065E+01  0.34505438032E+01  0.00000000000E+00 0. -1.
</event>
<event>
 7    1  0.4963616E-011  0.5052885E+02  0.7816164E-02  0.1300439E+00
        -11   -1    0    0    0    0  0.00000000000E+00  0.00000000000E+00  0.45593999997E+02  0.45594000000E+02  0.51100000000E-03 0. -1.
         11   -1    0    0    0    0 -0.00000000000E+00 -0.00000000000E+00 -0.45593999997E+02  0.45594000000E+02  0.51100000000E-03 0.  1.
    9900012    2    1    2    0    0 -0.10112016085E+02 -0.19385962378E+02  0.34279697816E+02  0.50528854793E+02  0.29999984628E+02 0.  0.
        -12    1    1    2    0    0  0.10112016085E+02  0.19385962378E+02 -0.34279697816E+02  0.40659145207E+02  0.00000000000E+00 0.  1.
         11    1    3    3    0    0 -0.86485294968E+01 -0.25317804965E+02  0.18817067590E+02  0.32708872553E+02  0.51100000000E-03 0. -1.
        -11    1    3    3    0    0 -0.55188913621E+00  0.34458840230E+01  0.14635729177E+02  0.15046038254E+02  0.51100000000E-03 0.  1.
         12    1    3    3    0    0 -0.91159745206E+00  0.24859585638E+01  0.82690104848E+00  0.27739439863E+01  0.00000000000E+00 0. -1.
</event>
<event>
 7    1  0.4963616E-011  0.5052886E+02  0.7816164E-02  0.1300439E+00
        -11   -1    0    0    0    0  0.00000000000E+00  0.00000000000E+00  0.45593999997E+02  0.45594000000E+02  0.51100000000E-03 0.  1.
         11   -1    0    0    0    0 -0.00000000000E+00 -0.00000000000E+00 -0.45593999997E+02  0.45594000000E+02  0.51100000000E-03 0. -1.
    9900012    2    1    2    0    0 -0.30146853334E+02 -0.17610539247E+02 -0.20837518400E+02  0.50528855499E+02  0.29999986774E+02 0.  0.
        -12    1    1    2    0    0  0.30146853334E+02  0.17610539247E+02  0.20837518400E+02  0.40659144501E+02  0.00000000000E+00 0.  1.
         11    1    3    3    0    0 -0.35206380132E+02 -0.18805638653E+02 -0.20443722148E+02  0.44845144918E+02  0.51100000000E-03 0. -1.
        -11    1    3    3    0    0  0.25542576547E+01  0.17299807002E+01  0.41527599106E-01  0.30852536674E+01  0.51100000000E-03 0.  1.
         12    1    3    3    0    0  0.25052691431E+01 -0.53488129401E+00 -0.43532385073E+00  0.25984569138E+01  0.00000000000E+00 0. -1.
</event>
<event>
 7    1  0.4963616E-011  0.5052890E+02  0.7816164E-02  0.1300439E+00
        -11   -1    0    0    0    0  0.00000000000E+00  0.00000000000E+00  0.45593999997E+02  0.45594000000E+02  0.51100000000E-03 0. -1.
         11   -1    0    0    0    0 -0.00000000000E+00 -0.00000000000E+00 -0.45593999997E+02  0.45594000000E+02  0.51100000000E-03 0.  1.
    9900012    2    1    2    0    0  0.29944012170E+02  0.39332429543E+01  0.27222197020E+02  0.50528901687E+02  0.30000127169E+02 0.  0.
        -12    1    1    2    0    0 -0.29944012170E+02 -0.39332429543E+01 -0.27222197020E+02  0.40659098313E+02  0.00000000000E+00 0.  1.
         11    1    3    3    0    0  0.31488519011E+02 -0.75792257020E+00  0.22472939651E+02  0.38692819656E+02  0.51100000000E-03 0. -1.
        -11    1    3    3    0    0  0.23353548096E+01  0.56137037410E+01  0.64636089395E+00  0.61143547857E+01  0.51100000000E-03 0.  1.
         12    1    3    3    0    0 -0.38798616503E+01 -0.92253821652E+00  0.41028964751E+01  0.57217272455E+01  0.00000000000E+00 0. -1.
</event>
<event>
 7    1  0.4963616E-011  0.5052887E+02  0.7816164E-02  0.1300439E+00
        -11   -1    0    0    0    0  0.00000000000E+00  0.00000000000E+00  0.45593999997E+02  0.45594000000E+02  0.51100000000E-03 0. -1.
         11   -1    0    0    0    0 -0.00000000000E+00 -0.00000000000E+00 -0.45593999997E+02  0.45594000000E+02  0.51100000000E-03 0.  1.
    9900012    2    1    2    0    0  0.37007127551E+02  0.71547745315E+01  0.15246208032E+02  0.50528866371E+02  0.30000019820E+02 0.  0.
        -12    1    1    2    0    0 -0.37007127551E+02 -0.71547745315E+01 -0.15246208032E+02  0.40659133629E+02  0.00000000000E+00 0.  1.
         11    1    3    3    0    0  0.15981913520E+02  0.46989628562E+00  0.12921253508E+02  0.20557265255E+02  0.51100000000E-03 0. -1.
        -11    1    3    3    0    0  0.72966185746E+01  0.83916459481E+01 -0.71347657660E+01  0.13212314223E+02  0.51100000000E-03 0.  1.
        -12    1    3    3    0    0  0.13728595456E+02 -0.17067677022E+01  0.94597202895E+01  0.16759286892E+02  0.00000000000E+00 0.  1.
</event>
<event>
 7    1  0.4963616E-011  0.5052886E+02  0.7816164E-02  0.1300439E+00
        -11   -1    0    0    0    0  0.00000000000E+00  0.00000000000E+00  0.45593999997E+02  0.45594000000E+02  0.51100000000E-03 0.  1.
         11   -1    0    0    0    0 -0.00000000000E+00 -0.00000000000E+00 -0.45593999997E+02  0.45594000000E+02  0.51100000000E-03 0. -1.
    9900012    2    1    2    0    0 -0.29208237353E+02 -0.23465190793E+02 -0.15793320282E+02  0.50528864818E+02  0.30000015101E+02 0.  0.
        -12    1    1    2    0    0  0.29208237353E+02  0.23465190793E+02  0.15793320282E+02  0.40659135182E+02  0.00000000000E+00 0.  1.
         11    1    3    3    0    0 -0.13288350380E+02 -0.11480177305E+02 -0.15142099436E+02  0.23187451399E+02  0.51100000000E-03 0. -1.
        -11    1    3    3    0    0  0.39826407863E+01  0.27986795374E-01 -0.94189785668E+00  0.40926009733E+01  0.51100000000E-03 0.  1.
        -12    1    3    3    0    0 -0.19902527759E+02 -0.12013000283E+02  0.29067701119E+00  0.23248812445E+02  0.00000000000E+00 0.  1.
</event>
<event>
 7    1  0.4963616E-011  0.5052886E+02  0.7816164E-02  0.1300439E+00
        -11   -1    0    0    0    0  0.00000000000E+00  0.00000000000E+00  0.45593999997E+02  0.45594000000E+02  0.51100000000E-03 0. -1.
         11   -1    0    0    0    0 -0.00000000000E+00 -0.00000000000E+00 -0.45593999997E+02  0.45594000000E+02  0.51100000000E-03 0.  1.
    9900012    2    1    2    0    0  0.37756282567E+02 -0.99262326655E+01  0.11362162173E+02  0.50528859607E+02  0.29999999263E+02 0.  0.
        -12    1    1    2    0    0 -0.37756282567E+02  0.99262326655E+01 -0.11362162173E+02  0.40659140393E+02  0.00000000000E+00 0.  1.
         11    1    3    3    0    0  0.16172390175E+02 -0.13298148761E+02  0.15539991553E+02  0.26074476067E+02  0.51100000000E-03 0. -1.
        -11    1    3    3    0    0  0.12267146681E+02  0.34472158980E+01 -0.72294721981E+01  0.14650305582E+02  0.51100000000E-03 0.  1.
         12    1    3    3    0    0  0.93167457122E+01 -0.75299802534E-01  0.30516428173E+01  0.98040779582E+01  0.00000000000E+00 0. -1.
</event>
<event>
 7    1  0.4963616E-011  0.5052887E+02  0.7816164E-02  0.1300439E+00
        -11   -1    0    0    0    0  0.00000000000E+00  0.00000000000E+00  0.45593999997E+02  0.45594000000E+02  0.51100000000E-03 0.  1.
         11   -1    0    0    0    0 -0.00000000000E+00 -0.00000000000E+00 -0.45593999997E+02  0.45594000000E+02  0.51100000000E-03 0. -1.
    9900012    2    1    2    0    0  0.25347615262E+02  0.11107472908E+01 -0.31771526194E+02  0.50528865286E+02  0.30000016523E+02 0.  0.
        -12    1    1    2    0    0 -0.25347615262E+02 -0.11107472908E+01  0.31771526194E+02  0.40659134714E+02  0.00000000000E+00 0.  1.
         11    1    3    3    0    0  0.20953268482E+02  0.93283325640E+01 -0.22579708859E+02  0.32185408199E+02  0.51100000000E-03 0. -1.
        -11    1    3    3    0    0 -0.28415470399E+01 -0.42085593167E+01 -0.86788633819E+01  0.10055298651E+02  0.51100000000E-03 0.  1.
         12    1    3    3    0    0  0.72358938203E+01 -0.40090259566E+01 -0.51295395222E+00  0.82881584357E+01  0.00000000000E+00 0. -1.
</event>
<event>
 7    1  0.4963616E-011  0.5052891E+02  0.7816164E-02  0.1300439E+00
        -11   -1    0    0    0    0  0.00000000000E+00  0.00000000000E+00  0.45593999997E+02  0.45594000000E+02  0.51100000000E-03 0. -1.
         11   -1    0    0    0    0 -0.00000000000E+00 -0.00000000000E+00 -0.45593999997E+02  0.45594000000E+02  0.51100000000E-03 0.  1.
    9900012    2    1    2    0    0  0.11062626768E+02  0.32429133291E+02  0.21889062793E+02  0.50528911631E+02  0.30000157394E+02 0.  0.
        -12    1    1    2    0    0 -0.11062626768E+02 -0.32429133291E+02 -0.21889062793E+02  0.40659088369E+02  0.00000000000E+00 0.  1.
         11    1    3    3    0    0  0.50301497264E+00  0.25830170312E+02  0.64884354595E+01  0.26637389462E+02  0.51100000000E-03 0. -1.
        -11    1    3    3    0    0  0.47763932513E+01  0.11714216991E+01  0.15180530047E+02  0.15957275897E+02  0.51100000000E-03 0.  1.
         12    1    3    3    0    0  0.57832185445E+01  0.54275412806E+01  0.22009728623E+00  0.79342462718E+01  0.00000000000E+00 0. -1.
</event>
<event>
 7    1  0.4963616E-011  0.5052886E+02  0.7816164E-02  0.1300439E+00
        -11   -1    0    0    0    0  0.00000000000E+00  0.00000000000E+00  0.45593999997E+02  0.45594000000E+02  0.51100000000E-03 0.  1.
         11   -1    0    0    0    0 -0.00000000000E+00 -0.00000000000E+00 -0.45593999997E+02  0.45594000000E+02  0.51100000000E-03 0. -1.
    9900012    2    1    2    0    0  0.29440729564E+02 -0.28042851234E+02  0.85844542265E-01  0.50528862873E+02  0.30000009190E+02 0.  0.
        -12    1    1    2    0    0 -0.29440729564E+02  0.28042851234E+02 -0.85844542265E-01  0.40659137127E+02  0.00000000000E+00 0.  1.
         11    1    3    3    0    0  0.88966102456E+01 -0.17725555073E+02 -0.84166481893E+01  0.21544951694E+02  0.51100000000E-03 0. -1.
        -11    1    3    3    0    0  0.20173588365E+02 -0.32835617984E+01  0.46720643618E+01  0.20966249814E+02  0.51100000000E-03 0.  1.
        -12    1    3    3    0    0  0.37053095363E+00 -0.70337343627E+01  0.38304283697E+01  0.80176613652E+01  0.00000000000E+00 0.  1.
</event>
<event>
 7    1  0.4963616E-011  0.5052884E+02  0.7816164E-02  0.1300439E+00
        -11   -1    0    0    0    0  0.00000000000E+00  0.00000000000E+00  0.45593999997E+02  0.45594000000E+02  0.51100000000E-03 0. -1.
         11   -1    0    0    0    0 -0.00000000000E+00 -0.00000000000E+00 -0.45593999997E+02  0.45594000000E+02  0.51100000000E-03 0.  1.
    9900012    2    1    2    0    0 -0.15730083469E+02  0.30931351184E+02  0.21189227946E+02  0.50528838757E+02  0.29999935886E+02 0.  0.
        -12    1    1    2    0    0  0.15730083469E+02 -0.30931351184E+02 -0.21189227946E+02  0.40659161243E+02  0.00000000000E+00 0.  1.
         11    1    3    3    0    0 -0.12080900769E+01  0.85124890030E+01  0.96751767171E+01  0.12943376508E+02  0.51100000000E-03 0. -1.
        -11    1    3    3    0    0  0.32689560291E+01 -0.13913652647E+01 -0.28680516243E+01  0.45659272006E+01  0.51100000000E-03 0.  1.
        -12    1    3    3    0    0 -0.17790949422E+02  0.23810227446E+02  0.14382102853E+02  0.33019535049E+02  0.00000000000E+00 0.  1.
</event>
<event>
 7    1  0.4963616E-011  0.5052889E+02  0.7816164E-02  0.1300439E+00
        -11   -1    0    0    0    0  0.00000000000E+00  0.00000000000E+00  0.45593999997E+02  0.45594000000E+02  0.51100000000E-03 0.  1.
         11   -1    0    0    0    0 -0.00000000000E+00 -0.00000000000E+00 -0.45593999997E+02  0.45594000000E+02  0.51100000000E-03 0. -1.
    9900012    2    1    2    0    0  0.26462837924E+02 -0.37684810038E+01 -0.30637886623E+02  0.50528888637E+02  0.30000087502E+02 0.  0.
        -12    1    1    2    0    0 -0.26462837924E+02  0.37684810038E+01  0.30637886623E+02  0.40659111363E+02  0.00000000000E+00 0.  1.
         11    1    3    3    0    0  0.21069395841E+02  0.53105269865E+01 -0.24064931511E+02  0.32422863335E+02  0.51100000000E-03 0. -1.
        -11    1    3    3    0    0 -0.17090927126E+01  0.17285434300E+01  0.15040445013E+01  0.28584979295E+01  0.51100000000E-03 0.  1.
         12    1    3    3    0    0  0.71025347956E+01 -0.10807551420E+02 -0.80769996136E+01  0.15247527373E+02  0.00000000000E+00 0. -1.
</event>
<event>
 7    1  0.4963616E-011  0.5052886E+02  0.7816164E-02  0.1300439E+00
        -11   -1    0    0    0    0  0.00000000000E+00  0.00000000000E+00  0.45593999997E+02  0.45594000000E+02  0.51100000000E-03 0. -1.
         11   -1    0    0    0    0 -0.00000000000E+00 -0.00000000000E+00 -0.45593999997E+02  0.45594000000E+02  0.51100000000E-03 0.  1.
    9900012    2    1    2    0    0  0.32160634461E+02  0.24564800404E+02 -0.39281066350E+01  0.50528857737E+02  0.29999993577E+02 0.  0.
        -12    1    1    2    0    0 -0.32160634461E+02 -0.24564800404E+02  0.39281066350E+01  0.40659142263E+02  0.00000000000E+00 0.  1.
         11    1    3    3    0    0  0.17121241481E+02  0.22869495593E+02  0.94038508937E+01  0.30076288841E+02  0.51100000000E-03 0. -1.
        -11    1    3    3    0    0  0.93968642552E+01  0.27001196294E+01 -0.82539239845E+01  0.12795271206E+02  0.51100000000E-03 0.  1.
         12    1    3    3    0    0  0.56425287250E+01 -0.10048148187E+01 -0.50780335442E+01  0.76572976897E+01  0.00000000000E+00 0. -1.
</event>
<event>
 7    1  0.4963616E-011  0.5052887E+02  0.7816164E-02  0.1300439E+00
        -11   -1    0    0    0    0  0.00000000000E+00  0.00000000000E+00  0.45593999997E+02  0.45594000000E+02  0.51100000000E-03 0.  1.
         11   -1    0    0    0    0 -0.00000000000E+00 -0.00000000000E+00 -0.45593999997E+02  0.45594000000E+02  0.51100000000E-03 0. -1.
    9900012    2    1    2    0    0  0.46831638815E+01  0.25604917245E+01 -0.40307279931E+02  0.50528868711E+02  0.30000026933E+02 0.  0.
        -12    1    1    2    0    0 -0.46831638815E+01 -0.25604917245E+01  0.40307279931E+02  0.40659131289E+02  0.00000000000E+00 0.  1.
         11    1    3    3    0    0  0.23525598032E+01  0.21768013526E+01 -0.67877478489E+01  0.75064321004E+01  0.51100000000E-03 0. -1.
        -11    1    3    3    0    0  0.18869570976E+01  0.89021585545E+01 -0.71608056534E+00  0.91280778730E+01  0.51100000000E-03 0.  1.
        -12    1    3    3    0    0  0.44364698062E+00 -0.85184681826E+01 -0.32803451516E+02  0.33894358737E+02  0.00000000000E+00 0.  1.
</event>
<event>
 7    1  0.4963616E-011  0.5052886E+02  0.7816164E-02  0.1300439E+00
        -11   -1    0    0    0    0  0.00000000000E+00  0.00000000000E+00  0.45593999997E+02  0.45594000000E+02  0.51100000000E-03 0.  1.
         11   -1    0    0    0    0 -0.00000000000E+00 -0.00000000000E+00 -0.45593999997E+02  0.45594000000E+02  0.51100000000E-03 0. -1.
    9900012    2    1    2    0    0  0.71365819373E+01 -0.47835095638E+01 -0.39741074830E+02  0.50528858418E+02  0.29999995648E+02 0.  0.
        -12    1    1    2    0    0 -0.71365819373E+01  0.47835095638E+01  0.39741074830E+02  0.40659141582E+02  0.00000000000E+00 0.  1.
         11    1    3    3    0    0  0.10529651710E+02 -0.21925597960E+01 -0.15650089323E+02  0.18989633479E+02  0.51100000000E-03 0. -1.
        -11    1    3    3    0    0 -0.66108375548E+01  0.71672487665E+01 -0.89132196873E+01  0.13210530402E+02  0.51100000000E-03 0.  1.
        -12    1    3    3    0    0  0.32177677821E+01 -0.97581985343E+01 -0.15177765820E+02  0.18328694537E+02  0.00000000000E+00 0.  1.
</event>
<event>
 7    1  0.4963616E-011  0.5052886E+02  0.7816164E-02  0.1300439E+00
        -11   -1    0    0    0    0  0.00000000000E+00  0.00000000000E+00  0.45593999997E+02  0.45594000000E+02  0.51100000000E-03 0.  1.
         11   -1    0    0    0    0 -0.00000000000E+00 -0.00000000000E+00 -0.45593999997E+02  0.45594000000E+02  0.51100000000E-03 0. -1.
    9900012    2    1    2    0    0  0.36336423839E+01 -0.19147004246E+02 -0.35684090902E+02  0.50528862379E+02  0.30000007688E+02 0.  0.
        -12    1    1    2    0    0 -0.36336423839E+01  0.19147004246E+02  0.35684090902E+02  0.40659137621E+02  0.00000000000E+00 0.  1.
         11    1    3    3    0    0  0.11626655869E+02 -0.37529844541E+01 -0.17393977232E+02  0.21255927720E+02  0.51100000000E-03 0. -1.
        -11    1    3    3    0    0 -0.10826144675E+02 -0.15966701112E+02 -0.17971407688E+02  0.26364985255E+02  0.51100000000E-03 0.  1.
         12    1    3    3    0    0  0.28331311900E+01  0.57268132074E+00 -0.31870598182E+00  0.29079494042E+01  0.00000000000E+00 0. -1.
</event>
<event>
 7    1  0.4963616E-011  0.5052886E+02  0.7816164E-02  0.1300439E+00
        -11   -1    0    0    0    0  0.00000000000E+00  0.00000000000E+00  0.45593999997E+02  0.45594000000E+02  0.51100000000E-03 0. -1.
         11   -1    0    0    0    0 -0.00000000000E+00 -0.00000000000E+00 -0.45593999997E+02  0.45594000000E+02  0.51100000000E-03 0.  1.
    9900012    2    1    2    0    0  0.14889822966E+02  0.37266161227E+02 -0.65339234707E+01  0.50528858881E+02  0.29999997056E+02 0.  0.
        -12    1    1    2    0    0 -0.14889822966E+02 -0.37266161227E+02  0.65339234707E+01  0.40659141119E+02  0.00000000000E+00 0.  1.
         11    1    3    3    0    0 -0.88005083342E+01  0.76724999992E+01  0.33722555296E+00  0.11680322106E+02  0.51100000000E-03 0. -1.
        -11    1    3    3    0    0  0.78224834152E+01  0.11096808781E+02 -0.47586514443E+01  0.14386631841E+02  0.51100000000E-03 0.  1.
         12    1    3    3    0    0  0.15867847885E+02  0.18496852447E+02 -0.21124975794E+01  0.24461904934E+02  0.00000000000E+00 0. -1.
</event>
<event>
 7    1  0.4963616E-011  0.5052882E+02  0.7816164E-02  0.1300439E+00
        -11   -1    0    0    0    0  0.00000000000E+00  0.00000000000E+00  0.45593999997E+02  0.45594000000E+02  0.51100000000E-03 0. -1.
         11   -1    0    0    0    0 -0.00000000000E+00 -0.00000000000E+00 -0.45593999997E+02  0.45594000000E+02  0.51100000000E-03 0.  1.
    9900012    2    1    2    0    0  0.17822299909E+02  0.15466507500E+02  0.33110745982E+02  0.50528822342E+02  0.29999885990E+02 0.  0.
        -12    1    1    2    0    0 -0.17822299909E+02 -0.15466507500E+02 -0.33110745982E+02  0.40659177658E+02  0.00000000000E+00 0.  1.
         11    1    3    3    0    0  0.32442814124E+01  0.89165084698E+01  0.14099791645E+02  0.16995105468E+02  0.51100000000E-03 0. -1.
        -11    1    3    3    0    0  0.15363457427E+02 -0.40770399846E+01  0.66947765948E+01  0.17247553829E+02  0.51100000000E-03 0.  1.
        -12    1    3    3    0    0 -0.78543893045E+00  0.10627039015E+02  0.12316177743E+02  0.16286163045E+02  0.00000000000E+00 0.  1.
</event>
<event>
 7    1  0.4963616E-011  0.5052885E+02  0.7816164E-02  0.1300439E+00
        -11   -1    0    0    0    0  0.00000000000E+00  0.00000000000E+00  0.45593999997E+02  0.45594000000E+02  0.51100000000E-03 0.  1.
         11   -1    0    0    0    0 -0.00000000000E+00 -0.00000000000E+00 -0.45593999997E+02  0.45594000000E+02  0.51100000000E-03 0. -1.
    9900012    2    1    2    0    0  0.23801160896E+02 -0.21843606712E+02 -0.24688626734E+02  0.50528847227E+02  0.29999961633E+02 0.  0.
        -12    1    1    2    0    0 -0.23801160896E+02  0.21843606712E+02  0.24688626734E+02  0.40659152773E+02  0.00000000000E+00 0.  1.
         11    1    3    3    0    0  0.21847010689E+02 -0.25738104091E+02 -0.28332771240E+02  0.44073663390E+02  0.51100000000E-03 0. -1.
        -11    1    3    3    0    0  0.21810260474E+01  0.11752246523E+01  0.24239953274E+01  0.34660901909E+01  0.51100000000E-03 0.  1.
         12    1    3    3    0    0 -0.22687584045E+00  0.27192727266E+01  0.12201491787E+01  0.29890936464E+01  0.00000000000E+00 0. -1.
</event>
<event>
 7    1  0.4963616E-011  0.5052885E+02  0.7816164E-02  0.1300439E+00
        -11   -1    0    0    0    0  0.00000000000E+00  0.00000000000E+00  0.45593999997E+02  0.45594000000E+02  0.51100000000E-03 0. -1.
         11   -1    0    0    0    0 -0.00000000000E+00 -0.00000000000E+00 -0.45593999997E+02  0.45594000000E+02  0.51100000000E-03 0.  1.
    9900012    2    1    2    0    0 -0.15123719798E+02 -0.28364677696E+02  0.24897475899E+02  0.50528854073E+02  0.29999982441E+02 0.  0.
        -12    1    1    2    0    0  0.15123719798E+02  0.28364677696E+02 -0.24897475899E+02  0.40659145927E+02  0.00000000000E+00 0.  1.
         11    1    3    3    0    0 -0.84675325694E+00 -0.11751185850E+02  0.44820262484E+01  0.12605392477E+02  0.51100000000E-03 0. -1.
        -11    1    3    3    0    0 -0.12611024132E+02 -0.31995301285E+01 -0.50018245411E+00  0.13020180700E+02  0.51100000000E-03 0.  1.
        -12    1    3    3    0    0 -0.16659424092E+01 -0.13413961718E+02  0.20915632105E+02  0.24903280897E+02  0.00000000000E+00 0.  1.
</event>
<event>
 7    1  0.4963616E-011  0.5052887E+02  0.7816164E-02  0.1300439E+00
        -11   -1    0    0    0    0  0.00000000000E+00  0.00000000000E+00  0.45593999997E+02  0.45594000000E+02  0.51100000000E-03 0.  1.
         11   -1    0    0    0    0 -0.00000000000E+00 -0.00000000000E+00 -0.45593999997E+02  0.45594000000E+02  0.51100000000E-03 0. -1.
    9900012    2    1    2    0    0  0.27179236542E+02  0.26377381892E+02 -0.14788097507E+02  0.50528868156E+02  0.30000025246E+02 0.  0.
        -12    1    1    2    0    0 -0.27179236542E+02 -0.26377381892E+02  0.14788097507E+02  0.40659131844E+02  0.00000000000E+00 0.  1.
         11    1    3    3    0    0  0.19616151290E+02  0.18347917434E+02 -0.15550680444E+01  0.26904603741E+02  0.51100000000E-03 0. -1.
        -11    1    3    3    0    0 -0.69461737312E+00 -0.42742123537E+01 -0.10873139608E+01  0.44647101194E+01  0.51100000000E-03 0.  1.
        -12    1    3    3    0    0  0.82577026246E+01  0.12303676812E+02 -0.12145715502E+02  0.19159554295E+02  0.00000000000E+00 0.  1.
</event>
<event>
 7    1  0.4963616E-011  0.5052887E+02  0.7816164E-02  0.1300439E+00
        -11   -1    0    0    0    0  0.00000000000E+00  0.00000000000E+00  0.45593999997E+02  0.45594000000E+02  0.51100000000E-03 0.  1.
         11   -1    0    0    0    0 -0.00000000000E+00 -0.00000000000E+00 -0.45593999997E+02  0.45594000000E+02  0.51100000000E-03 0. -1.
    9900012    2    1    2    0    0 -0.99060826738E+01  0.26616782498E+02 -0.29096074910E+02  0.50528866221E+02  0.30000019365E+02 0.  0.
        -12    1    1    2    0    0  0.99060826738E+01 -0.26616782498E+02  0.29096074910E+02  0.40659133779E+02  0.00000000000E+00 0.  1.
         11    1    3    3    0    0 -0.12768578289E+02  0.18186266051E+02 -0.10005500470E+02  0.24369794917E+02  0.51100000000E-03 0. -1.
        -11    1    3    3    0    0 -0.11322744013E-01 -0.45668372097E+01 -0.45808167418E+01  0.64683856246E+01  0.51100000000E-03 0.  1.
        -12    1    3    3    0    0  0.28738183591E+01  0.12997353657E+02 -0.14509757698E+02  0.19690685679E+02  0.00000000000E+00 0.  1.
</event>
<event>
 7    1  0.4963616E-011  0.5052884E+02  0.7816164E-02  0.1300439E+00
        -11   -1    0    0    0    0  0.00000000000E+00  0.00000000000E+00  0.45593999997E+02  0.45594000000E+02  0.51100000000E-03 0.  1.
         11   -1    0    0    0    0 -0.00000000000E+00 -0.00000000000E+00 -0.45593999997E+02  0.45594000000E+02  0.51100000000E-03 0. -1.
    9900012    2    1    2    0    0  0.17560215945E+01  0.35085952175E+01 -0.40469408844E+02  0.50528844765E+02  0.29999954146E+02 0.  0.
        -12    1    1    2    0    0 -0.17560215945E+01 -0.35085952175E+01  0.40469408844E+02  0.40659155235E+02  0.00000000000E+00 0.  1.
         11    1    3    3    0    0 -0.11015796433E+02  0.19915478439E+01 -0.27104955726E+02  0.29325631434E+02  0.51100000000E-03 0. -1.
        -11    1    3    3    0    0  0.11474563616E+02  0.48752032474E+01 -0.12137731195E+02  0.17399934934E+02  0.51100000000E-03 0.  1.
        -12    1    3    3    0    0  0.12972544121E+01 -0.33581558738E+01 -0.12267219235E+01  0.38032783963E+01  0.00000000000E+00 0.  1.
</event>
<event>
 7    1  0.4963616E-011  0.5052887E+02  0.7816164E-02  0.1300439E+00
        -11   -1    0    0    0    0  0.00000000000E+00  0.00000000000E+00  0.45593999997E+02  0.45594000000E+02  0.51100000000E-03 0.  1.
         11   -1    0    0    0    0 -0.00000000000E+00 -0.00000000000E+00 -0.45593999997E+02  0.45594000000E+02  0.51100000000E-03 0. -1.
    9900012    2    1    2    0    0 -0.14214106344E+02 -0.22891356280E+02 -0.30448481429E+02  0.50528867781E+02  0.30000024108E+02 0.  0.
        -12    1    1    2    0    0  0.14214106344E+02  0.22891356280E+02  0.30448481429E+02  0.40659132219E+02  0.00000000000E+00 0.  1.
         11    1    3    3    0    0 -0.39337292414E+01 -0.83509008068E+01 -0.83941818314E+00  0.92691096216E+01  0.51100000000E-03 0. -1.
        -11    1    3    3    0    0 -0.14415702497E+02 -0.65310504934E+01 -0.27913288935E+02  0.32087673622E+02  0.51100000000E-03 0.  1.
        -12    1    3    3    0    0  0.41353253952E+01 -0.80094049794E+01 -0.16957743105E+01  0.91720845374E+01  0.00000000000E+00 0.  1.
</event>
<event>
 7    1  0.4963616E-011  0.5052886E+02  0.7816164E-02  0.1300439E+00
        -11   -1    0    0    0    0  0.00000000000E+00  0.00000000000E+00  0.45593999997E+02  0.45594000000E+02  0.51100000000E-03 0.  1.
         11   -1    0    0    0    0 -0.00000000000E+00 -0.00000000000E+00 -0.45593999997E+02  0.45594000000E+02  0.51100000000E-03 0. -1.
    9900012    2    1    2    0    0  0.28522242427E+02 -0.18844190604E+02 -0.22012349343E+02  0.50528863805E+02  0.30000012021E+02 0.  0.
        -12    1    1    2    0    0 -0.28522242427E+02  0.18844190604E+02  0.22012349343E+02  0.40659136195E+02  0.00000000000E+00 0.  1.
         11    1    3    3    0    0  0.18905213435E+02 -0.18028674947E+02 -0.29532618926E+01  0.26289959517E+02  0.51100000000E-03 0. -1.
        -11    1    3    3    0    0 -0.26344186508E+01 -0.54003692634E+00 -0.28457434057E+01  0.39153617076E+01  0.51100000000E-03 0.  1.
         12    1    3    3    0    0  0.12251447642E+02 -0.27547873042E+00 -0.16213344045E+02  0.20323542580E+02  0.00000000000E+00 0. -1.
</event>
<event>
 7    1  0.4963616E-011  0.5052887E+02  0.7816164E-02  0.1300439E+00
        -11   -1    0    0    0    0  0.00000000000E+00  0.00000000000E+00  0.45593999997E+02  0.45594000000E+02  0.51100000000E-03 0.  1.
         11   -1    0    0    0    0 -0.00000000000E+00 -0.00000000000E+00 -0.45593999997E+02  0.45594000000E+02  0.51100000000E-03 0. -1.
    9900012    2    1    2    0    0 -0.10953718031E+02 -0.14280863317E+02 -0.36458718703E+02  0.50528866152E+02  0.30000019156E+02 0.  0.
        -12    1    1    2    0    0  0.10953718031E+02  0.14280863317E+02  0.36458718703E+02  0.40659133848E+02  0.00000000000E+00 0.  1.
         11    1    3    3    0    0 -0.93384555634E+01  0.10967857398E+01  0.32476397521E+00  0.94082497400E+01  0.51100000000E-03 0. -1.
        -11    1    3    3    0    0 -0.49371869810E+01 -0.12429138682E+02 -0.22628832017E+02  0.26285420719E+02  0.51100000000E-03 0.  1.
         12    1    3    3    0    0  0.33219245139E+01 -0.29485103746E+01 -0.14154650661E+02  0.14835195693E+02  0.00000000000E+00 0. -1.
</event>
<event>
 7    1  0.4963616E-011  0.5052887E+02  0.7816164E-02  0.1300439E+00
        -11   -1    0    0    0    0  0.00000000000E+00  0.00000000000E+00  0.45593999997E+02  0.45594000000E+02  0.51100000000E-03 0. -1.
         11   -1    0    0    0    0 -0.00000000000E+00 -0.00000000000E+00 -0.45593999997E+02  0.45594000000E+02  0.51100000000E-03 0.  1.
    9900012    2    1    2    0    0  0.28114483288E+02  0.55720010851E+01  0.28839102364E+02  0.50528865826E+02  0.30000018164E+02 0.  0.
        -12    1    1    2    0    0 -0.28114483288E+02 -0.55720010851E+01 -0.28839102364E+02  0.40659134174E+02  0.00000000000E+00 0.  1.
         11    1    3    3    0    0  0.71296660120E+01  0.58636781900E+01 -0.35195735311E+01  0.98793854799E+01  0.51100000000E-03 0. -1.
        -11    1    3    3    0    0  0.19541154585E+01  0.16712636882E+01  0.13652007055E+02  0.13892047597E+02  0.51100000000E-03 0.  1.
         12    1    3    3    0    0  0.19030701818E+02 -0.19629407931E+01  0.18706668840E+02  0.26757432749E+02  0.00000000000E+00 0. -1.
</event>
<event>
 7    1  0.4963616E-011  0.5052886E+02  0.7816164E-02  0.1300439E+00
        -11   -1    0    0    0    0  0.00000000000E+00  0.00000000000E+00  0.45593999997E+02  0.45594000000E+02  0.51100000000E-03 0. -1.
         11   -1    0    0    0    0 -0.00000000000E+00 -0.00000000000E+00 -0.45593999997E+02  0.45594000000E+02  0.51100000000E-03 0.  1.
    9900012    2    1    2    0    0  0.14862754000E+02 -0.19828556943E+02  0.32234959723E+02  0.50528858897E+02  0.29999997103E+02 0.  0.
        -12    1    1    2    0    0 -0.14862754000E+02  0.19828556943E+02 -0.32234959723E+02  0.40659141103E+02  0.00000000000E+00 0.  1.
         11    1    3    3    0    0  0.12823831786E+02 -0.22254316435E+02  0.11647703577E+02  0.28202380405E+02  0.51100000000E-03 0. -1.
        -11    1    3    3    0    0 -0.24303373652E+01  0.79448021124E+00  0.13817743048E+02  0.14052322289E+02  0.51100000000E-03 0.  1.
         12    1    3    3    0    0  0.44692595798E+01  0.16312792808E+01  0.67695130979E+01  0.82741562027E+01  0.00000000000E+00 0. -1.
</event>
<event>
 7    1  0.4963616E-011  0.5052886E+02  0.7816164E-02  0.1300439E+00
        -11   -1    0    0    0    0  0.00000000000E+00  0.00000000000E+00  0.45593999997E+02  0.45594000000E+02  0.51100000000E-03 0.  1.
         11   -1    0    0    0    0 -0.00000000000E+00 -0.00000000000E+00 -0.45593999997E+02  0.45594000000E+02  0.51100000000E-03 0. -1.
    9900012    2    1    2    0    0 -0.95537646414E+01 -0.37997340539E+02 -0.10867083017E+02  0.50528858345E+02  0.29999995425E+02 0.  0.
        -12    1    1    2    0    0  0.95537646414E+01  0.37997340539E+02  0.10867083017E+02  0.40659141655E+02  0.00000000000E+00 0.  1.
         11    1    3    3    0    0  0.38284144234E+01 -0.30116404260E+02  0.55475345757E+00  0.30363832337E+02  0.51100000000E-03 0. -1.
        -11    1    3    3    0    0 -0.78111577403E+01 -0.17440530261E+01 -0.76033192965E+01  0.11039310250E+02  0.51100000000E-03 0.  1.
         12    1    3    3    0    0 -0.55710213245E+01 -0.61368832524E+01 -0.38185171784E+01  0.91257157579E+01  0.00000000000E+00 0. -1.
</event>
<event>
 7    1  0.4963616E-011  0.5052887E+02  0.7816164E-02  0.1300439E+00
        -11   -1    0    0    0    0  0.00000000000E+00  0.00000000000E+00  0.45593999997E+02  0.45594000000E+02  0.51100000000E-03 0.  1.
         11   -1    0    0    0    0 -0.00000000000E+00 -0.00000000000E+00 -0.45593999997E+02  0.45594000000E+02  0.51100000000E-03 0. -1.
    9900012    2    1    2    0    0  0.17238903012E+02 -0.20229870072E+02  0.30769103872E+02  0.50528866053E+02  0.30000018856E+02 0.  0.
        -12    1    1    2    0    0 -0.17238903012E+02  0.20229870072E+02 -0.30769103872E+02  0.40659133947E+02  0.00000000000E+00 0.  1.
         11    1    3    3    0    0  0.16547224423E+02 -0.45492309811E+01  0.72110589500E+01  0.18614658473E+02  0.51100000000E-03 0. -1.
        -11    1    3    3    0    0  0.36891363398E+01 -0.16624396548E+02  0.23159997851E+02  0.28746578723E+02  0.51100000000E-03 0.  1.
         12    1    3    3    0    0 -0.29974577511E+01  0.94375745705E+00  0.39804707047E+00  0.31676288573E+01  0.00000000000E+00 0. -1.
</event>
<event>
 7    1  0.4963616E-011  0.5052886E+02  0.7816164E-02  0.1300439E+00
        -11   -1    0    0    0    0  0.00000000000E+00  0.00000000000E+00  0.45593999997E+02  0.45594000000E+02  0.51100000000E-03 0.  1.
         11   -1    0    0    0    0 -0.00000000000E+00 -0.00000000000E+00 -0.45593999997E+02  0.45594000000E+02  0.51100000000E-03 0. -1.
    9900012    2    1    2    0    0 -0.22885428386E+02 -0.32498704514E+02  0.85590389209E+01  0.50528858657E+02  0.29999996373E+02 0.  0.
        -12    1    1    2    0    0  0.22885428386E+02  0.32498704514E+02 -0.85590389209E+01  0.40659141343E+02  0.00000000000E+00 0.  1.
         11    1    3    3    0    0  0.66533160616E+01 -0.29824046913E+01  0.19441777939E+01  0.75459379744E+01  0.51100000000E-03 0. -1.
        -11    1    3    3    0    0 -0.74521863662E+00  0.98523632966E-01  0.10696060655E+01  0.13073312966E+01  0.51100000000E-03 0.  1.
         12    1    3    3    0    0 -0.28793525811E+02 -0.29614823456E+02  0.55452550615E+01  0.41675589386E+02  0.00000000000E+00 0. -1.
</event>
<event>
 7    1  0.4963616E-011  0.5052894E+02  0.7816164E-02  0.1300439E+00
        -11   -1    0    0    0    0  0.00000000000E+00  0.00000000000E+00  0.45593999997E+02  0.45594000000E+02  0.51100000000E-03 0.  1.
         11   -1    0    0    0    0 -0.00000000000E+00 -0.00000000000E+00 -0.45593999997E+02  0.45594000000E+02  0.51100000000E-03 0. -1.
    9900012    2    1    2    0    0  0.82414347020E+01 -0.24208616433E+01 -0.39741383635E+02  0.50528937170E+02  0.30000235020E+02 0.  0.
        -12    1    1    2    0    0 -0.82414347020E+01  0.24208616433E+01  0.39741383635E+02  0.40659062830E+02  0.00000000000E+00 0.  1.
         11    1    3    3    0    0  0.21792240354E+01  0.96980257241E+01 -0.26081226804E+02  0.27911128824E+02  0.51100000000E-03 0. -1.
        -11    1    3    3    0    0  0.79829907204E+01 -0.59322680197E+01 -0.12602056297E+02  0.16054026532E+02  0.51100000000E-03 0.  1.
         12    1    3    3    0    0 -0.19207800538E+01 -0.61866193477E+01 -0.10581005329E+01  0.65637818143E+01  0.00000000000E+00 0. -1.
</event>
<event>
 7    1  0.4963616E-011  0.5052886E+02  0.7816164E-02  0.1300439E+00
        -11   -1    0    0    0    0  0.00000000000E+00  0.00000000000E+00  0.45593999997E+02  0.45594000000E+02  0.51100000000E-03 0. -1.
         11   -1    0    0    0    0 -0.00000000000E+00 -0.00000000000E+00 -0.45593999997E+02  0.45594000000E+02  0.51100000000E-03 0.  1.
    9900012    2    1    2    0    0 -0.71141496518E+00 -0.40405338575E+02  0.44797747413E+01  0.50528857383E+02  0.29999992502E+02 0.  0.
        -12    1    1    2    0    0  0.71141496518E+00  0.40405338575E+02 -0.44797747413E+01  0.40659142617E+02  0.00000000000E+00 0.  1.
         11    1    3    3    0    0 -0.42430148008E+01 -0.87352239657E+01  0.88355762338E+01  0.13129155341E+02  0.51100000000E-03 0. -1.
        -11    1    3    3    0    0  0.11308495530E+02 -0.18521947377E+02 -0.80329165659E+00  0.21716120361E+02  0.51100000000E-03 0.  1.
         12    1    3    3    0    0 -0.77768956945E+01 -0.13148167232E+02 -0.35525098360E+01  0.15683581681E+02  0.00000000000E+00 0. -1.
</event>
<event>
 7    1  0.4963616E-011  0.5052886E+02  0.7816164E-02  0.1300439E+00
        -11   -1    0    0    0    0  0.00000000000E+00  0.00000000000E+00  0.45593999997E+02  0.45594000000E+02  0.51100000000E-03 0. -1.
         11   -1    0    0    0    0 -0.00000000000E+00 -0.00000000000E+00 -0.45593999997E+02  0.45594000000E+02  0.51100000000E-03 0.  1.
    9900012    2    1    2    0    0  0.56454662638E+01  0.39896882223E+02  0.54344614299E+01  0.50528857468E+02  0.29999992759E+02 0.  0.
        -12    1    1    2    0    0 -0.56454662638E+01 -0.39896882223E+02 -0.54344614299E+01  0.40659142532E+02  0.00000000000E+00 0.  1.
         11    1    3    3    0    0  0.32037789389E+01  0.14412858267E+02  0.14524989034E+02  0.20711590706E+02  0.51100000000E-03 0. -1.
        -11    1    3    3    0    0  0.37350786858E+01  0.16102174733E+02 -0.11386993917E+02  0.20072231431E+02  0.51100000000E-03 0.  1.
        -12    1    3    3    0    0 -0.12933913609E+01  0.93818492231E+01  0.22964663129E+01  0.97450353300E+01  0.00000000000E+00 0.  1.
</event>
<event>
 7    1  0.4963616E-011  0.5052887E+02  0.7816164E-02  0.1300439E+00
        -11   -1    0    0    0    0  0.00000000000E+00  0.00000000000E+00  0.45593999997E+02  0.45594000000E+02  0.51100000000E-03 0. -1.
         11   -1    0    0    0    0 -0.00000000000E+00 -0.00000000000E+00 -0.45593999997E+02  0.45594000000E+02  0.51100000000E-03 0.  1.
    9900012    2    1    2    0    0 -0.33194219275E+02 -0.15314600479E+01  0.23429969839E+02  0.50528867572E+02  0.30000023471E+02 0.  0.
        -12    1    1    2    0    0  0.33194219275E+02  0.15314600479E+01 -0.23429969839E+02  0.40659132428E+02  0.00000000000E+00 0.  1.
         11    1    3    3    0    0 -0.35188632974E+02  0.18289542501E+01  0.21598676099E+02  0.41329018543E+02  0.51100000000E-03 0. -1.
        -11    1    3    3    0    0  0.75766031656E+00 -0.58387399716E+01  0.15091785148E-01  0.58877127677E+01  0.51100000000E-03 0.  1.
         12    1    3    3    0    0  0.12367533823E+01  0.24783256736E+01  0.18162019553E+01  0.33121362616E+01  0.00000000000E+00 0. -1.
</event>
<event>
 7    1  0.4963616E-011  0.5052882E+02  0.7816164E-02  0.1300439E+00
        -11   -1    0    0    0    0  0.00000000000E+00  0.00000000000E+00  0.45593999997E+02  0.45594000000E+02  0.51100000000E-03 0. -1.
         11   -1    0    0    0    0 -0.00000000000E+00 -0.00000000000E+00 -0.45593999997E+02  0.45594000000E+02  0.51100000000E-03 0.  1.
    9900012    2    1    2    0    0  0.13318297702E+02 -0.32542437490E+02  0.20415232229E+02  0.50528819015E+02  0.29999875877E+02 0.  0.
        -12    1    1    2    0    0 -0.13318297702E+02  0.32542437490E+02 -0.20415232229E+02  0.40659180985E+02  0.00000000000E+00 0.  1.
         11    1    3    3    0    0  0.12828766291E+01  0.16976013656E+01  0.52203076166E+01  0.56373073994E+01  0.51100000000E-03 0. -1.
        -11    1    3    3    0    0 -0.25394013023E+01 -0.19198883238E+02  0.62181104837E+00  0.19376076120E+02  0.51100000000E-03 0.  1.
        -12    1    3    3    0    0  0.14574822376E+02 -0.15041155617E+02  0.14573113564E+02  0.25515435495E+02  0.00000000000E+00 0.  1.
</event>
<event>
 7    1  0.4963616E-011  0.5052885E+02  0.7816164E-02  0.1300439E+00
        -11   -1    0    0    0    0  0.00000000000E+00  0.00000000000E+00  0.45593999997E+02  0.45594000000E+02  0.51100000000E-03 0.  1.
         11   -1    0    0    0    0 -0.00000000000E+00 -0.00000000000E+00 -0.45593999997E+02  0.45594000000E+02  0.51100000000E-03 0. -1.
    9900012    2    1    2    0    0  0.22712223437E+02 -0.28643769881E+02  0.17800436284E+02  0.50528853694E+02  0.29999981289E+02 0.  0.
        -12    1    1    2    0    0 -0.22712223437E+02  0.28643769881E+02 -0.17800436284E+02  0.40659146306E+02  0.00000000000E+00 0.  1.
         11    1    3    3    0    0  0.20504250106E+02 -0.15772891439E+02  0.49567438404E+01  0.26339659954E+02  0.51100000000E-03 0. -1.
        -11    1    3    3    0    0  0.56728016630E+00  0.11136715511E+01  0.96765464403E+01  0.97569268924E+01  0.51100000000E-03 0.  1.
        -12    1    3    3    0    0  0.16406931647E+01 -0.13984549993E+02  0.31671460029E+01  0.14432266847E+02  0.00000000000E+00 0.  1.
</event>
<event>
 7    1  0.4963616E-011  0.5052884E+02  0.7816164E-02  0.1300439E+00
        -11   -1    0    0    0    0  0.00000000000E+00  0.00000000000E+00  0.45593999997E+02  0.45594000000E+02  0.51100000000E-03 0.  1.
         11   -1    0    0    0    0 -0.00000000000E+00 -0.00000000000E+00 -0.45593999997E+02  0.45594000000E+02  0.51100000000E-03 0. -1.
    9900012    2    1    2    0    0 -0.38374679516E+02 -0.22174227003E+01 -0.13252705774E+02  0.50528841109E+02  0.29999943036E+02 0.  0.
        -12    1    1    2    0    0  0.38374679516E+02  0.22174227003E+01  0.13252705774E+02  0.40659158891E+02  0.00000000000E+00 0.  1.
         11    1    3    3    0    0 -0.95873457564E+01 -0.10046943615E+02 -0.14539741479E+02  0.20106276562E+02  0.51100000000E-03 0. -1.
        -11    1    3    3    0    0 -0.98498848042E+01  0.55756293400E+01  0.19334907320E+00  0.11320126206E+02  0.51100000000E-03 0.  1.
         12    1    3    3    0    0 -0.18937448955E+02  0.22538915746E+01  0.10936866316E+01  0.19102438342E+02  0.00000000000E+00 0. -1.
</event>
<event>
 7    1  0.4963616E-011  0.5052877E+02  0.7816164E-02  0.1300439E+00
        -11   -1    0    0    0    0  0.00000000000E+00  0.00000000000E+00  0.45593999997E+02  0.45594000000E+02  0.51100000000E-03 0. -1.
         11   -1    0    0    0    0 -0.00000000000E+00 -0.00000000000E+00 -0.45593999997E+02  0.45594000000E+02  0.51100000000E-03 0.  1.
    9900012    2    1    2    0    0 -0.30247686465E+02 -0.15310802606E+02  0.22446153664E+02  0.50528769471E+02  0.29999725283E+02 0.  0.
        -12    1    1    2    0    0  0.30247686465E+02  0.15310802606E+02 -0.22446153664E+02  0.40659230529E+02  0.00000000000E+00 0.  1.
         11    1    3    3    0    0 -0.16414230943E+02 -0.74520667854E+01  0.20136002729E+01  0.18138766858E+02  0.51100000000E-03 0. -1.
        -11    1    3    3    0    0 -0.65613083359E+00  0.59005658985E+01  0.63906803216E+01  0.87228424741E+01  0.51100000000E-03 0.  1.
        -12    1    3    3    0    0 -0.13177324689E+02 -0.13759301719E+02  0.14041873069E+02  0.23667160139E+02  0.00000000000E+00 0.  1.
</event>
<event>
 7    1  0.4963616E-011  0.5052886E+02  0.7816164E-02  0.1300439E+00
        -11   -1    0    0    0    0  0.00000000000E+00  0.00000000000E+00  0.45593999997E+02  0.45594000000E+02  0.51100000000E-03 0.  1.
         11   -1    0    0    0    0 -0.00000000000E+00 -0.00000000000E+00 -0.45593999997E+02  0.45594000000E+02  0.51100000000E-03 0. -1.
    9900012    2    1    2    0    0 -0.32431934113E+02  0.17366364297E+02 -0.17313128284E+02  0.50528863632E+02  0.30000011496E+02 0.  0.
        -12    1    1    2    0    0  0.32431934113E+02 -0.17366364297E+02  0.17313128284E+02  0.40659136368E+02  0.00000000000E+00 0.  1.
         11    1    3    3    0    0 -0.20347022536E+02  0.10471557554E+02 -0.25480785786E+02  0.34247996850E+02  0.51100000000E-03 0. -1.
        -11    1    3    3    0    0 -0.83512825026E+01  0.49876851992E+01  0.68092439636E+01  0.11873783167E+02  0.51100000000E-03 0.  1.
         12    1    3    3    0    0 -0.37336290750E+01  0.19071215434E+01  0.13584135384E+01  0.44070836153E+01  0.00000000000E+00 0. -1.
</event>
<event>
 7    1  0.4963616E-011  0.5052886E+02  0.7816164E-02  0.1300439E+00
        -11   -1    0    0    0    0  0.00000000000E+00  0.00000000000E+00  0.45593999997E+02  0.45594000000E+02  0.51100000000E-03 0.  1.
         11   -1    0    0    0    0 -0.00000000000E+00 -0.00000000000E+00 -0.45593999997E+02  0.45594000000E+02  0.51100000000E-03 0. -1.
    9900012    2    1    2    0    0 -0.15587624310E+02 -0.34533715462E+02  0.14751749909E+02  0.50528860061E+02  0.30000000641E+02 0.  0.
        -12    1    1    2    0    0  0.15587624310E+02  0.34533715462E+02 -0.14751749909E+02  0.40659139939E+02  0.00000000000E+00 0.  1.
         11    1    3    3    0    0 -0.70634702070E+01 -0.86132174187E+00 -0.26479254034E+01  0.75924960132E+01  0.51100000000E-03 0. -1.
        -11    1    3    3    0    0  0.16932599532E+01 -0.25898277473E+02  0.84820239288E+01  0.27304443512E+02  0.51100000000E-03 0.  1.
        -12    1    3    3    0    0 -0.10217414056E+02 -0.77741162472E+01  0.89176513841E+01  0.15631920535E+02  0.00000000000E+00 0.  1.
</event>
<event>
 7    1  0.4963616E-011  0.5052886E+02  0.7816164E-02  0.1300439E+00
        -11   -1    0    0    0    0  0.00000000000E+00  0.00000000000E+00  0.45593999997E+02  0.45594000000E+02  0.51100000000E-03 0. -1.
         11   -1    0    0    0    0 -0.00000000000E+00 -0.00000000000E+00 -0.45593999997E+02  0.45594000000E+02  0.51100000000E-03 0.  1.
    9900012    2    1    2    0    0 -0.97015353413E+01  0.39459698401E+02 -0.14063220697E+01  0.50528864155E+02  0.30000013085E+02 0.  0.
        -12    1    1    2    0    0  0.97015353413E+01 -0.39459698401E+02  0.14063220697E+01  0.40659135845E+02  0.00000000000E+00 0.  1.
         11    1    3    3    0    0 -0.69553677036E+01  0.60966862471E+01  0.10216105380E+02  0.13780984453E+02  0.51100000000E-03 0. -1.
        -11    1    3    3    0    0 -0.22566634973E+01  0.72012554022E+01 -0.67642216871E+01  0.10134362575E+02  0.51100000000E-03 0.  1.
         12    1    3    3    0    0 -0.48950414040E+00  0.26161756752E+02 -0.48582057626E+01  0.26613517127E+02  0.00000000000E+00 0. -1.
</event>
<event>
 7    1  0.4963616E-011  0.5052886E+02  0.7816164E-02  0.1300439E+00
        -11   -1    0    0    0    0  0.00000000000E+00  0.00000000000E+00  0.45593999997E+02  0.45594000000E+02  0.51100000000E-03 0. -1.
         11   -1    0    0    0    0 -0.00000000000E+00 -0.00000000000E+00 -0.45593999997E+02  0.45594000000E+02  0.51100000000E-03 0.  1.
    9900012    2    1    2    0    0 -0.22455820389E+01  0.39901131220E+02 -0.74848254914E+01  0.50528861741E+02  0.30000005748E+02 0.  0.
        -12    1    1    2    0    0  0.22455820389E+01 -0.39901131220E+02  0.74848254914E+01  0.40659138259E+02  0.00000000000E+00 0.  1.
         11    1    3    3    0    0 -0.30807268769E+01  0.25731616352E+02 -0.15175095972E+01  0.25959772608E+02  0.51100000000E-03 0. -1.
        -11    1    3    3    0    0  0.13187876925E+01 -0.43026796141E+01  0.13440896439E+01  0.46966828796E+01  0.51100000000E-03 0.  1.
        -12    1    3    3    0    0 -0.48364285453E+00  0.18472194482E+02 -0.73114055380E+01  0.19872406254E+02  0.00000000000E+00 0.  1.
</event>
<event>
 7    1  0.4963616E-011  0.5052887E+02  0.7816164E-02  0.1300439E+00
        -11   -1    0    0    0    0  0.00000000000E+00  0.00000000000E+00  0.45593999997E+02  0.45594000000E+02  0.51100000000E-03 0.  1.
         11   -1    0    0    0    0 -0.00000000000E+00 -0.00000000000E+00 -0.45593999997E+02  0.45594000000E+02  0.51100000000E-03 0. -1.
    9900012    2    1    2    0    0  0.40322079816E+01  0.27199473187E+02 -0.29951534536E+02  0.50528874777E+02  0.30000045371E+02 0.  0.
        -12    1    1    2    0    0 -0.40322079816E+01 -0.27199473187E+02  0.29951534536E+02  0.40659125223E+02  0.00000000000E+00 0.  1.
         11    1    3    3    0    0 -0.21107875305E+01  0.13865988929E+02 -0.30378819659E+02  0.33460331096E+02  0.51100000000E-03 0. -1.
        -11    1    3    3    0    0  0.67283957116E+01  0.70607369091E+01  0.30870230361E+01  0.10230103911E+02  0.51100000000E-03 0.  1.
        -12    1    3    3    0    0 -0.58540019950E+00  0.62727473495E+01 -0.26597379133E+01  0.68384397688E+01  0.00000000000E+00 0.  1.
</event>
<event>
 7    1  0.4963616E-011  0.5052885E+02  0.7816164E-02  0.1300439E+00
        -11   -1    0    0    0    0  0.00000000000E+00  0.00000000000E+00  0.45593999997E+02  0.45594000000E+02  0.51100000000E-03 0.  1.
         11   -1    0    0    0    0 -0.00000000000E+00 -0.00000000000E+00 -0.45593999997E+02  0.45594000000E+02  0.51100000000E-03 0. -1.
    9900012    2    1    2    0    0 -0.35185076912E+02 -0.13022835143E+02 -0.15671077760E+02  0.50528849115E+02  0.29999967371E+02 0.  0.
        -12    1    1    2    0    0  0.35185076912E+02  0.13022835143E+02  0.15671077760E+02  0.40659150885E+02  0.00000000000E+00 0.  1.
         11    1    3    3    0    0 -0.15629014870E+02 -0.50679740068E+01 -0.14108613188E+02  0.21656487081E+02  0.51100000000E-03 0. -1.
        -11    1    3    3    0    0 -0.10696397475E+02  0.58896688646E+01  0.93754892252E+00  0.12246636948E+02  0.51100000000E-03 0.  1.
        -12    1    3    3    0    0 -0.88596645670E+01 -0.13844530001E+02 -0.25000134952E+01  0.16625725087E+02  0.00000000000E+00 0.  1.
</event>
<event>
 7    1  0.4963616E-011  0.5052886E+02  0.7816164E-02  0.1300439E+00
        -11   -1    0    0    0    0  0.00000000000E+00  0.00000000000E+00  0.45593999997E+02  0.45594000000E+02  0.51100000000E-03 0.  1.
         11   -1    0    0    0    0 -0.00000000000E+00 -0.00000000000E+00 -0.45593999997E+02  0.45594000000E+02  0.51100000000E-03 0. -1.
    9900012    2    1    2    0    0  0.30269775634E+02 -0.46820406816E+01 -0.26739193350E+02  0.50528864705E+02  0.30000014758E+02 0.  0.
        -12    1    1    2    0    0 -0.30269775634E+02  0.46820406816E+01  0.26739193350E+02  0.40659135295E+02  0.00000000000E+00 0.  1.
         11    1    3    3    0    0  0.26739312161E+02  0.67313594637E+01 -0.25163252190E+02  0.37329496060E+02  0.51100000000E-03 0. -1.
        -11    1    3    3    0    0  0.39146930602E+01 -0.59266437211E+01 -0.26761115475E+01  0.75902240302E+01  0.51100000000E-03 0.  1.
         12    1    3    3    0    0 -0.38422958673E+00 -0.54867564242E+01  0.11001703870E+01  0.56091446152E+01  0.00000000000E+00 0. -1.
</event>
<event>
 7    1  0.4963616E-011  0.5052885E+02  0.7816164E-02  0.1300439E+00
        -11   -1    0    0    0    0  0.00000000000E+00  0.00000000000E+00  0.45593999997E+02  0.45594000000E+02  0.51100000000E-03 0.  1.
         11   -1    0    0    0    0 -0.00000000000E+00 -0.00000000000E+00 -0.45593999997E+02  0.45594000000E+02  0.51100000000E-03 0. -1.
    9900012    2    1    2    0    0 -0.11342326199E+02  0.27766121910E+02 -0.27451051319E+02  0.50528854558E+02  0.29999983915E+02 0.  0.
        -12    1    1    2    0    0  0.11342326199E+02 -0.27766121910E+02  0.27451051319E+02  0.40659145442E+02  0.00000000000E+00 0.  1.
         11    1    3    3    0    0  0.41792407611E+00  0.13610920287E+02 -0.26927680517E+02  0.30175019302E+02  0.51100000000E-03 0. -1.
        -11    1    3    3    0    0 -0.11791372036E+02  0.14853257009E+02 -0.16413164323E+01  0.19035483134E+02  0.51100000000E-03 0.  1.
         12    1    3    3    0    0  0.31121760258E-01 -0.69805538520E+00  0.11179456305E+01  0.13183521220E+01  0.00000000000E+00 0. -1.
</event>
<event>
 7    1  0.4963616E-011  0.5052883E+02  0.7816164E-02  0.1300439E+00
        -11   -1    0    0    0    0  0.00000000000E+00  0.00000000000E+00  0.45593999997E+02  0.45594000000E+02  0.51100000000E-03 0. -1.
         11   -1    0    0    0    0 -0.00000000000E+00 -0.00000000000E+00 -0.45593999997E+02  0.45594000000E+02  0.51100000000E-03 0.  1.
    9900012    2    1    2    0    0  0.28853764988E+02 -0.18509950762E+02 -0.21863441104E+02  0.50528830209E+02  0.29999909904E+02 0.  0.
        -12    1    1    2    0    0 -0.28853764988E+02  0.18509950762E+02  0.21863441104E+02  0.40659169791E+02  0.00000000000E+00 0.  1.
         11    1    3    3    0    0  0.14153354358E+01 -0.46631571680E+01  0.24316210216E+01  0.54461904321E+01  0.51100000000E-03 0. -1.
        -11    1    3    3    0    0  0.19840277286E+02 -0.22097246515E+01 -0.23952052676E+02  0.31180447615E+02  0.51100000000E-03 0.  1.
        -12    1    3    3    0    0  0.75981522659E+01 -0.11637068943E+02 -0.34300944877E+00  0.13902192162E+02  0.00000000000E+00 0.  1.
</event>
<event>
 7    1  0.4963616E-011  0.5052886E+02  0.7816164E-02  0.1300439E+00
        -11   -1    0    0    0    0  0.00000000000E+00  0.00000000000E+00  0.45593999997E+02  0.45594000000E+02  0.51100000000E-03 0.  1.
         11   -1    0    0    0    0 -0.00000000000E+00 -0.00000000000E+00 -0.45593999997E+02  0.45594000000E+02  0.51100000000E-03 0. -1.
    9900012    2    1    2    0    0 -0.13990853347E+02 -0.14268987335E+01 -0.38149514618E+02  0.50528862245E+02  0.30000007280E+02 0.  0.
        -12    1    1    2    0    0  0.13990853347E+02  0.14268987335E+01  0.38149514618E+02  0.40659137755E+02  0.00000000000E+00 0.  1.
         11    1    3    3    0    0 -0.19913102441E+02  0.47355038535E+01 -0.25475807161E+02  0.32679862245E+02  0.51100000000E-03 0. -1.
        -11    1    3    3    0    0 -0.18157013193E+01 -0.31883927019E+01 -0.15670674101E+01  0.39897769149E+01  0.51100000000E-03 0.  1.
         12    1    3    3    0    0  0.77379504133E+01 -0.29740098851E+01 -0.11106640047E+02  0.13859223086E+02  0.00000000000E+00 0. -1.
</event>
<event>
 7    1  0.4963616E-011  0.5052890E+02  0.7816164E-02  0.1300439E+00
        -11   -1    0    0    0    0  0.00000000000E+00  0.00000000000E+00  0.45593999997E+02  0.45594000000E+02  0.51100000000E-03 0. -1.
         11   -1    0    0    0    0 -0.00000000000E+00 -0.00000000000E+00 -0.45593999997E+02  0.45594000000E+02  0.51100000000E-03 0.  1.
    9900012    2    1    2    0    0  0.26925906530E+02 -0.16038621024E+02  0.25902140436E+02  0.50528896640E+02  0.30000111828E+02 0.  0.
        -12    1    1    2    0    0 -0.26925906530E+02  0.16038621024E+02 -0.25902140436E+02  0.40659103360E+02  0.00000000000E+00 0.  1.
         11    1    3    3    0    0  0.24707372177E+02 -0.18406363604E+02  0.19826305229E+02  0.36637833455E+02  0.51100000000E-03 0. -1.
        -11    1    3    3    0    0  0.42955222926E+00  0.52883381455E+01 -0.15532616055E+01  0.55284407688E+01  0.51100000000E-03 0.  1.
        -12    1    3    3    0    0  0.17889821240E+01 -0.29205955656E+01  0.76290968130E+01  0.83626224164E+01  0.00000000000E+00 0.  1.
</event>
<event>
 7    1  0.4963616E-011  0.5052886E+02  0.7816164E-02  0.1300439E+00
        -11   -1    0    0    0    0  0.00000000000E+00  0.00000000000E+00  0.45593999997E+02  0.45594000000E+02  0.51100000000E-03 0. -1.
         11   -1    0    0    0    0 -0.00000000000E+00 -0.00000000000E+00 -0.45593999997E+02  0.45594000000E+02  0.51100000000E-03 0.  1.
    9900012    2    1    2    0    0 -0.23599604999E+02  0.15766103765E+02  0.29114504320E+02  0.50528859013E+02  0.29999997454E+02 0.  0.
        -12    1    1    2    0    0  0.23599604999E+02 -0.15766103765E+02 -0.29114504320E+02  0.40659140987E+02  0.00000000000E+00 0.  1.
         11    1    3    3    0    0 -0.19789435623E+02  0.10737201703E+02  0.25088520586E+02  0.33709688936E+02  0.51100000000E-03 0. -1.
        -11    1    3    3    0    0 -0.15306943673E+01 -0.72335939197E+00 -0.53355079319E+01  0.55976708735E+01  0.51100000000E-03 0.  1.
        -12    1    3    3    0    0 -0.22794750083E+01  0.57522614547E+01  0.93614916660E+01  0.11221499203E+02  0.00000000000E+00 0.  1.
</event>
<event>
 7    1  0.4963616E-011  0.5052886E+02  0.7816164E-02  0.1300439E+00
        -11   -1    0    0    0    0  0.00000000000E+00  0.00000000000E+00  0.45593999997E+02  0.45594000000E+02  0.51100000000E-03 0. -1.
         11   -1    0    0    0    0 -0.00000000000E+00 -0.00000000000E+00 -0.45593999997E+02  0.45594000000E+02  0.51100000000E-03 0.  1.
    9900012    2    1    2    0    0  0.27901050440E+02  0.29017321300E+02  0.57177122189E+01  0.50528858542E+02  0.29999996024E+02 0.  0.
        -12    1    1    2    0    0 -0.27901050440E+02 -0.29017321300E+02 -0.57177122189E+01  0.40659141458E+02  0.00000000000E+00 0.  1.
         11    1    3    3    0    0  0.20017001794E+02  0.21776257492E+02 -0.57530930070E+01  0.30132770045E+02  0.51100000000E-03 0. -1.
        -11    1    3    3    0    0  0.66766530732E+00 -0.36526178986E+01  0.34190054689E+01  0.50474739358E+01  0.51100000000E-03 0.  1.
         12    1    3    3    0    0  0.72163833384E+01  0.10893681707E+02  0.80517997570E+01  0.15348614561E+02  0.00000000000E+00 0. -1.
</event>
<event>
 7    1  0.4963616E-011  0.5052886E+02  0.7816164E-02  0.1300439E+00
        -11   -1    0    0    0    0  0.00000000000E+00  0.00000000000E+00  0.45593999997E+02  0.45594000000E+02  0.51100000000E-03 0. -1.
         11   -1    0    0    0    0 -0.00000000000E+00 -0.00000000000E+00 -0.45593999997E+02  0.45594000000E+02  0.51100000000E-03 0.  1.
    9900012    2    1    2    0    0  0.19662945161E+02  0.22908004632E+02  0.27235223770E+02  0.50528862006E+02  0.30000006554E+02 0.  0.
        -12    1    1    2    0    0 -0.19662945161E+02 -0.22908004632E+02 -0.27235223770E+02  0.40659137994E+02  0.00000000000E+00 0.  1.
         11    1    3    3    0    0  0.13032660977E+02  0.27505581433E+02  0.23667512055E+02  0.38555912507E+02  0.51100000000E-03 0. -1.
        -11    1    3    3    0    0  0.22912978370E+01 -0.29259079821E+01 -0.23877195086E+01  0.44172602380E+01  0.51100000000E-03 0.  1.
         12    1    3    3    0    0  0.43389863467E+01 -0.16716688187E+01  0.59554312232E+01  0.75556892611E+01  0.00000000000E+00 0. -1.
</event>
<event>
 7    1  0.4963616E-011  0.5052886E+02  0.7816164E-02  0.1300439E+00
        -11   -1    0    0    0    0  0.00000000000E+00  0.00000000000E+00  0.45593999997E+02  0.45594000000E+02  0.51100000000E-03 0.  1.
         11   -1    0    0    0    0 -0.00000000000E+00 -0.00000000000E+00 -0.45593999997E+02  0.45594000000E+02  0.51100000000E-03 0. -1.
    9900012    2    1    2    0    0  0.17892463028E+02 -0.82847254257E+01 -0.35558243984E+02  0.50528860513E+02  0.30000002015E+02 0.  0.
        -12    1    1    2    0    0 -0.17892463028E+02  0.82847254257E+01  0.35558243984E+02  0.40659139487E+02  0.00000000000E+00 0.  1.
         11    1    3    3    0    0  0.18717022282E+02 -0.62577976058E+01 -0.15598505382E+02  0.25155522741E+02  0.51100000000E-03 0. -1.
        -11    1    3    3    0    0 -0.29428125079E+01  0.63562404703E+01 -0.83889632018E+01  0.10928707254E+02  0.51100000000E-03 0.  1.
         12    1    3    3    0    0  0.21182532538E+01 -0.83831682902E+01 -0.11570775401E+02  0.14444630518E+02  0.00000000000E+00 0. -1.
</event>
<event>
 7    1  0.4963616E-011  0.5052886E+02  0.7816164E-02  0.1300439E+00
        -11   -1    0    0    0    0  0.00000000000E+00  0.00000000000E+00  0.45593999997E+02  0.45594000000E+02  0.51100000000E-03 0.  1.
         11   -1    0    0    0    0 -0.00000000000E+00 -0.00000000000E+00 -0.45593999997E+02  0.45594000000E+02  0.51100000000E-03 0. -1.
    9900012    2    1    2    0    0  0.18342479276E+02  0.28801175628E+02 -0.22072870974E+02  0.50528857159E+02  0.29999991820E+02 0.  0.
        -12    1    1    2    0    0 -0.18342479276E+02 -0.28801175628E+02  0.22072870974E+02  0.40659142841E+02  0.00000000000E+00 0.  1.
         11    1    3    3    0    0 -0.29170801666E+01  0.54970347920E+01  0.22204099738E+01  0.66073420462E+01  0.51100000000E-03 0. -1.
        -11    1    3    3    0    0  0.24218101477E+02  0.22250846739E+02 -0.24104263094E+02  0.40775386194E+02  0.51100000000E-03 0.  1.
        -12    1    3    3    0    0 -0.29585420339E+01  0.10532940976E+01 -0.18901785341E+00  0.31461289185E+01  0.00000000000E+00 0.  1.
</event>
<event>
 7    1  0.4963616E-011  0.5052886E+02  0.7816164E-02  0.1300439E+00
        -11   -1    0    0    0    0  0.00000000000E+00  0.00000000000E+00  0.45593999997E+02  0.45594000000E+02  0.51100000000E-03 0. -1.
         11   -1    0    0    0    0 -0.00000000000E+00 -0.00000000000E+00 -0.45593999997E+02  0.45594000000E+02  0.51100000000E-03 0.  1.
    9900012    2    1    2    0    0  0.21988342986E+02 -0.32949761606E+02  0.91646740558E+01  0.50528864892E+02  0.30000015327E+02 0.  0.
        -12    1    1    2    0    0 -0.21988342986E+02  0.32949761606E+02 -0.91646740558E+01  0.40659135108E+02  0.00000000000E+00 0.  1.
         11    1    3    3    0    0  0.25495999234E+02 -0.16995910096E+02  0.11586016162E+02  0.32758856935E+02  0.51100000000E-03 0. -1.
        -11    1    3    3    0    0 -0.11002595902E+01 -0.14705115064E+02 -0.28650247554E+01  0.15021962166E+02  0.51100000000E-03 0.  1.
        -12    1    3    3    0    0 -0.24073966576E+01 -0.12487364465E+01  0.44368264902E+00  0.27480457916E+01  0.00000000000E+00 0.  1.
</event>
<event>
 7    1  0.4963616E-011  0.5052886E+02  0.7816164E-02  0.1300439E+00
        -11   -1    0    0    0    0  0.00000000000E+00  0.00000000000E+00  0.45593999997E+02  0.45594000000E+02  0.51100000000E-03 0.  1.
         11   -1    0    0    0    0 -0.00000000000E+00 -0.00000000000E+00 -0.45593999997E+02  0.45594000000E+02  0.51100000000E-03 0. -1.
    9900012    2    1    2    0    0 -0.17287395812E+02 -0.30429656113E+02 -0.20696558277E+02  0.50528861425E+02  0.30000004787E+02 0.  0.
        -12    1    1    2    0    0  0.17287395812E+02  0.30429656113E+02  0.20696558277E+02  0.40659138575E+02  0.00000000000E+00 0.  1.
         11    1    3    3    0    0 -0.16045320252E+01 -0.78166889560E+01  0.91457702884E+00  0.80319113950E+01  0.51100000000E-03 0. -1.
        -11    1    3    3    0    0 -0.94435881932E-01 -0.13717486643E+01 -0.15355635235E+02  0.15417073207E+02  0.51100000000E-03 0.  1.
        -12    1    3    3    0    0 -0.15588427905E+02 -0.21241218493E+02 -0.62555000712E+01  0.27079876823E+02  0.00000000000E+00 0.  1.
</event>
<event>
 7    1  0.4963616E-011  0.5052880E+02  0.7816164E-02  0.1300439E+00
        -11   -1    0    0    0    0  0.00000000000E+00  0.00000000000E+00  0.45593999997E+02  0.45594000000E+02  0.51100000000E-03 0.  1.
         11   -1    0    0    0    0 -0.00000000000E+00 -0.00000000000E+00 -0.45593999997E+02  0.45594000000E+02  0.51100000000E-03 0. -1.
    9900012    2    1    2    0    0 -0.27284800167E+02 -0.17818025793E+02 -0.24315177261E+02  0.50528804133E+02  0.29999830642E+02 0.  0.
        -12    1    1    2    0    0  0.27284800167E+02  0.17818025793E+02  0.24315177261E+02  0.40659195867E+02  0.00000000000E+00 0.  1.
         11    1    3    3    0    0 -0.13106996795E+02 -0.36669139991E+01 -0.26870325022E+00  0.13612928596E+02  0.51100000000E-03 0. -1.
        -11    1    3    3    0    0 -0.15495491378E-01 -0.11294748036E+02 -0.35504345742E+01  0.11839643543E+02  0.51100000000E-03 0.  1.
         12    1    3    3    0    0 -0.14162307880E+02 -0.28563637583E+01 -0.20496039436E+02  0.25076231994E+02  0.00000000000E+00 0. -1.
</event>
<event>
 7    1  0.4963616E-011  0.5052887E+02  0.7816164E-02  0.1300439E+00
        -11   -1    0    0    0    0  0.00000000000E+00  0.00000000000E+00  0.45593999997E+02  0.45594000000E+02  0.51100000000E-03 0.  1.
         11   -1    0    0    0    0 -0.00000000000E+00 -0.00000000000E+00 -0.45593999997E+02  0.45594000000E+02  0.51100000000E-03 0. -1.
    9900012    2    1    2    0    0  0.31032688525E+02 -0.24972326331E+02  0.81559960368E+01  0.50528866822E+02  0.30000021191E+02 0.  0.
        -12    1    1    2    0    0 -0.31032688525E+02  0.24972326331E+02 -0.81559960368E+01  0.40659133178E+02  0.00000000000E+00 0.  1.
         11    1    3    3    0    0  0.50297307212E+01 -0.18513301140E+02  0.10628295569E+02  0.21931739038E+02  0.51100000000E-03 0. -1.
        -11    1    3    3    0    0  0.72420047121E+01 -0.17298467872E+01  0.36654758590E+01  0.82990792074E+01  0.51100000000E-03 0.  1.
         12    1    3    3    0    0  0.18760953091E+02 -0.47291784034E+01 -0.61377753915E+01  0.20298048577E+02  0.00000000000E+00 0. -1.
</event>
<event>
 7    1  0.5194499E-011  0.5052885E+02  0.7816164E-02  0.1300439E+00
        -11   -1    0    0    0    0  0.00000000000E+00  0.00000000000E+00  0.45593999997E+02  0.45594000000E+02  0.51100000000E-03 0.  1.
         11   -1    0    0    0    0 -0.00000000000E+00 -0.00000000000E+00 -0.45593999997E+02  0.45594000000E+02  0.51100000000E-03 0. -1.
    9900012    2    1    2    0    0  0.25266023723E+02 -0.29888736660E+02 -0.11020796334E+02  0.50528849914E+02  0.29999969797E+02 0.  0.
        -12    1    1    2    0    0 -0.25266023723E+02  0.29888736660E+02  0.11020796334E+02  0.40659150086E+02  0.00000000000E+00 0.  1.
         11    1    3    3    0    0  0.88991159534E+01 -0.16869898435E+02 -0.13449672707E+02  0.23338411132E+02  0.51100000000E-03 0. -1.
        -11    1    3    3    0    0  0.28249718143E+01 -0.87761889802E+01  0.77403040699E+01  0.12038034147E+02  0.51100000000E-03 0.  1.
         12    1    3    3    0    0  0.13541935955E+02 -0.42426492444E+01 -0.53114276975E+01  0.15152404635E+02  0.00000000000E+00 0. -1.
</event>
<event>
 7    1  0.4963616E-011  0.5052885E+02  0.7816164E-02  0.1300439E+00
        -11   -1    0    0    0    0  0.00000000000E+00  0.00000000000E+00  0.45593999997E+02  0.45594000000E+02  0.51100000000E-03 0. -1.
         11   -1    0    0    0    0 -0.00000000000E+00 -0.00000000000E+00 -0.45593999997E+02  0.45594000000E+02  0.51100000000E-03 0.  1.
    9900012    2    1    2    0    0  0.33953693709E+02 -0.19850887401E+02  0.10308019087E+02  0.50528852141E+02  0.29999976569E+02 0.  0.
        -12    1    1    2    0    0 -0.33953693709E+02  0.19850887401E+02 -0.10308019087E+02  0.40659147859E+02  0.00000000000E+00 0.  1.
         11    1    3    3    0    0  0.45210750137E+01 -0.63606011424E+01  0.88551439655E+01  0.11803005595E+02  0.51100000000E-03 0. -1.
        -11    1    3    3    0    0  0.46275594182E+01  0.41411813244E+01 -0.45603659063E+01  0.77045847644E+01  0.51100000000E-03 0.  1.
        -12    1    3    3    0    0  0.24805059277E+02 -0.17631467583E+02  0.60132410275E+01  0.31021261782E+02  0.00000000000E+00 0.  1.
</event>
<event>
 7    1  0.4963616E-011  0.5052885E+02  0.7816164E-02  0.1300439E+00
        -11   -1    0    0    0    0  0.00000000000E+00  0.00000000000E+00  0.45593999997E+02  0.45594000000E+02  0.51100000000E-03 0.  1.
         11   -1    0    0    0    0 -0.00000000000E+00 -0.00000000000E+00 -0.45593999997E+02  0.45594000000E+02  0.51100000000E-03 0. -1.
    9900012    2    1    2    0    0 -0.83160248305E+01 -0.22525010887E+02 -0.32812097262E+02  0.50528854519E+02  0.29999983797E+02 0.  0.
        -12    1    1    2    0    0  0.83160248305E+01  0.22525010887E+02  0.32812097262E+02  0.40659145481E+02  0.00000000000E+00 0.  1.
         11    1    3    3    0    0 -0.10177460332E+02 -0.80872399460E+01 -0.10546123067E+02  0.16739320797E+02  0.51100000000E-03 0. -1.
        -11    1    3    3    0    0  0.60357145759E+01 -0.14354312075E+02 -0.55045405067E+01  0.16515934489E+02  0.51100000000E-03 0.  1.
        -12    1    3    3    0    0 -0.41742790746E+01 -0.83458866612E-01 -0.16761433689E+02  0.17273599234E+02  0.00000000000E+00 0.  1.
</event>
<event>
 7    1  0.5021666E-011  0.5052885E+02  0.7816164E-02  0.1300439E+00
        -11   -1    0    0    0    0  0.00000000000E+00  0.00000000000E+00  0.45593999997E+02  0.45594000000E+02  0.51100000000E-03 0.  1.
         11   -1    0    0    0    0 -0.00000000000E+00 -0.00000000000E+00 -0.45593999997E+02  0.45594000000E+02  0.51100000000E-03 0. -1.
    9900012    2    1    2    0    0 -0.40468967608E+02 -0.38506400946E+01 -0.77564035361E+00  0.50528851136E+02  0.29999973512E+02 0.  0.
        -12    1    1    2    0    0  0.40468967608E+02  0.38506400946E+01  0.77564035361E+00  0.40659148864E+02  0.00000000000E+00 0.  1.
         11    1    3    3    0    0 -0.19918653188E+02  0.40843362278E+01 -0.74646688714E+01  0.21660005283E+02  0.51100000000E-03 0. -1.
        -11    1    3    3    0    0 -0.22249130621E+02 -0.10703507060E+02  0.49382489998E+01  0.25178863759E+02  0.51100000000E-03 0.  1.
        -12    1    3    3    0    0  0.16988162006E+01  0.27685307374E+01  0.17507795180E+01  0.36899820931E+01  0.00000000000E+00 0.  1.
</event>
<event>
 7    1  0.4963616E-011  0.5052883E+02  0.7816164E-02  0.1300439E+00
        -11   -1    0    0    0    0  0.00000000000E+00  0.00000000000E+00  0.45593999997E+02  0.45594000000E+02  0.51100000000E-03 0. -1.
         11   -1    0    0    0    0 -0.00000000000E+00 -0.00000000000E+00 -0.45593999997E+02  0.45594000000E+02  0.51100000000E-03 0.  1.
    9900012    2    1    2    0    0 -0.46006811290E+01 -0.25607730570E+02  0.31244934170E+02  0.50528830763E+02  0.29999911587E+02 0.  0.
        -12    1    1    2    0    0  0.46006811290E+01  0.25607730570E+02 -0.31244934170E+02  0.40659169237E+02  0.00000000000E+00 0.  1.
         11    1    3    3    0    0 -0.11176748288E+02 -0.16559294804E+02  0.10347201075E+02  0.22498767012E+02  0.51100000000E-03 0. -1.
        -11    1    3    3    0    0  0.47840610213E+01  0.10257971803E+01  0.15912784309E+02  0.16648009023E+02  0.51100000000E-03 0.  1.
         12    1    3    3    0    0  0.17920061375E+01 -0.10074232946E+02  0.49849487854E+01  0.11382054728E+02  0.00000000000E+00 0. -1.
</event>
<event>
 7    1  0.4963616E-011  0.5052886E+02  0.7816164E-02  0.1300439E+00
        -11   -1    0    0    0    0  0.00000000000E+00  0.00000000000E+00  0.45593999997E+02  0.45594000000E+02  0.51100000000E-03 0.  1.
         11   -1    0    0    0    0 -0.00000000000E+00 -0.00000000000E+00 -0.45593999997E+02  0.45594000000E+02  0.51100000000E-03 0. -1.
    9900012    2    1    2    0    0  0.18315609631E+02  0.31246270193E+02 -0.18476331431E+02  0.50528858589E+02  0.29999996167E+02 0.  0.
        -12    1    1    2    0    0 -0.18315609631E+02 -0.31246270193E+02  0.18476331431E+02  0.40659141411E+02  0.00000000000E+00 0.  1.
         11    1    3    3    0    0 -0.38787416649E+01  0.14748865973E+02 -0.11295004927E+02  0.18977640026E+02  0.51100000000E-03 0. -1.
        -11    1    3    3    0    0  0.80962378763E+01  0.54390037310E+00  0.20131754229E+01  0.83604886765E+01  0.51100000000E-03 0.  1.
        -12    1    3    3    0    0  0.14098113420E+02  0.15953503847E+02 -0.91945019273E+01  0.23190729887E+02  0.00000000000E+00 0.  1.
</event>
<event>
 7    1  0.4963616E-011  0.5052885E+02  0.7816164E-02  0.1300439E+00
        -11   -1    0    0    0    0  0.00000000000E+00  0.00000000000E+00  0.45593999997E+02  0.45594000000E+02  0.51100000000E-03 0.  1.
         11   -1    0    0    0    0 -0.00000000000E+00 -0.00000000000E+00 -0.45593999997E+02  0.45594000000E+02  0.51100000000E-03 0. -1.
    9900012    2    1    2    0    0 -0.22886025342E+02  0.19658793771E+02 -0.27256701103E+02  0.50528854861E+02  0.29999984834E+02 0.  0.
        -12    1    1    2    0    0  0.22886025342E+02 -0.19658793771E+02  0.27256701103E+02  0.40659145139E+02  0.00000000000E+00 0.  1.
         11    1    3    3    0    0 -0.31323376602E+01  0.18270967829E+02 -0.15468915144E+02  0.24143884124E+02  0.51100000000E-03 0. -1.
        -11    1    3    3    0    0 -0.79613324851E+01  0.34380014110E+00  0.19962223743E+01  0.82149812845E+01  0.51100000000E-03 0.  1.
         12    1    3    3    0    0 -0.11792355196E+02  0.10440258010E+01 -0.13784008333E+02  0.18169989452E+02  0.00000000000E+00 0. -1.
</event>
<event>
 7    1  0.4963616E-011  0.5052887E+02  0.7816164E-02  0.1300439E+00
        -11   -1    0    0    0    0  0.00000000000E+00  0.00000000000E+00  0.45593999997E+02  0.45594000000E+02  0.51100000000E-03 0.  1.
         11   -1    0    0    0    0 -0.00000000000E+00 -0.00000000000E+00 -0.45593999997E+02  0.45594000000E+02  0.51100000000E-03 0. -1.
    9900012    2    1    2    0    0 -0.38124215308E+02 -0.14101230317E+02 -0.92974463594E+00  0.50528869237E+02  0.30000028533E+02 0.  0.
        -12    1    1    2    0    0  0.38124215308E+02  0.14101230317E+02  0.92974463594E+00  0.40659130763E+02  0.00000000000E+00 0.  1.
         11    1    3    3    0    0 -0.96625644825E+00 -0.40273568309E+00  0.88143126003E+01  0.88762579070E+01  0.51100000000E-03 0. -1.
        -11    1    3    3    0    0 -0.16404473575E+02 -0.22076604548E+01 -0.61584192940E+01  0.17660878982E+02  0.51100000000E-03 0.  1.
         12    1    3    3    0    0 -0.20753485285E+02 -0.11490834179E+02 -0.35856379422E+01  0.23991732348E+02  0.00000000000E+00 0. -1.
</event>
<event>
 7    1  0.4963616E-011  0.5052886E+02  0.7816164E-02  0.1300439E+00
        -11   -1    0    0    0    0  0.00000000000E+00  0.00000000000E+00  0.45593999997E+02  0.45594000000E+02  0.51100000000E-03 0.  1.
         11   -1    0    0    0    0 -0.00000000000E+00 -0.00000000000E+00 -0.45593999997E+02  0.45594000000E+02  0.51100000000E-03 0. -1.
    9900012    2    1    2    0    0  0.31565137403E+02  0.34289884888E+01 -0.25397826403E+02  0.50528862683E+02  0.30000008612E+02 0.  0.
        -12    1    1    2    0    0 -0.31565137403E+02 -0.34289884888E+01  0.25397826403E+02  0.40659137317E+02  0.00000000000E+00 0.  1.
         11    1    3    3    0    0  0.11236601879E+02  0.73302812972E+00 -0.88927993570E+01  0.14348534165E+02  0.51100000000E-03 0. -1.
        -11    1    3    3    0    0 -0.13861053483E+01  0.89001295583E+01 -0.80038499751E+01  0.12049697460E+02  0.51100000000E-03 0.  1.
        -12    1    3    3    0    0  0.21714640872E+02 -0.62041691992E+01 -0.85011770711E+01  0.24130631058E+02  0.00000000000E+00 0.  1.
</event>
<event>
 7    1  0.4963616E-011  0.5052886E+02  0.7816164E-02  0.1300439E+00
        -11   -1    0    0    0    0  0.00000000000E+00  0.00000000000E+00  0.45593999997E+02  0.45594000000E+02  0.51100000000E-03 0.  1.
         11   -1    0    0    0    0 -0.00000000000E+00 -0.00000000000E+00 -0.45593999997E+02  0.45594000000E+02  0.51100000000E-03 0. -1.
    9900012    2    1    2    0    0  0.38152209504E+02 -0.13550360635E+02  0.37365974045E+01  0.50528861746E+02  0.30000005763E+02 0.  0.
        -12    1    1    2    0    0 -0.38152209504E+02  0.13550360635E+02 -0.37365974045E+01  0.40659138254E+02  0.00000000000E+00 0.  1.
         11    1    3    3    0    0  0.24540481739E+02 -0.22886183472E+02  0.41867048025E+01  0.33816285060E+02  0.51100000000E-03 0. -1.
        -11    1    3    3    0    0  0.79131073935E+01  0.69280701855E+01 -0.42921323860E+00  0.10526141239E+02  0.51100000000E-03 0.  1.
         12    1    3    3    0    0  0.56986203717E+01  0.24077526514E+01 -0.20894159469E-01  0.61864354468E+01  0.00000000000E+00 0. -1.
</event>
<event>
 7    1  0.4963616E-011  0.5052886E+02  0.7816164E-02  0.1300439E+00
        -11   -1    0    0    0    0  0.00000000000E+00  0.00000000000E+00  0.45593999997E+02  0.45594000000E+02  0.51100000000E-03 0. -1.
         11   -1    0    0    0    0 -0.00000000000E+00 -0.00000000000E+00 -0.45593999997E+02  0.45594000000E+02  0.51100000000E-03 0.  1.
    9900012    2    1    2    0    0 -0.11082164464E+02 -0.38906952432E+02 -0.40743981500E+01  0.50528855432E+02  0.29999986571E+02 0.  0.
        -12    1    1    2    0    0  0.11082164464E+02  0.38906952432E+02  0.40743981500E+01  0.40659144568E+02  0.00000000000E+00 0.  1.
         11    1    3    3    0    0 -0.33897635516E+01 -0.73354322977E+01 -0.43467770008E+01  0.91757034872E+01  0.51100000000E-03 0. -1.
        -11    1    3    3    0    0  0.77085766818E+01 -0.19881581325E+02  0.39091289266E+01  0.21679038717E+02  0.51100000000E-03 0.  1.
        -12    1    3    3    0    0 -0.15400977594E+02 -0.11689938809E+02 -0.36367500757E+01  0.19674113228E+02  0.00000000000E+00 0.  1.
</event>
<event>
 7    1  0.4963616E-011  0.5052884E+02  0.7816164E-02  0.1300439E+00
        -11   -1    0    0    0    0  0.00000000000E+00  0.00000000000E+00  0.45593999997E+02  0.45594000000E+02  0.51100000000E-03 0.  1.
         11   -1    0    0    0    0 -0.00000000000E+00 -0.00000000000E+00 -0.45593999997E+02  0.45594000000E+02  0.51100000000E-03 0. -1.
    9900012    2    1    2    0    0  0.77001972534E+00  0.11734719626E+02 -0.38921341239E+02  0.50528838930E+02  0.29999936410E+02 0.  0.
        -12    1    1    2    0    0 -0.77001972534E+00 -0.11734719626E+02  0.38921341239E+02  0.40659161070E+02  0.00000000000E+00 0.  1.
         11    1    3    3    0    0  0.10223474779E+02  0.30420682982E+01 -0.22847067347E+02  0.25214323364E+02  0.51100000000E-03 0. -1.
        -11    1    3    3    0    0 -0.59305131562E+01  0.11380791176E+02 -0.57170838917E+01  0.14049143838E+02  0.51100000000E-03 0.  1.
        -12    1    3    3    0    0 -0.35229418970E+01 -0.26881398483E+01 -0.10357190000E+02  0.11265371727E+02  0.00000000000E+00 0.  1.
</event>
<event>
 7    1  0.4963616E-011  0.5052890E+02  0.7816164E-02  0.1300439E+00
        -11   -1    0    0    0    0  0.00000000000E+00  0.00000000000E+00  0.45593999997E+02  0.45594000000E+02  0.51100000000E-03 0.  1.
         11   -1    0    0    0    0 -0.00000000000E+00 -0.00000000000E+00 -0.45593999997E+02  0.45594000000E+02  0.51100000000E-03 0. -1.
    9900012    2    1    2    0    0 -0.17982087073E+02  0.29566190810E+02 -0.21345905519E+02  0.50528895522E+02  0.30000108429E+02 0.  0.
        -12    1    1    2    0    0  0.17982087073E+02 -0.29566190810E+02  0.21345905519E+02  0.40659104478E+02  0.00000000000E+00 0.  1.
         11    1    3    3    0    0 -0.12165402453E+02  0.11043840954E+02 -0.61473485754E+00  0.16442060061E+02  0.51100000000E-03 0. -1.
        -11    1    3    3    0    0  0.39126572758E+01  0.16608466552E+02 -0.11840439672E+02  0.20768872383E+02  0.51100000000E-03 0.  1.
        -12    1    3    3    0    0 -0.97293418956E+01  0.19138833044E+01 -0.88907309895E+01  0.13317963078E+02  0.00000000000E+00 0.  1.
</event>
<event>
 7    1  0.4963616E-011  0.5052886E+02  0.7816164E-02  0.1300439E+00
        -11   -1    0    0    0    0  0.00000000000E+00  0.00000000000E+00  0.45593999997E+02  0.45594000000E+02  0.51100000000E-03 0. -1.
         11   -1    0    0    0    0 -0.00000000000E+00 -0.00000000000E+00 -0.45593999997E+02  0.45594000000E+02  0.51100000000E-03 0.  1.
    9900012    2    1    2    0    0  0.32891089152E+02 -0.15398484023E+02 -0.18281916619E+02  0.50528861653E+02  0.30000005481E+02 0.  0.
        -12    1    1    2    0    0 -0.32891089152E+02  0.15398484023E+02  0.18281916619E+02  0.40659138347E+02  0.00000000000E+00 0.  1.
         11    1    3    3    0    0  0.30563010376E+01 -0.43812503938E+01  0.14381192518E+01  0.55321350570E+01  0.51100000000E-03 0. -1.
        -11    1    3    3    0    0  0.31042999003E+02 -0.77911120733E+01 -0.23631409828E+02  0.39784579238E+02  0.51100000000E-03 0.  1.
        -12    1    3    3    0    0 -0.12082108882E+01 -0.32261215562E+01  0.39113739577E+01  0.52121473581E+01  0.00000000000E+00 0.  1.
</event>
<event>
 7    1  0.4963616E-011  0.5052886E+02  0.7816164E-02  0.1300439E+00
        -11   -1    0    0    0    0  0.00000000000E+00  0.00000000000E+00  0.45593999997E+02  0.45594000000E+02  0.51100000000E-03 0. -1.
         11   -1    0    0    0    0 -0.00000000000E+00 -0.00000000000E+00 -0.45593999997E+02  0.45594000000E+02  0.51100000000E-03 0.  1.
    9900012    2    1    2    0    0 -0.37155823912E+02  0.55715698066E+01  0.15542447697E+02  0.50528864236E+02  0.30000013331E+02 0.  0.
        -12    1    1    2    0    0  0.37155823912E+02 -0.55715698066E+01 -0.15542447697E+02  0.40659135764E+02  0.00000000000E+00 0.  1.
         11    1    3    3    0    0 -0.20969839841E+02  0.51339454900E+01  0.14246870138E+01  0.21636111310E+02  0.51100000000E-03 0. -1.
        -11    1    3    3    0    0 -0.74068172482E+01 -0.48600824105E+01  0.16168046069E+02  0.18436026056E+02  0.51100000000E-03 0.  1.
        -12    1    3    3    0    0 -0.87791668222E+01  0.52977067271E+01 -0.20502853859E+01  0.10456726869E+02  0.00000000000E+00 0.  1.
</event>
<event>
 7    1  0.4963616E-011  0.5052886E+02  0.7816164E-02  0.1300439E+00
        -11   -1    0    0    0    0  0.00000000000E+00  0.00000000000E+00  0.45593999997E+02  0.45594000000E+02  0.51100000000E-03 0.  1.
         11   -1    0    0    0    0 -0.00000000000E+00 -0.00000000000E+00 -0.45593999997E+02  0.45594000000E+02  0.51100000000E-03 0. -1.
    9900012    2    1    2    0    0 -0.37588757558E+02  0.16979145707E+01 -0.15406746025E+02  0.50528862876E+02  0.30000009197E+02 0.  0.
        -12    1    1    2    0    0  0.37588757558E+02 -0.16979145707E+01  0.15406746025E+02  0.40659137124E+02  0.00000000000E+00 0.  1.
         11    1    3    3    0    0 -0.33546861045E+02  0.32513142490E+01 -0.66726698810E+00  0.33710653744E+02  0.51100000000E-03 0. -1.
        -11    1    3    3    0    0  0.24458169220E+00 -0.14715007737E+01 -0.11084524125E+02  0.11184445005E+02  0.51100000000E-03 0.  1.
         12    1    3    3    0    0 -0.42864782047E+01 -0.81898904605E-01 -0.36549549123E+01  0.56337641272E+01  0.00000000000E+00 0. -1.
</event>
<event>
 7    1  0.4963616E-011  0.5052886E+02  0.7816164E-02  0.1300439E+00
        -11   -1    0    0    0    0  0.00000000000E+00  0.00000000000E+00  0.45593999997E+02  0.45594000000E+02  0.51100000000E-03 0. -1.
         11   -1    0    0    0    0 -0.00000000000E+00 -0.00000000000E+00 -0.45593999997E+02  0.45594000000E+02  0.51100000000E-03 0.  1.
    9900012    2    1    2    0    0  0.27673080317E+02  0.27941111165E+02  0.10327656539E+02  0.50528861335E+02  0.30000004514E+02 0.  0.
        -12    1    1    2    0    0 -0.27673080317E+02 -0.27941111165E+02 -0.10327656539E+02  0.40659138665E+02  0.00000000000E+00 0.  1.
         11    1    3    3    0    0  0.33203307294E+01  0.20695589783E+01  0.11276099097E+01  0.40717532940E+01  0.51100000000E-03 0. -1.
        -11    1    3    3    0    0  0.28527059386E+02  0.12072868532E+02  0.45468368723E+01  0.31308481241E+02  0.51100000000E-03 0.  1.
        -12    1    3    3    0    0 -0.41743097980E+01  0.13798683655E+02  0.46532097567E+01  0.15148626801E+02  0.00000000000E+00 0.  1.
</event>
<event>
 7    1  0.4963616E-011  0.5052887E+02  0.7816164E-02  0.1300439E+00
        -11   -1    0    0    0    0  0.00000000000E+00  0.00000000000E+00  0.45593999997E+02  0.45594000000E+02  0.51100000000E-03 0.  1.
         11   -1    0    0    0    0 -0.00000000000E+00 -0.00000000000E+00 -0.45593999997E+02  0.45594000000E+02  0.51100000000E-03 0. -1.
    9900012    2    1    2    0    0  0.12377182092E+02 -0.90323371684E+01 -0.37661484816E+02  0.50528865850E+02  0.30000018238E+02 0.  0.
        -12    1    1    2    0    0 -0.12377182092E+02  0.90323371684E+01  0.37661484816E+02  0.40659134150E+02  0.00000000000E+00 0.  1.
         11    1    3    3    0    0  0.19296573519E+01 -0.13290271412E+02 -0.27141754511E+02  0.30282498740E+02  0.51100000000E-03 0. -1.
        -11    1    3    3    0    0  0.69611654681E+01  0.61262219572E+01 -0.28884428346E+00  0.92774916558E+01  0.51100000000E-03 0.  1.
        -12    1    3    3    0    0  0.34863592722E+01 -0.18682877136E+01 -0.10230886021E+02  0.10968875454E+02  0.00000000000E+00 0.  1.
</event>
<event>
 7    1  0.4963616E-011  0.5052887E+02  0.7816164E-02  0.1300439E+00
        -11   -1    0    0    0    0  0.00000000000E+00  0.00000000000E+00  0.45593999997E+02  0.45594000000E+02  0.51100000000E-03 0. -1.
         11   -1    0    0    0    0 -0.00000000000E+00 -0.00000000000E+00 -0.45593999997E+02  0.45594000000E+02  0.51100000000E-03 0.  1.
    9900012    2    1    2    0    0  0.33207569718E+02 -0.23453022315E+02 -0.61455796088E+00  0.50528872811E+02  0.30000039397E+02 0.  0.
        -12    1    1    2    0    0 -0.33207569718E+02  0.23453022315E+02  0.61455796088E+00  0.40659127189E+02  0.00000000000E+00 0.  1.
         11    1    3    3    0    0  0.29396631790E+02 -0.10294514949E+02  0.42751905181E+01  0.31439087977E+02  0.51100000000E-03 0. -1.
        -11    1    3    3    0    0 -0.24762041778E+00 -0.11918185081E+02 -0.75223015042E+01  0.14095725298E+02  0.51100000000E-03 0.  1.
         12    1    3    3    0    0  0.40585583456E+01 -0.12403222854E+01  0.26325530252E+01  0.49940595357E+01  0.00000000000E+00 0. -1.
</event>
<event>
 7    1  0.5711415E-011  0.5052886E+02  0.7816164E-02  0.1300439E+00
        -11   -1    0    0    0    0  0.00000000000E+00  0.00000000000E+00  0.45593999997E+02  0.45594000000E+02  0.51100000000E-03 0. -1.
         11   -1    0    0    0    0 -0.00000000000E+00 -0.00000000000E+00 -0.45593999997E+02  0.45594000000E+02  0.51100000000E-03 0.  1.
    9900012    2    1    2    0    0  0.35073929644E+02 -0.12617485585E+02 -0.16241431943E+02  0.50528860871E+02  0.30000003103E+02 0.  0.
        -12    1    1    2    0    0 -0.35073929644E+02  0.12617485585E+02  0.16241431943E+02  0.40659139129E+02  0.00000000000E+00 0.  1.
         11    1    3    3    0    0  0.32844247374E+02 -0.75593906405E+01 -0.11626785696E+02  0.35652084347E+02  0.51100000000E-03 0. -1.
        -11    1    3    3    0    0 -0.54729488236E+00 -0.29811574816E+01 -0.88780320319E+01  0.93811664860E+01  0.51100000000E-03 0.  1.
        -12    1    3    3    0    0  0.27769771527E+01 -0.20769374629E+01  0.42633857855E+01  0.54956100377E+01  0.00000000000E+00 0.  1.
</event>
<event>
 7    1  0.4963616E-011  0.5052885E+02  0.7816164E-02  0.1300439E+00
        -11   -1    0    0    0    0  0.00000000000E+00  0.00000000000E+00  0.45593999997E+02  0.45594000000E+02  0.51100000000E-03 0. -1.
         11   -1    0    0    0    0 -0.00000000000E+00 -0.00000000000E+00 -0.45593999997E+02  0.45594000000E+02  0.51100000000E-03 0.  1.
    9900012    2    1    2    0    0  0.19037100655E+02  0.21860894808E+02  0.28510632889E+02  0.50528854523E+02  0.29999983809E+02 0.  0.
        -12    1    1    2    0    0 -0.19037100655E+02 -0.21860894808E+02 -0.28510632889E+02  0.40659145477E+02  0.00000000000E+00 0.  1.
         11    1    3    3    0    0  0.18167355869E+02  0.10075227820E+02  0.98304697340E+01  0.22982627577E+02  0.51100000000E-03 0. -1.
        -11    1    3    3    0    0 -0.15718232203E+01  0.15584980974E+02  0.13550483657E+02  0.20711780894E+02  0.51100000000E-03 0.  1.
        -12    1    3    3    0    0  0.24415680063E+01 -0.37993139855E+01  0.51296794975E+01  0.68344460520E+01  0.00000000000E+00 0.  1.
</event>
<event>
 7    1  0.4963616E-011  0.5052886E+02  0.7816164E-02  0.1300439E+00
        -11   -1    0    0    0    0  0.00000000000E+00  0.00000000000E+00  0.45593999997E+02  0.45594000000E+02  0.51100000000E-03 0.  1.
         11   -1    0    0    0    0 -0.00000000000E+00 -0.00000000000E+00 -0.45593999997E+02  0.45594000000E+02  0.51100000000E-03 0. -1.
    9900012    2    1    2    0    0 -0.32467445068E+02 -0.24357907339E+02 -0.23922937355E+01  0.50528859472E+02  0.29999998851E+02 0.  0.
        -12    1    1    2    0    0  0.32467445068E+02  0.24357907339E+02  0.23922937355E+01  0.40659140528E+02  0.00000000000E+00 0.  1.
         11    1    3    3    0    0 -0.26405670876E+02 -0.22256013560E+02 -0.88898862209E+01  0.35659776658E+02  0.51100000000E-03 0. -1.
        -11    1    3    3    0    0  0.17719468968E+01 -0.37868722534E+01  0.53259941187E+01  0.67709977759E+01  0.51100000000E-03 0.  1.
         12    1    3    3    0    0 -0.78337210884E+01  0.16849784745E+01  0.11715983668E+01  0.80980850381E+01  0.00000000000E+00 0. -1.
</event>
<event>
 7    1  0.4963616E-011  0.5052874E+02  0.7816164E-02  0.1300439E+00
        -11   -1    0    0    0    0  0.00000000000E+00  0.00000000000E+00  0.45593999997E+02  0.45594000000E+02  0.51100000000E-03 0.  1.
         11   -1    0    0    0    0 -0.00000000000E+00 -0.00000000000E+00 -0.45593999997E+02  0.45594000000E+02  0.51100000000E-03 0. -1.
    9900012    2    1    2    0    0  0.15153078721E+02  0.14929321993E+02 -0.34650751500E+02  0.50528744849E+02  0.29999650442E+02 0.  0.
        -12    1    1    2    0    0 -0.15153078721E+02 -0.14929321993E+02  0.34650751500E+02  0.40659255151E+02  0.00000000000E+00 0.  1.
         11    1    3    3    0    0  0.13237822208E+02  0.22499923014E+02 -0.30469842845E+02  0.40123531695E+02  0.51100000000E-03 0. -1.
        -11    1    3    3    0    0  0.31849719859E+01 -0.19157382101E+01 -0.19283759885E+01  0.41872107249E+01  0.51100000000E-03 0.  1.
         12    1    3    3    0    0 -0.12697154730E+01 -0.56548628110E+01 -0.22525326670E+01  0.62180024292E+01  0.00000000000E+00 0. -1.
</event>
<event>
 7    1  0.4963616E-011  0.5052886E+02  0.7816164E-02  0.1300439E+00
        -11   -1    0    0    0    0  0.00000000000E+00  0.00000000000E+00  0.45593999997E+02  0.45594000000E+02  0.51100000000E-03 0.  1.
         11   -1    0    0    0    0 -0.00000000000E+00 -0.00000000000E+00 -0.45593999997E+02  0.45594000000E+02  0.51100000000E-03 0. -1.
    9900012    2    1    2    0    0 -0.22587237010E+02 -0.11767174949E+02 -0.31694096675E+02  0.50528862699E+02  0.30000008659E+02 0.  0.
        -12    1    1    2    0    0  0.22587237010E+02  0.11767174949E+02  0.31694096675E+02  0.40659137301E+02  0.00000000000E+00 0.  1.
         11    1    3    3    0    0 -0.54856367687E+01  0.53195462184E+00  0.11888268545E+01  0.56381287701E+01  0.51100000000E-03 0. -1.
        -11    1    3    3    0    0 -0.21574469251E+02 -0.12752380309E+02 -0.31360320456E+02  0.40144123187E+02  0.51100000000E-03 0.  1.
        -12    1    3    3    0    0  0.44728690104E+01  0.45325073842E+00 -0.15226030736E+01  0.47466107420E+01  0.00000000000E+00 0.  1.
</event>
<event>
 7    1  0.4963616E-011  0.5052886E+02  0.7816164E-02  0.1300439E+00
        -11   -1    0    0    0    0  0.00000000000E+00  0.00000000000E+00  0.45593999997E+02  0.45594000000E+02  0.51100000000E-03 0.  1.
         11   -1    0    0    0    0 -0.00000000000E+00 -0.00000000000E+00 -0.45593999997E+02  0.45594000000E+02  0.51100000000E-03 0. -1.
    9900012    2    1    2    0    0 -0.26166815519E+02 -0.15851603912E+02 -0.26780404672E+02  0.50528860125E+02  0.30000000836E+02 0.  0.
        -12    1    1    2    0    0  0.26166815519E+02  0.15851603912E+02  0.26780404672E+02  0.40659139875E+02  0.00000000000E+00 0.  1.
         11    1    3    3    0    0 -0.66220505705E+00 -0.84040433441E+00 -0.83162109755E+01  0.83847576132E+01  0.51100000000E-03 0. -1.
        -11    1    3    3    0    0 -0.53922386127E+01 -0.14832260934E+02 -0.15384353486E+01  0.15856827718E+02  0.51100000000E-03 0.  1.
        -12    1    3    3    0    0 -0.20112371849E+02 -0.17893864291E+00 -0.16925758348E+02  0.26287274794E+02  0.00000000000E+00 0.  1.
</event>
<event>
 7    1  0.4963616E-011  0.5052886E+02  0.7816164E-02  0.1300439E+00
        -11   -1    0    0    0    0  0.00000000000E+00  0.00000000000E+00  0.45593999997E+02  0.45594000000E+02  0.51100000000E-03 0.  1.
         11   -1    0    0    0    0 -0.00000000000E+00 -0.00000000000E+00 -0.45593999997E+02  0.45594000000E+02  0.51100000000E-03 0. -1.
    9900012    2    1    2    0    0  0.99149975630E+01 -0.39333017333E+02  0.27878953737E+01  0.50528858472E+02  0.29999995811E+02 0.  0.
        -12    1    1    2    0    0 -0.99149975630E+01  0.39333017333E+02 -0.27878953737E+01  0.40659141528E+02  0.00000000000E+00 0.  1.
         11    1    3    3    0    0  0.17580205817E+02 -0.23296873807E+02  0.96289417750E+01  0.30733117084E+02  0.51100000000E-03 0. -1.
        -11    1    3    3    0    0 -0.77738957895E+01 -0.12006903986E+02 -0.66131920141E+01  0.15758601079E+02  0.51100000000E-03 0.  1.
         12    1    3    3    0    0  0.10868753526E+00 -0.40292395400E+01 -0.22785438723E+00  0.40371403088E+01  0.00000000000E+00 0. -1.
</event>
<event>
 7    1  0.4963616E-011  0.5052886E+02  0.7816164E-02  0.1300439E+00
        -11   -1    0    0    0    0  0.00000000000E+00  0.00000000000E+00  0.45593999997E+02  0.45594000000E+02  0.51100000000E-03 0. -1.
         11   -1    0    0    0    0 -0.00000000000E+00 -0.00000000000E+00 -0.45593999997E+02  0.45594000000E+02  0.51100000000E-03 0.  1.
    9900012    2    1    2    0    0  0.15552956680E+02 -0.21553298028E+02  0.30768922161E+02  0.50528859720E+02  0.29999999606E+02 0.  0.
        -12    1    1    2    0    0 -0.15552956680E+02  0.21553298028E+02 -0.30768922161E+02  0.40659140280E+02  0.00000000000E+00 0.  1.
         11    1    3    3    0    0  0.60995844406E+01  0.16020650591E+00  0.11028472002E+02  0.12603880015E+02  0.51100000000E-03 0. -1.
        -11    1    3    3    0    0 -0.28552296414E+01 -0.17697176093E+02  0.16970237776E+02  0.24684637903E+02  0.51100000000E-03 0.  1.
        -12    1    3    3    0    0  0.12308601880E+02 -0.40163284412E+01  0.27702123823E+01  0.13240341802E+02  0.00000000000E+00 0.  1.
</event>
<event>
 7    1  0.4963616E-011  0.5052885E+02  0.7816164E-02  0.1300439E+00
        -11   -1    0    0    0    0  0.00000000000E+00  0.00000000000E+00  0.45593999997E+02  0.45594000000E+02  0.51100000000E-03 0.  1.
         11   -1    0    0    0    0 -0.00000000000E+00 -0.00000000000E+00 -0.45593999997E+02  0.45594000000E+02  0.51100000000E-03 0. -1.
    9900012    2    1    2    0    0 -0.31299836433E+02  0.38340003528E+01 -0.25666853624E+02  0.50528847347E+02  0.29999961997E+02 0.  0.
        -12    1    1    2    0    0  0.31299836433E+02 -0.38340003528E+01  0.25666853624E+02  0.40659152653E+02  0.00000000000E+00 0.  1.
         11    1    3    3    0    0 -0.13953502693E+02  0.93573501401E+01 -0.28396027228E+01  0.17038884440E+02  0.51100000000E-03 0. -1.
        -11    1    3    3    0    0 -0.15401302042E+02 -0.96354099590E+01 -0.12071850672E+02  0.21812171111E+02  0.51100000000E-03 0.  1.
         12    1    3    3    0    0 -0.19450316980E+01  0.41120601717E+01 -0.10755400229E+02  0.11677791797E+02  0.00000000000E+00 0. -1.
</event>
<event>
 7    1  0.4963616E-011  0.5052885E+02  0.7816164E-02  0.1300439E+00
        -11   -1    0    0    0    0  0.00000000000E+00  0.00000000000E+00  0.45593999997E+02  0.45594000000E+02  0.51100000000E-03 0.  1.
         11   -1    0    0    0    0 -0.00000000000E+00 -0.00000000000E+00 -0.45593999997E+02  0.45594000000E+02  0.51100000000E-03 0. -1.
    9900012    2    1    2    0    0  0.25830326214E+02  0.10940988100E+02 -0.29432213867E+02  0.50528853600E+02  0.29999981001E+02 0.  0.
        -12    1    1    2    0    0 -0.25830326214E+02 -0.10940988100E+02  0.29432213867E+02  0.40659146400E+02  0.00000000000E+00 0.  1.
         11    1    3    3    0    0  0.12284444924E+02 -0.28332548674E+01 -0.28437082848E+02  0.31106311279E+02  0.51100000000E-03 0. -1.
        -11    1    3    3    0    0  0.10143064245E+02  0.91888584508E+01 -0.63338066217E+00  0.13701023438E+02  0.51100000000E-03 0.  1.
         12    1    3    3    0    0  0.34028170447E+01  0.45853845164E+01 -0.36175035652E+00  0.57215188825E+01  0.00000000000E+00 0. -1.
</event>
<event>
 7    1  0.4963616E-011  0.5052886E+02  0.7816164E-02  0.1300439E+00
        -11   -1    0    0    0    0  0.00000000000E+00  0.00000000000E+00  0.45593999997E+02  0.45594000000E+02  0.51100000000E-03 0.  1.
         11   -1    0    0    0    0 -0.00000000000E+00 -0.00000000000E+00 -0.45593999997E+02  0.45594000000E+02  0.51100000000E-03 0. -1.
    9900012    2    1    2    0    0 -0.22488727112E+02 -0.19864687890E+02 -0.27437510709E+02  0.50528859994E+02  0.30000000439E+02 0.  0.
        -12    1    1    2    0    0  0.22488727112E+02  0.19864687890E+02  0.27437510709E+02  0.40659140006E+02  0.00000000000E+00 0.  1.
         11    1    3    3    0    0 -0.13839854588E+02  0.18868229660E+01  0.27627473100E+00  0.13970612152E+02  0.51100000000E-03 0. -1.
        -11    1    3    3    0    0 -0.20455138930E+01 -0.61746897085E+01 -0.48420493219E+01  0.81090296571E+01  0.51100000000E-03 0.  1.
         12    1    3    3    0    0 -0.66033586313E+01 -0.15576821147E+02 -0.22871736118E+02  0.28449218185E+02  0.00000000000E+00 0. -1.
</event>
<event>
 7    1  0.4963616E-011  0.5052885E+02  0.7816164E-02  0.1300439E+00
        -11   -1    0    0    0    0  0.00000000000E+00  0.00000000000E+00  0.45593999997E+02  0.45594000000E+02  0.51100000000E-03 0.  1.
         11   -1    0    0    0    0 -0.00000000000E+00 -0.00000000000E+00 -0.45593999997E+02  0.45594000000E+02  0.51100000000E-03 0. -1.
    9900012    2    1    2    0    0  0.38071405373E+02 -0.13174983075E+00  0.14272950848E+02  0.50528851079E+02  0.29999973340E+02 0.  0.
        -12    1    1    2    0    0 -0.38071405373E+02  0.13174983075E+00 -0.14272950848E+02  0.40659148921E+02  0.00000000000E+00 0.  1.
         11    1    3    3    0    0  0.23812952141E+02  0.62811644797E+01  0.60255658998E+01  0.25353839188E+02  0.51100000000E-03 0. -1.
        -11    1    3    3    0    0  0.14953528413E+02 -0.93011813844E+01  0.13462209984E+01  0.17661605204E+02  0.51100000000E-03 0.  1.
        -12    1    3    3    0    0 -0.69507518068E+00  0.28882670740E+01  0.69011639494E+01  0.75134066877E+01  0.00000000000E+00 0.  1.
</event>
<event>
 7    1  0.4963616E-011  0.5052885E+02  0.7816164E-02  0.1300439E+00
        -11   -1    0    0    0    0  0.00000000000E+00  0.00000000000E+00  0.45593999997E+02  0.45594000000E+02  0.51100000000E-03 0. -1.
         11   -1    0    0    0    0 -0.00000000000E+00 -0.00000000000E+00 -0.45593999997E+02  0.45594000000E+02  0.51100000000E-03 0.  1.
    9900012    2    1    2    0    0  0.35621938616E+01 -0.31491789242E+02 -0.25470455405E+02  0.50528854493E+02  0.29999983717E+02 0.  0.
        -12    1    1    2    0    0 -0.35621938616E+01  0.31491789242E+02  0.25470455405E+02  0.40659145507E+02  0.00000000000E+00 0.  1.
         11    1    3    3    0    0 -0.24933869286E+01 -0.84476342188E+01 -0.12679998474E+02  0.15438972240E+02  0.51100000000E-03 0. -1.
        -11    1    3    3    0    0  0.12619461120E+02 -0.17672109859E+02 -0.26603192260E+01  0.21877649884E+02  0.51100000000E-03 0.  1.
        -12    1    3    3    0    0 -0.65638803295E+01 -0.53720451644E+01 -0.10130137706E+02  0.13212232369E+02  0.00000000000E+00 0.  1.
</event>
<event>
 7    1  0.4963616E-011  0.5052887E+02  0.7816164E-02  0.1300439E+00
        -11   -1    0    0    0    0  0.00000000000E+00  0.00000000000E+00  0.45593999997E+02  0.45594000000E+02  0.51100000000E-03 0.  1.
         11   -1    0    0    0    0 -0.00000000000E+00 -0.00000000000E+00 -0.45593999997E+02  0.45594000000E+02  0.51100000000E-03 0. -1.
    9900012    2    1    2    0    0  0.20312045766E+01 -0.20927415199E+01 -0.40554405034E+02  0.50528866625E+02  0.30000020594E+02 0.  0.
        -12    1    1    2    0    0 -0.20312045766E+01  0.20927415199E+01  0.40554405034E+02  0.40659133375E+02  0.00000000000E+00 0.  1.
         11    1    3    3    0    0  0.80483944622E+01 -0.91407936364E+01 -0.97751027060E+01  0.15616766467E+02  0.51100000000E-03 0. -1.
        -11    1    3    3    0    0 -0.21507547543E+00  0.85013429377E+01 -0.25682156882E+02  0.27053507565E+02  0.51100000000E-03 0.  1.
        -12    1    3    3    0    0 -0.58021144102E+01 -0.14532908212E+01 -0.50971454463E+01  0.78585925929E+01  0.00000000000E+00 0.  1.
</event>
<event>
 7    1  0.4963616E-011  0.5052887E+02  0.7816164E-02  0.1300439E+00
        -11   -1    0    0    0    0  0.00000000000E+00  0.00000000000E+00  0.45593999997E+02  0.45594000000E+02  0.51100000000E-03 0. -1.
         11   -1    0    0    0    0 -0.00000000000E+00 -0.00000000000E+00 -0.45593999997E+02  0.45594000000E+02  0.51100000000E-03 0.  1.
    9900012    2    1    2    0    0  0.12685177055E+02 -0.13870899251E+02  0.36053427145E+02  0.50528866071E+02  0.30000018909E+02 0.  0.
        -12    1    1    2    0    0 -0.12685177055E+02  0.13870899251E+02 -0.36053427145E+02  0.40659133929E+02  0.00000000000E+00 0.  1.
         11    1    3    3    0    0 -0.18111023264E+01 -0.10128961176E+01  0.10921379669E+02  0.11116770409E+02  0.51100000000E-03 0. -1.
        -11    1    3    3    0    0  0.18826746700E+02 -0.11315855933E+02  0.11029695701E+02  0.24579446176E+02  0.51100000000E-03 0.  1.
        -12    1    3    3    0    0 -0.43304673182E+01 -0.15421471998E+01  0.14102351775E+02  0.14832649486E+02  0.00000000000E+00 0.  1.
</event>
<event>
 7    1  0.4963616E-011  0.5052893E+02  0.7816164E-02  0.1300439E+00
        -11   -1    0    0    0    0  0.00000000000E+00  0.00000000000E+00  0.45593999997E+02  0.45594000000E+02  0.51100000000E-03 0.  1.
         11   -1    0    0    0    0 -0.00000000000E+00 -0.00000000000E+00 -0.45593999997E+02  0.45594000000E+02  0.51100000000E-03 0. -1.
    9900012    2    1    2    0    0 -0.20717375184E+02  0.16097802358E+02 -0.31061409673E+02  0.50528929104E+02  0.30000210503E+02 0.  0.
        -12    1    1    2    0    0  0.20717375184E+02 -0.16097802358E+02  0.31061409673E+02  0.40659070896E+02  0.00000000000E+00 0.  1.
         11    1    3    3    0    0  0.65790736403E-01  0.15634952005E+01 -0.17857967069E+02  0.17926400469E+02  0.51100000000E-03 0. -1.
        -11    1    3    3    0    0 -0.10614241011E+02  0.33974487177E+01  0.18465804859E+01  0.11296664542E+02  0.51100000000E-03 0.  1.
        -12    1    3    3    0    0 -0.10168924910E+02  0.11136858440E+02 -0.15050023090E+02  0.21305864093E+02  0.00000000000E+00 0.  1.
</event>
<event>
 7    1  0.4963616E-011  0.5052887E+02  0.7816164E-02  0.1300439E+00
        -11   -1    0    0    0    0  0.00000000000E+00  0.00000000000E+00  0.45593999997E+02  0.45594000000E+02  0.51100000000E-03 0.  1.
         11   -1    0    0    0    0 -0.00000000000E+00 -0.00000000000E+00 -0.45593999997E+02  0.45594000000E+02  0.51100000000E-03 0. -1.
    9900012    2    1    2    0    0  0.37158159288E+02  0.10044627553E+02 -0.13097388452E+02  0.50528869062E+02  0.30000028001E+02 0.  0.
        -12    1    1    2    0    0 -0.37158159288E+02 -0.10044627553E+02  0.13097388452E+02  0.40659130938E+02  0.00000000000E+00 0.  1.
         11    1    3    3    0    0  0.13057270335E+02  0.73308294721E+01  0.58768788983E+01  0.16086363020E+02  0.51100000000E-03 0. -1.
        -11    1    3    3    0    0  0.11863688691E+02 -0.51431269896E+01 -0.14036751397E+02  0.19084791186E+02  0.51100000000E-03 0.  1.
         12    1    3    3    0    0  0.12237200262E+02  0.78569250709E+01 -0.49375159537E+01  0.15357714856E+02  0.00000000000E+00 0. -1.
</event>
<event>
 7    1  0.4963616E-011  0.5052886E+02  0.7816164E-02  0.1300439E+00
        -11   -1    0    0    0    0  0.00000000000E+00  0.00000000000E+00  0.45593999997E+02  0.45594000000E+02  0.51100000000E-03 0. -1.
         11   -1    0    0    0    0 -0.00000000000E+00 -0.00000000000E+00 -0.45593999997E+02  0.45594000000E+02  0.51100000000E-03 0.  1.
    9900012    2    1    2    0    0 -0.98686920153E+01 -0.34758916369E+02  0.18643826287E+02  0.50528860709E+02  0.30000002612E+02 0.  0.
        -12    1    1    2    0    0  0.98686920153E+01  0.34758916369E+02 -0.18643826287E+02  0.40659139291E+02  0.00000000000E+00 0.  1.
         11    1    3    3    0    0  0.12528998194E+01 -0.13380608446E+02  0.78719249219E+01  0.15574904256E+02  0.51100000000E-03 0. -1.
        -11    1    3    3    0    0 -0.10696508457E+02 -0.56542410433E+01  0.14403053393E+02  0.18810467358E+02  0.51100000000E-03 0.  1.
        -12    1    3    3    0    0 -0.42508337769E+00 -0.15724066880E+02 -0.36311520274E+01  0.16143489095E+02  0.00000000000E+00 0.  1.
</event>
<event>
 7    1  0.4963616E-011  0.5052886E+02  0.7816164E-02  0.1300439E+00
        -11   -1    0    0    0    0  0.00000000000E+00  0.00000000000E+00  0.45593999997E+02  0.45594000000E+02  0.51100000000E-03 0. -1.
         11   -1    0    0    0    0 -0.00000000000E+00 -0.00000000000E+00 -0.45593999997E+02  0.45594000000E+02  0.51100000000E-03 0.  1.
    9900012    2    1    2    0    0  0.32637438063E+02  0.22003907782E+02 -0.10187801669E+02  0.50528860512E+02  0.30000002013E+02 0.  0.
        -12    1    1    2    0    0 -0.32637438063E+02 -0.22003907782E+02  0.10187801669E+02  0.40659139488E+02  0.00000000000E+00 0.  1.
         11    1    3    3    0    0  0.35298626107E+01  0.54728491777E+00  0.53429310920E+00  0.36117752171E+01  0.51100000000E-03 0. -1.
        -11    1    3    3    0    0  0.22021431928E+02  0.27338612896E+01 -0.14550358571E+02  0.26535455460E+02  0.51100000000E-03 0.  1.
        -12    1    3    3    0    0  0.70861435252E+01  0.18722761575E+02  0.38282637926E+01  0.20381629835E+02  0.00000000000E+00 0.  1.
</event>
<event>
 7    1  0.4963616E-011  0.5052886E+02  0.7816164E-02  0.1300439E+00
        -11   -1    0    0    0    0  0.00000000000E+00  0.00000000000E+00  0.45593999997E+02  0.45594000000E+02  0.51100000000E-03 0.  1.
         11   -1    0    0    0    0 -0.00000000000E+00 -0.00000000000E+00 -0.45593999997E+02  0.45594000000E+02  0.51100000000E-03 0. -1.
    9900012    2    1    2    0    0  0.33652191175E+02  0.12119527584E+02 -0.19334240506E+02  0.50528858646E+02  0.29999996340E+02 0.  0.
        -12    1    1    2    0    0 -0.33652191175E+02 -0.12119527584E+02  0.19334240506E+02  0.40659141354E+02  0.00000000000E+00 0.  1.
         11    1    3    3    0    0  0.65377916220E+01 -0.18620982821E+01 -0.15076043772E+02  0.16537751521E+02  0.51100000000E-03 0. -1.
        -11    1    3    3    0    0  0.13204451966E+02  0.14283308641E+02 -0.49126081634E+01  0.20062506740E+02  0.51100000000E-03 0.  1.
        -12    1    3    3    0    0  0.13909947587E+02 -0.30168277462E+00  0.65441142926E+00  0.13928600385E+02  0.00000000000E+00 0.  1.
</event>
<event>
 7    1  0.4963616E-011  0.5052886E+02  0.7816164E-02  0.1300439E+00
        -11   -1    0    0    0    0  0.00000000000E+00  0.00000000000E+00  0.45593999997E+02  0.45594000000E+02  0.51100000000E-03 0.  1.
         11   -1    0    0    0    0 -0.00000000000E+00 -0.00000000000E+00 -0.45593999997E+02  0.45594000000E+02  0.51100000000E-03 0. -1.
    9900012    2    1    2    0    0  0.15304977223E+02  0.37349001136E+02 -0.48964795030E+01  0.50528859267E+02  0.29999998228E+02 0.  0.
        -12    1    1    2    0    0 -0.15304977223E+02 -0.37349001136E+02  0.48964795030E+01  0.40659140733E+02  0.00000000000E+00 0.  1.
         11    1    3    3    0    0  0.37910040310E+01  0.17790368469E+02 -0.14440162325E+02  0.23224711194E+02  0.51100000000E-03 0. -1.
        -11    1    3    3    0    0  0.12372131823E+02  0.20545707263E+02  0.99035874049E+01  0.25947577469E+02  0.51100000000E-03 0.  1.
         12    1    3    3    0    0 -0.85815863085E+00 -0.98707459587E+00 -0.35990458241E+00  0.13565706034E+01  0.00000000000E+00 0. -1.
</event>
<event>
 7    1  0.4963616E-011  0.5052885E+02  0.7816164E-02  0.1300439E+00
        -11   -1    0    0    0    0  0.00000000000E+00  0.00000000000E+00  0.45593999997E+02  0.45594000000E+02  0.51100000000E-03 0.  1.
         11   -1    0    0    0    0 -0.00000000000E+00 -0.00000000000E+00 -0.45593999997E+02  0.45594000000E+02  0.51100000000E-03 0. -1.
    9900012    2    1    2    0    0 -0.83308828773E+01 -0.30572821326E+02 -0.25476755602E+02  0.50528854788E+02  0.29999984615E+02 0.  0.
        -12    1    1    2    0    0  0.83308828773E+01  0.30572821326E+02  0.25476755602E+02  0.40659145212E+02  0.00000000000E+00 0.  1.
         11    1    3    3    0    0  0.87539954612E+01 -0.26849808028E+01 -0.90212628155E+01  0.12853977653E+02  0.51100000000E-03 0. -1.
        -11    1    3    3    0    0 -0.93534033027E+01 -0.22597494712E+02 -0.12937571194E+02  0.27667917690E+02  0.51100000000E-03 0.  1.
        -12    1    3    3    0    0 -0.77314750358E+01 -0.52903458107E+01 -0.35179215925E+01  0.10006959446E+02  0.00000000000E+00 0.  1.
</event>
<event>
 7    1  0.4963616E-011  0.5052886E+02  0.7816164E-02  0.1300439E+00
        -11   -1    0    0    0    0  0.00000000000E+00  0.00000000000E+00  0.45593999997E+02  0.45594000000E+02  0.51100000000E-03 0. -1.
         11   -1    0    0    0    0 -0.00000000000E+00 -0.00000000000E+00 -0.45593999997E+02  0.45594000000E+02  0.51100000000E-03 0.  1.
    9900012    2    1    2    0    0  0.34588879006E+02  0.38443629328E+00  0.21368838310E+02  0.50528860893E+02  0.30000003172E+02 0.  0.
        -12    1    1    2    0    0 -0.34588879006E+02 -0.38443629328E+00 -0.21368838310E+02  0.40659139107E+02  0.00000000000E+00 0.  1.
         11    1    3    3    0    0  0.23107382086E+02  0.26339165710E+01  0.79175260560E+01  0.24567780577E+02  0.51100000000E-03 0. -1.
        -11    1    3    3    0    0  0.12826464123E+01 -0.84918136329E+01  0.91545284690E+00  0.86367896102E+01  0.51100000000E-03 0.  1.
         12    1    3    3    0    0  0.10198850508E+02  0.62423333552E+01  0.12535859407E+02  0.17324290706E+02  0.00000000000E+00 0. -1.
</event>
<event>
 7    1  0.4963616E-011  0.5052886E+02  0.7816164E-02  0.1300439E+00
        -11   -1    0    0    0    0  0.00000000000E+00  0.00000000000E+00  0.45593999997E+02  0.45594000000E+02  0.51100000000E-03 0.  1.
         11   -1    0    0    0    0 -0.00000000000E+00 -0.00000000000E+00 -0.45593999997E+02  0.45594000000E+02  0.51100000000E-03 0. -1.
    9900012    2    1    2    0    0 -0.33446564479E+02  0.22175869458E+02 -0.65363307795E+01  0.50528862261E+02  0.30000007328E+02 0.  0.
        -12    1    1    2    0    0  0.33446564479E+02 -0.22175869458E+02  0.65363307795E+01  0.40659137739E+02  0.00000000000E+00 0.  1.
         11    1    3    3    0    0  0.24179817427E+01 -0.74514446988E+00  0.15963218212E+01  0.29916750504E+01  0.51100000000E-03 0. -1.
        -11    1    3    3    0    0 -0.29955287282E+02  0.25561232890E+02 -0.34122745343E+01  0.39526440274E+02  0.51100000000E-03 0.  1.
        -12    1    3    3    0    0 -0.59092589395E+01 -0.26402189628E+01 -0.47203780664E+01  0.80107469362E+01  0.00000000000E+00 0.  1.
</event>
<event>
 7    1  0.4963616E-011  0.5052885E+02  0.7816164E-02  0.1300439E+00
        -11   -1    0    0    0    0  0.00000000000E+00  0.00000000000E+00  0.45593999997E+02  0.45594000000E+02  0.51100000000E-03 0.  1.
         11   -1    0    0    0    0 -0.00000000000E+00 -0.00000000000E+00 -0.45593999997E+02  0.45594000000E+02  0.51100000000E-03 0. -1.
    9900012    2    1    2    0    0 -0.22385403827E+02 -0.33579452512E+02  0.49477488241E+01  0.50528853994E+02  0.29999982200E+02 0.  0.
        -12    1    1    2    0    0  0.22385403827E+02  0.33579452512E+02 -0.49477488241E+01  0.40659146006E+02  0.00000000000E+00 0.  1.
         11    1    3    3    0    0 -0.79812395408E+01 -0.42598948618E+01  0.12813623141E+02  0.15685529226E+02  0.51100000000E-03 0.  1.
        -11    1    3    3    0    0 -0.35742430605E+01 -0.15066426873E+02 -0.67968166685E+01  0.16910622379E+02  0.51100000000E-03 0. -1.
        -12    1    3    3    0    0 -0.10829921226E+02 -0.14253130778E+02 -0.10690576480E+01  0.17932702389E+02  0.00000000000E+00 0.  1.
</event>
<event>
 7    1  0.4963616E-011  0.5052888E+02  0.7816164E-02  0.1300439E+00
        -11   -1    0    0    0    0  0.00000000000E+00  0.00000000000E+00  0.45593999997E+02  0.45594000000E+02  0.51100000000E-03 0. -1.
         11   -1    0    0    0    0 -0.00000000000E+00 -0.00000000000E+00 -0.45593999997E+02  0.45594000000E+02  0.51100000000E-03 0.  1.
    9900012    2    1    2    0    0  0.24443577854E+00  0.29242777325E+02  0.28248265441E+02  0.50528877101E+02  0.30000052435E+02 0.  0.
        -12    1    1    2    0    0 -0.24443577854E+00 -0.29242777325E+02 -0.28248265441E+02  0.40659122899E+02  0.00000000000E+00 0.  1.
         11    1    3    3    0    0 -0.11149148996E+02  0.17278712098E+01  0.72601055232E+01  0.13416340586E+02  0.51100000000E-03 0. -1.
        -11    1    3    3    0    0  0.72119571144E+01  0.18785078671E+02  0.17957078870E+02  0.26969393539E+02  0.51100000000E-03 0.  1.
         12    1    3    3    0    0  0.41816276600E+01  0.87298274446E+01  0.30310810479E+01  0.10143142975E+02  0.00000000000E+00 0. -1.
</event>
<event>
 7    1  0.4963616E-011  0.5052889E+02  0.7816164E-02  0.1300439E+00
        -11   -1    0    0    0    0  0.00000000000E+00  0.00000000000E+00  0.45593999997E+02  0.45594000000E+02  0.51100000000E-03 0.  1.
         11   -1    0    0    0    0 -0.00000000000E+00 -0.00000000000E+00 -0.45593999997E+02  0.45594000000E+02  0.51100000000E-03 0. -1.
    9900012    2    1    2    0    0  0.29841933007E+02 -0.27123628000E+02  0.51895326418E+01  0.50528887731E+02  0.30000084748E+02 0.  0.
        -12    1    1    2    0    0 -0.29841933007E+02  0.27123628000E+02 -0.51895326418E+01  0.40659112269E+02  0.00000000000E+00 0.  1.
         11    1    3    3    0    0  0.18491982489E+02 -0.21967041726E+02  0.82201205065E+01  0.29867619925E+02  0.51100000000E-03 0. -1.
        -11    1    3    3    0    0  0.14164097706E+02  0.11443514873E+00 -0.50311051456E+00  0.14173492149E+02  0.51100000000E-03 0.  1.
         12    1    3    3    0    0 -0.28141471884E+01 -0.52710214221E+01 -0.25274773501E+01  0.64877756577E+01  0.00000000000E+00 0. -1.
</event>
<event>
 7    1  0.4963616E-011  0.5052886E+02  0.7816164E-02  0.1300439E+00
        -11   -1    0    0    0    0  0.00000000000E+00  0.00000000000E+00  0.45593999997E+02  0.45594000000E+02  0.51100000000E-03 0. -1.
         11   -1    0    0    0    0 -0.00000000000E+00 -0.00000000000E+00 -0.45593999997E+02  0.45594000000E+02  0.51100000000E-03 0.  1.
    9900012    2    1    2    0    0 -0.16475504943E+02  0.37116139333E+02 -0.20287056029E+01  0.50528859471E+02  0.29999998849E+02 0.  0.
        -12    1    1    2    0    0  0.16475504943E+02 -0.37116139333E+02  0.20287056029E+01  0.40659140529E+02  0.00000000000E+00 0.  1.
         11    1    3    3    0    0 -0.18159572394E+02  0.32061024002E+02  0.51100789738E+01  0.37199358018E+02  0.51100000000E-03 0. -1.
        -11    1    3    3    0    0  0.28075306765E+00  0.98213766311E+00 -0.86907121164E+01  0.87505367850E+01  0.51100000000E-03 0.  1.
        -12    1    3    3    0    0  0.14033143841E+01  0.40729776680E+01  0.15519275397E+01  0.45789646682E+01  0.00000000000E+00 0.  1.
</event>
<event>
 7    1  0.4963616E-011  0.5052887E+02  0.7816164E-02  0.1300439E+00
        -11   -1    0    0    0    0  0.00000000000E+00  0.00000000000E+00  0.45593999997E+02  0.45594000000E+02  0.51100000000E-03 0.  1.
         11   -1    0    0    0    0 -0.00000000000E+00 -0.00000000000E+00 -0.45593999997E+02  0.45594000000E+02  0.51100000000E-03 0. -1.
    9900012    2    1    2    0    0  0.95480467141E+00  0.12266758188E+02 -0.38752809235E+02  0.50528865332E+02  0.30000016662E+02 0.  0.
        -12    1    1    2    0    0 -0.95480467141E+00 -0.12266758188E+02  0.38752809235E+02  0.40659134668E+02  0.00000000000E+00 0.  1.
         11    1    3    3    0    0  0.65157077137E+01  0.13780620056E+02 -0.65662886020E+01  0.16597472169E+02  0.51100000000E-03 0. -1.
        -11    1    3    3    0    0 -0.17558845724E+01 -0.31644533742E+01 -0.38154740115E+01  0.52587772327E+01  0.51100000000E-03 0.  1.
         12    1    3    3    0    0 -0.38050184699E+01  0.16505915062E+01 -0.28371046621E+02  0.28672615930E+02  0.00000000000E+00 0. -1.
</event>
<event>
 7    1  0.4963616E-011  0.5052885E+02  0.7816164E-02  0.1300439E+00
        -11   -1    0    0    0    0  0.00000000000E+00  0.00000000000E+00  0.45593999997E+02  0.45594000000E+02  0.51100000000E-03 0.  1.
         11   -1    0    0    0    0 -0.00000000000E+00 -0.00000000000E+00 -0.45593999997E+02  0.45594000000E+02  0.51100000000E-03 0. -1.
    9900012    2    1    2    0    0 -0.64391799672E+01  0.38392867745E+02 -0.11734180417E+02  0.50528851923E+02  0.29999975904E+02 0.  0.
        -12    1    1    2    0    0  0.64391799672E+01 -0.38392867745E+02  0.11734180417E+02  0.40659148077E+02  0.00000000000E+00 0.  1.
         11    1    3    3    0    0 -0.15275877654E+02  0.30013100823E+02 -0.42255826112E+01  0.33941040169E+02  0.51100000000E-03 0. -1.
        -11    1    3    3    0    0 -0.24846077119E+00 -0.14089215726E+01 -0.59688350232E+00  0.15501815794E+01  0.51100000000E-03 0.  1.
         12    1    3    3    0    0  0.90851584574E+01  0.97886884945E+01 -0.69117143036E+01  0.15037630174E+02  0.00000000000E+00 0. -1.
</event>
<event>
 7    1  0.4963616E-011  0.5052885E+02  0.7816164E-02  0.1300439E+00
        -11   -1    0    0    0    0  0.00000000000E+00  0.00000000000E+00  0.45593999997E+02  0.45594000000E+02  0.51100000000E-03 0.  1.
         11   -1    0    0    0    0 -0.00000000000E+00 -0.00000000000E+00 -0.45593999997E+02  0.45594000000E+02  0.51100000000E-03 0. -1.
    9900012    2    1    2    0    0  0.38007549157E+01  0.15534462605E+02 -0.37381828903E+02  0.50528850986E+02  0.29999973058E+02 0.  0.
        -12    1    1    2    0    0 -0.38007549157E+01 -0.15534462605E+02  0.37381828903E+02  0.40659149014E+02  0.00000000000E+00 0.  1.
         11    1    3    3    0    0  0.13790651338E+01  0.84678142386E+01 -0.26014633464E+02  0.27392824848E+02  0.51100000000E-03 0. -1.
        -11    1    3    3    0    0  0.20480878422E+01  0.56513376278E+01  0.43062806040E+01  0.73943447102E+01  0.51100000000E-03 0.  1.
         12    1    3    3    0    0  0.37360193978E+00  0.14153107388E+01 -0.15673476044E+02  0.15741681428E+02  0.00000000000E+00 0. -1.
</event>
<event>
 7    1  0.4963616E-011  0.5052886E+02  0.7816164E-02  0.1300439E+00
        -11   -1    0    0    0    0  0.00000000000E+00  0.00000000000E+00  0.45593999997E+02  0.45594000000E+02  0.51100000000E-03 0.  1.
         11   -1    0    0    0    0 -0.00000000000E+00 -0.00000000000E+00 -0.45593999997E+02  0.45594000000E+02  0.51100000000E-03 0. -1.
    9900012    2    1    2    0    0  0.35426181306E+02  0.36416275808E+01 -0.19618602126E+02  0.50528864216E+02  0.30000013270E+02 0.  0.
        -12    1    1    2    0    0 -0.35426181306E+02 -0.36416275808E+01  0.19618602126E+02  0.40659135784E+02  0.00000000000E+00 0.  1.
         11    1    3    3    0    0  0.20659936393E+02  0.57338981471E+01 -0.62172122584E+01  0.22324074186E+02  0.51100000000E-03 0. -1.
        -11    1    3    3    0    0  0.38474227189E+01 -0.75254283112E+01 -0.13594159759E+02  0.16007370573E+02  0.51100000000E-03 0.  1.
        -12    1    3    3    0    0  0.10918822194E+02  0.54331577449E+01  0.19276989099E+00  0.12197419457E+02  0.00000000000E+00 0.  1.
</event>
<event>
 7    1  0.4963616E-011  0.5052885E+02  0.7816164E-02  0.1300439E+00
        -11   -1    0    0    0    0  0.00000000000E+00  0.00000000000E+00  0.45593999997E+02  0.45594000000E+02  0.51100000000E-03 0.  1.
         11   -1    0    0    0    0 -0.00000000000E+00 -0.00000000000E+00 -0.45593999997E+02  0.45594000000E+02  0.51100000000E-03 0. -1.
    9900012    2    1    2    0    0 -0.22843773341E+02 -0.16079331920E+02 -0.29542904919E+02  0.50528854331E+02  0.29999983226E+02 0.  0.
        -12    1    1    2    0    0  0.22843773341E+02  0.16079331920E+02  0.29542904919E+02  0.40659145669E+02  0.00000000000E+00 0.  1.
         11    1    3    3    0    0 -0.12611850252E+02 -0.74607304165E+01 -0.21646606569E+02  0.26139947233E+02  0.51100000000E-03 0. -1.
        -11    1    3    3    0    0 -0.88316539856E+01 -0.67187596447E+01  0.43487150273E+01  0.11918521969E+02  0.51100000000E-03 0.  1.
        -12    1    3    3    0    0 -0.14002691024E+01 -0.18998418589E+01 -0.12245013377E+02  0.12470385129E+02  0.00000000000E+00 0.  1.
</event>
<event>
 7    1  0.4963616E-011  0.5052886E+02  0.7816164E-02  0.1300439E+00
        -11   -1    0    0    0    0  0.00000000000E+00  0.00000000000E+00  0.45593999997E+02  0.45594000000E+02  0.51100000000E-03 0.  1.
         11   -1    0    0    0    0 -0.00000000000E+00 -0.00000000000E+00 -0.45593999997E+02  0.45594000000E+02  0.51100000000E-03 0. -1.
    9900012    2    1    2    0    0  0.15525314839E+02  0.57701455685E+01 -0.37132675107E+02  0.50528861528E+02  0.30000005100E+02 0.  0.
        -12    1    1    2    0    0 -0.15525314839E+02 -0.57701455685E+01  0.37132675107E+02  0.40659138472E+02  0.00000000000E+00 0.  1.
         11    1    3    3    0    0  0.15601751159E+02  0.41576757219E+01 -0.23825989745E+02  0.28781568655E+02  0.51100000000E-03 0. -1.
        -11    1    3    3    0    0 -0.56449775659E+01  0.72793351469E+01 -0.79214383498E+01  0.12149225395E+02  0.51100000000E-03 0.  1.
        -12    1    3    3    0    0  0.55685412460E+01 -0.56668653002E+01 -0.53852470114E+01  0.95980674781E+01  0.00000000000E+00 0.  1.
</event>
<event>
 7    1  0.4963616E-011  0.5052887E+02  0.7816164E-02  0.1300439E+00
        -11   -1    0    0    0    0  0.00000000000E+00  0.00000000000E+00  0.45593999997E+02  0.45594000000E+02  0.51100000000E-03 0. -1.
         11   -1    0    0    0    0 -0.00000000000E+00 -0.00000000000E+00 -0.45593999997E+02  0.45594000000E+02  0.51100000000E-03 0.  1.
    9900012    2    1    2    0    0  0.25879387387E+02  0.30324176909E+02  0.79916723956E+01  0.50528865425E+02  0.30000016945E+02 0.  0.
        -12    1    1    2    0    0 -0.25879387387E+02 -0.30324176909E+02 -0.79916723956E+01  0.40659134575E+02  0.00000000000E+00 0.  1.
         11    1    3    3    0    0  0.17799600085E+00  0.10969292472E+02  0.45051851670E+01  0.11859753521E+02  0.51100000000E-03 0.  1.
        -11    1    3    3    0    0  0.17775494238E+02  0.19216191549E+02 -0.54344227002E+01  0.26735054954E+02  0.51100000000E-03 0. -1.
        -12    1    3    3    0    0  0.79258971486E+01  0.13869288745E+00  0.89209099288E+01  0.11934056950E+02  0.00000000000E+00 0.  1.
</event>
<event>
 7    1  0.4963616E-011  0.5052885E+02  0.7816164E-02  0.1300439E+00
        -11   -1    0    0    0    0  0.00000000000E+00  0.00000000000E+00  0.45593999997E+02  0.45594000000E+02  0.51100000000E-03 0.  1.
         11   -1    0    0    0    0 -0.00000000000E+00 -0.00000000000E+00 -0.45593999997E+02  0.45594000000E+02  0.51100000000E-03 0. -1.
    9900012    2    1    2    0    0 -0.14644818933E+02 -0.12431510619E+02 -0.35835081274E+02  0.50528853086E+02  0.29999979440E+02 0.  0.
        -12    1    1    2    0    0  0.14644818933E+02  0.12431510619E+02  0.35835081274E+02  0.40659146914E+02  0.00000000000E+00 0.  1.
         11    1    3    3    0    0  0.10988479432E+01 -0.56683069549E+01 -0.83275404937E+01  0.10133365752E+02  0.51100000000E-03 0. -1.
        -11    1    3    3    0    0 -0.14110253944E+02  0.46183566719E+01 -0.24268584512E+02  0.28449827401E+02  0.51100000000E-03 0.  1.
        -12    1    3    3    0    0 -0.16334129322E+01 -0.11381560336E+02 -0.32389562688E+01  0.11945659932E+02  0.00000000000E+00 0.  1.
</event>
<event>
 7    1  0.4963616E-011  0.5052886E+02  0.7816164E-02  0.1300439E+00
        -11   -1    0    0    0    0  0.00000000000E+00  0.00000000000E+00  0.45593999997E+02  0.45594000000E+02  0.51100000000E-03 0.  1.
         11   -1    0    0    0    0 -0.00000000000E+00 -0.00000000000E+00 -0.45593999997E+02  0.45594000000E+02  0.51100000000E-03 0. -1.
    9900012    2    1    2    0    0  0.18577340072E+02 -0.24326668620E+02 -0.26763064575E+02  0.50528855940E+02  0.29999988115E+02 0.  0.
        -12    1    1    2    0    0 -0.18577340072E+02  0.24326668620E+02  0.26763064575E+02  0.40659144060E+02  0.00000000000E+00 0.  1.
         11    1    3    3    0    0  0.20004876809E+02 -0.16607717148E+02 -0.15625749633E+02  0.30334393299E+02  0.51100000000E-03 0. -1.
        -11    1    3    3    0    0 -0.29043216044E+01  0.15397780810E+01 -0.10264648534E+02  0.10778172865E+02  0.51100000000E-03 0.  1.
         12    1    3    3    0    0  0.14767848674E+01 -0.92587295528E+01 -0.87266640822E+00  0.94162897755E+01  0.00000000000E+00 0. -1.
</event>
<event>
 7    1  0.4963616E-011  0.5052887E+02  0.7816164E-02  0.1300439E+00
        -11   -1    0    0    0    0  0.00000000000E+00  0.00000000000E+00  0.45593999997E+02  0.45594000000E+02  0.51100000000E-03 0. -1.
         11   -1    0    0    0    0 -0.00000000000E+00 -0.00000000000E+00 -0.45593999997E+02  0.45594000000E+02  0.51100000000E-03 0.  1.
    9900012    2    1    2    0    0  0.38874380342E+02 -0.26538707328E+01  0.11614846791E+02  0.50528866428E+02  0.30000019996E+02 0.  0.
        -12    1    1    2    0    0 -0.38874380342E+02  0.26538707328E+01 -0.11614846791E+02  0.40659133572E+02  0.00000000000E+00 0.  1.
         11    1    3    3    0    0  0.32587167355E+02  0.43584849757E+00  0.19759658872E+02  0.38112433131E+02  0.51100000000E-03 0. -1.
        -11    1    3    3    0    0  0.27004369576E+01 -0.46994822067E+01 -0.51201832363E+01  0.74561229474E+01  0.51100000000E-03 0.  1.
         12    1    3    3    0    0  0.35867760291E+01  0.16097629763E+01 -0.30246288448E+01  0.49603103503E+01  0.00000000000E+00 0. -1.
</event>
<event>
 7    1  0.4963616E-011  0.5052886E+02  0.7816164E-02  0.1300439E+00
        -11   -1    0    0    0    0  0.00000000000E+00  0.00000000000E+00  0.45593999997E+02  0.45594000000E+02  0.51100000000E-03 0.  1.
         11   -1    0    0    0    0 -0.00000000000E+00 -0.00000000000E+00 -0.45593999997E+02  0.45594000000E+02  0.51100000000E-03 0. -1.
    9900012    2    1    2    0    0  0.33699041995E+02 -0.14704630693E+02  0.17358397555E+02  0.50528861287E+02  0.30000004369E+02 0.  0.
        -12    1    1    2    0    0 -0.33699041995E+02  0.14704630693E+02 -0.17358397555E+02  0.40659138713E+02  0.00000000000E+00 0.  1.
         11    1    3    3    0    0  0.17822047486E+02 -0.15007174436E+02  0.15506599504E+02  0.27987413056E+02  0.51100000000E-03 0. -1.
        -11    1    3    3    0    0  0.76128153692E+01  0.21561922092E+00 -0.70617055445E+01  0.10386006689E+02  0.51100000000E-03 0.  1.
        -12    1    3    3    0    0  0.82641791394E+01  0.86924521639E-01  0.89135035957E+01  0.12155441542E+02  0.00000000000E+00 0.  1.
</event>
<event>
 7    1  0.4963616E-011  0.5052886E+02  0.7816164E-02  0.1300439E+00
        -11   -1    0    0    0    0  0.00000000000E+00  0.00000000000E+00  0.45593999997E+02  0.45594000000E+02  0.51100000000E-03 0. -1.
         11   -1    0    0    0    0 -0.00000000000E+00 -0.00000000000E+00 -0.45593999997E+02  0.45594000000E+02  0.51100000000E-03 0.  1.
    9900012    2    1    2    0    0 -0.26770089232E+02 -0.24514157130E+02  0.18318955200E+02  0.50528859615E+02  0.29999999285E+02 0.  0.
        -12    1    1    2    0    0  0.26770089232E+02  0.24514157130E+02 -0.18318955200E+02  0.40659140385E+02  0.00000000000E+00 0.  1.
         11    1    3    3    0    0  0.29056322322E+00 -0.93626181374E+01 -0.12813452957E+01  0.94543583284E+01  0.51100000000E-03 0. -1.
        -11    1    3    3    0    0 -0.21373743306E+02 -0.70542053942E+01  0.21353760953E+02  0.31025502797E+02  0.51100000000E-03 0.  1.
        -12    1    3    3    0    0 -0.56869091492E+01 -0.80973335980E+01 -0.17534604581E+01  0.10048998490E+02  0.00000000000E+00 0.  1.
</event>
<event>
 7    1  0.4963616E-011  0.5052886E+02  0.7816164E-02  0.1300439E+00
        -11   -1    0    0    0    0  0.00000000000E+00  0.00000000000E+00  0.45593999997E+02  0.45594000000E+02  0.51100000000E-03 0.  1.
         11   -1    0    0    0    0 -0.00000000000E+00 -0.00000000000E+00 -0.45593999997E+02  0.45594000000E+02  0.51100000000E-03 0. -1.
    9900012    2    1    2    0    0  0.14703542083E+02  0.36270899778E+02 -0.11017849674E+02  0.50528864103E+02  0.30000012927E+02 0.  0.
        -12    1    1    2    0    0 -0.14703542083E+02 -0.36270899778E+02  0.11017849674E+02  0.40659135897E+02  0.00000000000E+00 0.  1.
         11    1    3    3    0    0 -0.18115182345E+01  0.29505583784E+02 -0.25792329655E+01  0.29673447991E+02  0.51100000000E-03 0. -1.
        -11    1    3    3    0    0  0.11928025750E+02  0.67925960837E+01 -0.87159601557E+01  0.16259923786E+02  0.51100000000E-03 0.  1.
         12    1    3    3    0    0  0.45870345674E+01 -0.27280089766E-01  0.27734344713E+00  0.45954923255E+01  0.00000000000E+00 0. -1.
</event>
<event>
 7    1  0.4963616E-011  0.5052888E+02  0.7816164E-02  0.1300439E+00
        -11   -1    0    0    0    0  0.00000000000E+00  0.00000000000E+00  0.45593999997E+02  0.45594000000E+02  0.51100000000E-03 0.  1.
         11   -1    0    0    0    0 -0.00000000000E+00 -0.00000000000E+00 -0.45593999997E+02  0.45594000000E+02  0.51100000000E-03 0. -1.
    9900012    2    1    2    0    0 -0.13119703170E+02 -0.30582693358E+02 -0.23361000907E+02  0.50528879158E+02  0.30000058688E+02 0.  0.
        -12    1    1    2    0    0  0.13119703170E+02  0.30582693358E+02  0.23361000907E+02  0.40659120842E+02  0.00000000000E+00 0.  1.
         11    1    3    3    0    0 -0.10420804524E+02 -0.14830043530E+02 -0.19742002992E+02  0.26800560450E+02  0.51100000000E-03 0. -1.
        -11    1    3    3    0    0  0.71615952708E+01 -0.45500269358E+01 -0.19949537868E+01  0.87161363465E+01  0.51100000000E-03 0.  1.
         12    1    3    3    0    0 -0.98604939161E+01 -0.11202622892E+02 -0.16240441290E+01  0.15012182362E+02  0.00000000000E+00 0. -1.
</event>
<event>
 7    1  0.4963616E-011  0.5052886E+02  0.7816164E-02  0.1300439E+00
        -11   -1    0    0    0    0  0.00000000000E+00  0.00000000000E+00  0.45593999997E+02  0.45594000000E+02  0.51100000000E-03 0.  1.
         11   -1    0    0    0    0 -0.00000000000E+00 -0.00000000000E+00 -0.45593999997E+02  0.45594000000E+02  0.51100000000E-03 0. -1.
    9900012    2    1    2    0    0 -0.16601914210E+02 -0.35321756033E+02  0.11398064593E+02  0.50528857349E+02  0.29999992397E+02 0.  0.
        -12    1    1    2    0    0  0.16601914210E+02  0.35321756033E+02 -0.11398064593E+02  0.40659142651E+02  0.00000000000E+00 0.  1.
         11    1    3    3    0    0  0.78094761556E+00  0.30622219103E+01  0.17905761316E+01  0.36322507279E+01  0.51100000000E-03 0. -1.
        -11    1    3    3    0    0 -0.97495054299E+01 -0.34459110414E+02  0.12356915305E+02  0.37883723455E+02  0.51100000000E-03 0.  1.
         12    1    3    3    0    0 -0.76333563962E+01 -0.39248675285E+01 -0.27494268440E+01  0.90128831657E+01  0.00000000000E+00 0. -1.
</event>
<event>
 7    1  0.4963616E-011  0.5052885E+02  0.7816164E-02  0.1300439E+00
        -11   -1    0    0    0    0  0.00000000000E+00  0.00000000000E+00  0.45593999997E+02  0.45594000000E+02  0.51100000000E-03 0.  1.
         11   -1    0    0    0    0 -0.00000000000E+00 -0.00000000000E+00 -0.45593999997E+02  0.45594000000E+02  0.51100000000E-03 0. -1.
    9900012    2    1    2    0    0 -0.21967306819E+02  0.44907110905E+01 -0.33918093805E+02  0.50528854136E+02  0.29999982633E+02 0.  0.
        -12    1    1    2    0    0  0.21967306819E+02 -0.44907110905E+01  0.33918093805E+02  0.40659145864E+02  0.00000000000E+00 0.  1.
         11    1    3    3    0    0  0.36362619263E+01 -0.54283372827E+00  0.11602577484E+01  0.38552908525E+01  0.51100000000E-03 0.  1.
        -11    1    3    3    0    0 -0.18923880286E+02  0.10604391768E+02 -0.21454965492E+02  0.30510357493E+02  0.51100000000E-03 0. -1.
        -12    1    3    3    0    0 -0.66796884600E+01 -0.55708469489E+01 -0.13623386062E+02  0.16163205791E+02  0.00000000000E+00 0.  1.
</event>
<event>
 7    1  0.4963616E-011  0.5052885E+02  0.7816164E-02  0.1300439E+00
        -11   -1    0    0    0    0  0.00000000000E+00  0.00000000000E+00  0.45593999997E+02  0.45594000000E+02  0.51100000000E-03 0.  1.
         11   -1    0    0    0    0 -0.00000000000E+00 -0.00000000000E+00 -0.45593999997E+02  0.45594000000E+02  0.51100000000E-03 0. -1.
    9900012    2    1    2    0    0  0.62520737500E+01  0.70433864984E+01 -0.39553361903E+02  0.50528853951E+02  0.29999982071E+02 0.  0.
        -12    1    1    2    0    0 -0.62520737500E+01 -0.70433864984E+01  0.39553361903E+02  0.40659146049E+02  0.00000000000E+00 0.  1.
         11    1    3    3    0    0 -0.96010205304E+01  0.22456768910E+01 -0.10480242003E+02  0.14389514677E+02  0.51100000000E-03 0. -1.
        -11    1    3    3    0    0  0.80291928525E+01  0.24616425601E+01 -0.31644642571E+01  0.89744891917E+01  0.51100000000E-03 0.  1.
         12    1    3    3    0    0  0.78239014280E+01  0.23360670474E+01 -0.25908655643E+02  0.27164850083E+02  0.00000000000E+00 0. -1.
</event>
<event>
 7    1  0.4963616E-011  0.5052886E+02  0.7816164E-02  0.1300439E+00
        -11   -1    0    0    0    0  0.00000000000E+00  0.00000000000E+00  0.45593999997E+02  0.45594000000E+02  0.51100000000E-03 0. -1.
         11   -1    0    0    0    0 -0.00000000000E+00 -0.00000000000E+00 -0.45593999997E+02  0.45594000000E+02  0.51100000000E-03 0.  1.
    9900012    2    1    2    0    0  0.33932275959E+01 -0.40375941618E+02  0.33815189019E+01  0.50528864186E+02  0.30000013181E+02 0.  0.
        -12    1    1    2    0    0 -0.33932275959E+01  0.40375941618E+02 -0.33815189019E+01  0.40659135814E+02  0.00000000000E+00 0.  1.
         11    1    3    3    0    0  0.22813251448E+01 -0.26238373958E+02  0.12630347233E+02  0.29209285919E+02  0.51100000000E-03 0. -1.
        -11    1    3    3    0    0 -0.10393172505E+01  0.72621797842E+00 -0.57641693947E+01  0.59019676356E+01  0.51100000000E-03 0.  1.
         12    1    3    3    0    0  0.21512197015E+01 -0.14863785638E+02 -0.34846589369E+01  0.15417610632E+02  0.00000000000E+00 0. -1.
</event>
<event>
 7    1  0.4963616E-011  0.5052887E+02  0.7816164E-02  0.1300439E+00
        -11   -1    0    0    0    0  0.00000000000E+00  0.00000000000E+00  0.45593999997E+02  0.45594000000E+02  0.51100000000E-03 0.  1.
         11   -1    0    0    0    0 -0.00000000000E+00 -0.00000000000E+00 -0.45593999997E+02  0.45594000000E+02  0.51100000000E-03 0. -1.
    9900012    2    1    2    0    0 -0.32766312531E+02 -0.35703323849E+01 -0.23807276475E+02  0.50528869127E+02  0.30000028198E+02 0.  0.
        -12    1    1    2    0    0  0.32766312531E+02  0.35703323849E+01  0.23807276475E+02  0.40659130873E+02  0.00000000000E+00 0.  1.
         11    1    3    3    0    0 -0.25459117373E+02 -0.91043075260E+01 -0.28722125133E+02  0.39446362892E+02  0.51100000000E-03 0. -1.
        -11    1    3    3    0    0 -0.28327845420E+01  0.11112117820E+01  0.34928707169E+01  0.46324514020E+01  0.51100000000E-03 0.  1.
         12    1    3    3    0    0 -0.44744106157E+01  0.44227633592E+01  0.14219779412E+01  0.64500548334E+01  0.00000000000E+00 0. -1.
</event>
<event>
 7    1  0.4963616E-011  0.5052887E+02  0.7816164E-02  0.1300439E+00
        -11   -1    0    0    0    0  0.00000000000E+00  0.00000000000E+00  0.45593999997E+02  0.45594000000E+02  0.51100000000E-03 0.  1.
         11   -1    0    0    0    0 -0.00000000000E+00 -0.00000000000E+00 -0.45593999997E+02  0.45594000000E+02  0.51100000000E-03 0. -1.
    9900012    2    1    2    0    0 -0.61779744214E+01 -0.37322999108E+02 -0.14899363781E+02  0.50528872224E+02  0.30000037613E+02 0.  0.
        -12    1    1    2    0    0  0.61779744214E+01  0.37322999108E+02  0.14899363781E+02  0.40659127776E+02  0.00000000000E+00 0.  1.
         11    1    3    3    0    0 -0.63649500126E+00 -0.19032030351E+01 -0.88931520329E+01  0.91167681237E+01  0.51100000000E-03 0. -1.
        -11    1    3    3    0    0  0.76707007685E+00 -0.17686807281E+02  0.64500986873E+01  0.18841850271E+02  0.51100000000E-03 0.  1.
        -12    1    3    3    0    0 -0.63085494970E+01 -0.17732988792E+02 -0.12456310435E+02  0.22570253829E+02  0.00000000000E+00 0.  1.
</event>
<event>
 7    1  0.4963616E-011  0.5052886E+02  0.7816164E-02  0.1300439E+00
        -11   -1    0    0    0    0  0.00000000000E+00  0.00000000000E+00  0.45593999997E+02  0.45594000000E+02  0.51100000000E-03 0.  1.
         11   -1    0    0    0    0 -0.00000000000E+00 -0.00000000000E+00 -0.45593999997E+02  0.45594000000E+02  0.51100000000E-03 0. -1.
    9900012    2    1    2    0    0 -0.18621987768E+02  0.29641285476E+02 -0.20682871944E+02  0.50528862958E+02  0.30000009448E+02 0.  0.
        -12    1    1    2    0    0  0.18621987768E+02 -0.29641285476E+02  0.20682871944E+02  0.40659137042E+02  0.00000000000E+00 0.  1.
         11    1    3    3    0    0  0.30596614203E+01 -0.18481884995E+01  0.50155327637E+00  0.36095546383E+01  0.51100000000E-03 0. -1.
        -11    1    3    3    0    0 -0.13702867583E+02  0.22036386674E+02 -0.22673869823E+02  0.34459763358E+02  0.51100000000E-03 0.  1.
        -12    1    3    3    0    0 -0.79787816059E+01  0.94530873016E+01  0.14894446030E+01  0.12459544962E+02  0.00000000000E+00 0.  1.
</event>
<event>
 7    1  0.4963616E-011  0.5052886E+02  0.7816164E-02  0.1300439E+00
        -11   -1    0    0    0    0  0.00000000000E+00  0.00000000000E+00  0.45593999997E+02  0.45594000000E+02  0.51100000000E-03 0.  1.
         11   -1    0    0    0    0 -0.00000000000E+00 -0.00000000000E+00 -0.45593999997E+02  0.45594000000E+02  0.51100000000E-03 0. -1.
    9900012    2    1    2    0    0 -0.14129249475E+02  0.32182162180E+02 -0.20441097369E+02  0.50528859392E+02  0.29999998609E+02 0.  0.
        -12    1    1    2    0    0  0.14129249475E+02 -0.32182162180E+02  0.20441097369E+02  0.40659140608E+02  0.00000000000E+00 0.  1.
         11    1    3    3    0    0 -0.30476133677E+01  0.22298013805E+02 -0.20615473212E+02  0.30520273638E+02  0.51100000000E-03 0. -1.
        -11    1    3    3    0    0 -0.92410780006E+01 -0.28933529606E+00  0.21271349968E+01  0.94871460979E+01  0.51100000000E-03 0.  1.
        -12    1    3    3    0    0 -0.18405581065E+01  0.10173483670E+02 -0.19527591539E+01  0.10521439657E+02  0.00000000000E+00 0.  1.
</event>
<event>
 7    1  0.4963616E-011  0.5052886E+02  0.7816164E-02  0.1300439E+00
        -11   -1    0    0    0    0  0.00000000000E+00  0.00000000000E+00  0.45593999997E+02  0.45594000000E+02  0.51100000000E-03 0.  1.
         11   -1    0    0    0    0 -0.00000000000E+00 -0.00000000000E+00 -0.45593999997E+02  0.45594000000E+02  0.51100000000E-03 0. -1.
    9900012    2    1    2    0    0  0.11925343612E+02 -0.31454096501E+02 -0.22838373021E+02  0.50528864628E+02  0.30000014524E+02 0.  0.
        -12    1    1    2    0    0 -0.11925343612E+02  0.31454096501E+02  0.22838373021E+02  0.40659135372E+02  0.00000000000E+00 0.  1.
         11    1    3    3    0    0  0.88899300938E+01 -0.79809691023E+01 -0.15312696311E+02  0.19421776269E+02  0.51100000000E-03 0. -1.
        -11    1    3    3    0    0 -0.72858787575E+01 -0.12565648740E+02 -0.51447009458E+00  0.14534243609E+02  0.51100000000E-03 0.  1.
        -12    1    3    3    0    0  0.10321292276E+02 -0.10907478658E+02 -0.70112066152E+01  0.16572844750E+02  0.00000000000E+00 0.  1.
</event>
<event>
 7    1  0.4963616E-011  0.5052894E+02  0.7816164E-02  0.1300439E+00
        -11   -1    0    0    0    0  0.00000000000E+00  0.00000000000E+00  0.45593999997E+02  0.45594000000E+02  0.51100000000E-03 0. -1.
         11   -1    0    0    0    0 -0.00000000000E+00 -0.00000000000E+00 -0.45593999997E+02  0.45594000000E+02  0.51100000000E-03 0.  1.
    9900012    2    1    2    0    0 -0.10531569350E+02  0.23951620339E+02  0.31121783903E+02  0.50528935781E+02  0.30000230800E+02 0.  0.
        -12    1    1    2    0    0  0.10531569350E+02 -0.23951620339E+02 -0.31121783903E+02  0.40659064219E+02  0.00000000000E+00 0.  1.
         11    1    3    3    0    0 -0.70917991626E+01 -0.41209747976E+01  0.69558880724E+01  0.10754553816E+02  0.51100000000E-03 0. -1.
        -11    1    3    3    0    0 -0.47008795578E+01  0.11075004213E+02  0.26399525950E+01  0.12317602725E+02  0.51100000000E-03 0.  1.
         12    1    3    3    0    0  0.12611093701E+01  0.16997590924E+02  0.21525943235E+02  0.27456779240E+02  0.00000000000E+00 0. -1.
</event>
<event>
 7    1  0.4963616E-011  0.5052886E+02  0.7816164E-02  0.1300439E+00
        -11   -1    0    0    0    0  0.00000000000E+00  0.00000000000E+00  0.45593999997E+02  0.45594000000E+02  0.51100000000E-03 0.  1.
         11   -1    0    0    0    0 -0.00000000000E+00 -0.00000000000E+00 -0.45593999997E+02  0.45594000000E+02  0.51100000000E-03 0. -1.
    9900012    2    1    2    0    0 -0.19755732433E+02 -0.54340469265E+01 -0.35119048424E+02  0.50528863362E+02  0.30000010674E+02 0.  0.
        -12    1    1    2    0    0  0.19755732433E+02  0.54340469265E+01  0.35119048424E+02  0.40659136638E+02  0.00000000000E+00 0.  1.
         11    1    3    3    0    0  0.69349322682E+01  0.20943279467E+00 -0.15185426615E+02  0.16695338553E+02  0.51100000000E-03 0. -1.
        -11    1    3    3    0    0 -0.13783714951E+02 -0.37066099077E+01 -0.10933009399E+02  0.17979445198E+02  0.51100000000E-03 0.  1.
         12    1    3    3    0    0 -0.12906949751E+02 -0.19368698135E+01 -0.90006124099E+01  0.15854079611E+02  0.00000000000E+00 0. -1.
</event>
<event>
 7    1  0.4963616E-011  0.5052886E+02  0.7816164E-02  0.1300439E+00
        -11   -1    0    0    0    0  0.00000000000E+00  0.00000000000E+00  0.45593999997E+02  0.45594000000E+02  0.51100000000E-03 0.  1.
         11   -1    0    0    0    0 -0.00000000000E+00 -0.00000000000E+00 -0.45593999997E+02  0.45594000000E+02  0.51100000000E-03 0. -1.
    9900012    2    1    2    0    0  0.21819466141E+01 -0.10692244634E+02 -0.39167345220E+02  0.50528856897E+02  0.29999991024E+02 0.  0.
        -12    1    1    2    0    0 -0.21819466141E+01  0.10692244634E+02  0.39167345220E+02  0.40659143103E+02  0.00000000000E+00 0.  1.
         11    1    3    3    0    0 -0.80825056363E+00  0.52463552094E+01 -0.16322880650E+02  0.17164321861E+02  0.51100000000E-03 0. -1.
        -11    1    3    3    0    0  0.22585179784E+01 -0.11987466341E+02 -0.22780715090E+01  0.12409265200E+02  0.51100000000E-03 0.  1.
         12    1    3    3    0    0  0.73167919939E+00 -0.39511335016E+01 -0.20566393060E+02  0.20955269836E+02  0.00000000000E+00 0. -1.
</event>
<event>
 7    1  0.4963616E-011  0.5052886E+02  0.7816164E-02  0.1300439E+00
        -11   -1    0    0    0    0  0.00000000000E+00  0.00000000000E+00  0.45593999997E+02  0.45594000000E+02  0.51100000000E-03 0.  1.
         11   -1    0    0    0    0 -0.00000000000E+00 -0.00000000000E+00 -0.45593999997E+02  0.45594000000E+02  0.51100000000E-03 0. -1.
    9900012    2    1    2    0    0 -0.82406054416E+01  0.24201875315E+02 -0.31615304100E+02  0.50528858345E+02  0.29999995425E+02 0.  0.
        -12    1    1    2    0    0  0.82406054416E+01 -0.24201875315E+02  0.31615304100E+02  0.40659141655E+02  0.00000000000E+00 0.  1.
         11    1    3    3    0    0  0.56428274940E+01  0.16106026394E+02 -0.10944759051E+02  0.20273957169E+02  0.51100000000E-03 0. -1.
        -11    1    3    3    0    0 -0.14745618190E+02  0.11175203187E+02 -0.15318476061E+02  0.24020285826E+02  0.51100000000E-03 0.  1.
        -12    1    3    3    0    0  0.86218525412E+00 -0.30793542668E+01 -0.53520689878E+01  0.62346153500E+01  0.00000000000E+00 0.  1.
</event>
<event>
 7    1  0.4963616E-011  0.5052885E+02  0.7816164E-02  0.1300439E+00
        -11   -1    0    0    0    0  0.00000000000E+00  0.00000000000E+00  0.45593999997E+02  0.45594000000E+02  0.51100000000E-03 0.  1.
         11   -1    0    0    0    0 -0.00000000000E+00 -0.00000000000E+00 -0.45593999997E+02  0.45594000000E+02  0.51100000000E-03 0. -1.
    9900012    2    1    2    0    0 -0.44254691378E+01 -0.40030345485E+02 -0.55814769411E+01  0.50528853162E+02  0.29999979672E+02 0.  0.
        -12    1    1    2    0    0  0.44254691378E+01  0.40030345485E+02  0.55814769411E+01  0.40659146838E+02  0.00000000000E+00 0.  1.
         11    1    3    3    0    0  0.10048246676E+02 -0.10442156459E+02  0.11173564772E+01  0.14534592480E+02  0.51100000000E-03 0.  1.
        -11    1    3    3    0    0 -0.20934021400E+01 -0.80978504871E+01 -0.74221199726E+01  0.11182369167E+02  0.51100000000E-03 0. -1.
         12    1    3    3    0    0 -0.12380313674E+02 -0.21490338538E+02  0.72328655438E+00  0.24811891516E+02  0.00000000000E+00 0. -1.
</event>
<event>
 7    1  0.4963616E-011  0.5052888E+02  0.7816164E-02  0.1300439E+00
        -11   -1    0    0    0    0  0.00000000000E+00  0.00000000000E+00  0.45593999997E+02  0.45594000000E+02  0.51100000000E-03 0. -1.
         11   -1    0    0    0    0 -0.00000000000E+00 -0.00000000000E+00 -0.45593999997E+02  0.45594000000E+02  0.51100000000E-03 0.  1.
    9900012    2    1    2    0    0  0.35100917711E+02  0.19469504069E+02 -0.64828918599E+01  0.50528881714E+02  0.30000066459E+02 0.  0.
        -12    1    1    2    0    0 -0.35100917711E+02 -0.19469504069E+02  0.64828918599E+01  0.40659118286E+02  0.00000000000E+00 0.  1.
         11    1    3    3    0    0 -0.30522963096E+01  0.77263910906E+00  0.34949228476E+01  0.47040376195E+01  0.51100000000E-03 0. -1.
        -11    1    3    3    0    0  0.19630532765E+02  0.14459049242E+02 -0.38083514540E-01  0.24380799253E+02  0.51100000000E-03 0.  1.
         12    1    3    3    0    0  0.18522681256E+02  0.42378157184E+01 -0.99397311930E+01  0.21444044842E+02  0.00000000000E+00 0. -1.
</event>
<event>
 7    1  0.4963616E-011  0.5052882E+02  0.7816164E-02  0.1300439E+00
        -11   -1    0    0    0    0  0.00000000000E+00  0.00000000000E+00  0.45593999997E+02  0.45594000000E+02  0.51100000000E-03 0.  1.
         11   -1    0    0    0    0 -0.00000000000E+00 -0.00000000000E+00 -0.45593999997E+02  0.45594000000E+02  0.51100000000E-03 0. -1.
    9900012    2    1    2    0    0 -0.10497258404E+02 -0.16287942800E+02 -0.35744641661E+02  0.50528819952E+02  0.29999878727E+02 0.  0.
        -12    1    1    2    0    0  0.10497258404E+02  0.16287942800E+02  0.35744641661E+02  0.40659180048E+02  0.00000000000E+00 0.  1.
         11    1    3    3    0    0  0.21690994240E+01 -0.28378578632E+01 -0.29217418491E+01  0.46146511523E+01  0.51100000000E-03 0. -1.
        -11    1    3    3    0    0 -0.16934749171E+02 -0.17130748617E+02 -0.18044191252E+02  0.30097194485E+02  0.51100000000E-03 0.  1.
        -12    1    3    3    0    0  0.42683913433E+01  0.36806636801E+01 -0.14778708560E+02  0.15816974315E+02  0.00000000000E+00 0.  1.
</event>
<event>
 7    1  0.4963616E-011  0.5052884E+02  0.7816164E-02  0.1300439E+00
        -11   -1    0    0    0    0  0.00000000000E+00  0.00000000000E+00  0.45593999997E+02  0.45594000000E+02  0.51100000000E-03 0. -1.
         11   -1    0    0    0    0 -0.00000000000E+00 -0.00000000000E+00 -0.45593999997E+02  0.45594000000E+02  0.51100000000E-03 0.  1.
    9900012    2    1    2    0    0 -0.10906557194E+02 -0.19727704762E+02  0.33838317928E+02  0.50528842542E+02  0.29999947390E+02 0.  0.
        -12    1    1    2    0    0  0.10906557194E+02  0.19727704762E+02 -0.33838317928E+02  0.40659157458E+02  0.00000000000E+00 0.  1.
         11    1    3    3    0    0  0.34172323386E+01 -0.94071141459E+01  0.49947883626E+01  0.11185668709E+02  0.51100000000E-03 0. -1.
        -11    1    3    3    0    0 -0.79830120737E+01  0.52930729413E+01  0.76005668417E+01  0.12227580280E+02  0.51100000000E-03 0.  1.
        -12    1    3    3    0    0 -0.63407774590E+01 -0.15613663557E+02  0.21242962724E+02  0.27115593553E+02  0.00000000000E+00 0.  1.
</event>
<event>
 7    1  0.4963616E-011  0.5052886E+02  0.7816164E-02  0.1300439E+00
        -11   -1    0    0    0    0  0.00000000000E+00  0.00000000000E+00  0.45593999997E+02  0.45594000000E+02  0.51100000000E-03 0. -1.
         11   -1    0    0    0    0 -0.00000000000E+00 -0.00000000000E+00 -0.45593999997E+02  0.45594000000E+02  0.51100000000E-03 0.  1.
    9900012    2    1    2    0    0  0.29201427286E+02 -0.28064369943E+02  0.35823811058E+01  0.50528859942E+02  0.30000000281E+02 0.  0.
        -12    1    1    2    0    0 -0.29201427286E+02  0.28064369943E+02 -0.35823811058E+01  0.40659140058E+02  0.00000000000E+00 0.  1.
         11    1    3    3    0    0  0.56589489077E+01 -0.14246938254E+02 -0.98706525530E+01  0.18232628292E+02  0.51100000000E-03 0. -1.
        -11    1    3    3    0    0  0.26840303216E+01 -0.15359932893E+01  0.63613847908E+01  0.70732249271E+01  0.51100000000E-03 0.  1.
         12    1    3    3    0    0  0.20858448056E+02 -0.12281438400E+02  0.70916488680E+01  0.25223006723E+02  0.00000000000E+00 0. -1.
</event>
<event>
 7    1  0.4963616E-011  0.5052886E+02  0.7816164E-02  0.1300439E+00
        -11   -1    0    0    0    0  0.00000000000E+00  0.00000000000E+00  0.45593999997E+02  0.45594000000E+02  0.51100000000E-03 0.  1.
         11   -1    0    0    0    0 -0.00000000000E+00 -0.00000000000E+00 -0.45593999997E+02  0.45594000000E+02  0.51100000000E-03 0. -1.
    9900012    2    1    2    0    0 -0.20755810353E+01 -0.39173762164E+02 -0.10689899119E+02  0.50528860536E+02  0.30000002086E+02 0.  0.
        -12    1    1    2    0    0  0.20755810353E+01  0.39173762164E+02  0.10689899119E+02  0.40659139464E+02  0.00000000000E+00 0.  1.
         11    1    3    3    0    0 -0.21952400024E+01 -0.27303403320E+02 -0.58001790131E+01  0.27998874769E+02  0.51100000000E-03 0. -1.
        -11    1    3    3    0    0 -0.21131173576E+01  0.35962440673E+01  0.28891415609E+01  0.50739901042E+01  0.51100000000E-03 0.  1.
        -12    1    3    3    0    0  0.22327763246E+01 -0.15466602912E+02 -0.77788616663E+01  0.17455995663E+02  0.00000000000E+00 0.  1.
</event>
<event>
 7    1  0.4963616E-011  0.5052886E+02  0.7816164E-02  0.1300439E+00
        -11   -1    0    0    0    0  0.00000000000E+00  0.00000000000E+00  0.45593999997E+02  0.45594000000E+02  0.51100000000E-03 0. -1.
         11   -1    0    0    0    0 -0.00000000000E+00 -0.00000000000E+00 -0.45593999997E+02  0.45594000000E+02  0.51100000000E-03 0.  1.
    9900012    2    1    2    0    0 -0.26658428739E+02 -0.14422731570E+02  0.27101267495E+02  0.50528859470E+02  0.29999998846E+02 0.  0.
        -12    1    1    2    0    0  0.26658428739E+02  0.14422731570E+02 -0.27101267495E+02  0.40659140530E+02  0.00000000000E+00 0.  1.
         11    1    3    3    0    0 -0.68468181904E+01 -0.11630609662E+02  0.10716022883E+02  0.17233198982E+02  0.51100000000E-03 0. -1.
        -11    1    3    3    0    0 -0.22085683811E+02  0.34383937888E+01  0.12727159979E+02  0.25721208810E+02  0.51100000000E-03 0.  1.
        -12    1    3    3    0    0  0.22740732627E+01 -0.62305156971E+01  0.36580846326E+01  0.75744516789E+01  0.00000000000E+00 0.  1.
</event>
<event>
 7    1  0.4963616E-011  0.5052886E+02  0.7816164E-02  0.1300439E+00
        -11   -1    0    0    0    0  0.00000000000E+00  0.00000000000E+00  0.45593999997E+02  0.45594000000E+02  0.51100000000E-03 0. -1.
         11   -1    0    0    0    0 -0.00000000000E+00 -0.00000000000E+00 -0.45593999997E+02  0.45594000000E+02  0.51100000000E-03 0.  1.
    9900012    2    1    2    0    0 -0.20683945197E+02  0.34323103128E+02  0.68749244414E+01  0.50528861011E+02  0.30000003530E+02 0.  0.
        -12    1    1    2    0    0  0.20683945197E+02 -0.34323103128E+02 -0.68749244414E+01  0.40659138989E+02  0.00000000000E+00 0.  1.
         11    1    3    3    0    0 -0.50575382771E+00  0.59033218599E+01  0.90586508875E+01  0.10824239099E+02  0.51100000000E-03 0. -1.
        -11    1    3    3    0    0 -0.17004006159E+00  0.86351341115E+01 -0.70498441896E+01  0.11148755899E+02  0.51100000000E-03 0.  1.
        -12    1    3    3    0    0 -0.20008151308E+02  0.19784647156E+02  0.48661177435E+01  0.28555866013E+02  0.00000000000E+00 0.  1.
</event>
<event>
 7    1  0.4963616E-011  0.5052886E+02  0.7816164E-02  0.1300439E+00
        -11   -1    0    0    0    0  0.00000000000E+00  0.00000000000E+00  0.45593999997E+02  0.45594000000E+02  0.51100000000E-03 0. -1.
         11   -1    0    0    0    0 -0.00000000000E+00 -0.00000000000E+00 -0.45593999997E+02  0.45594000000E+02  0.51100000000E-03 0.  1.
    9900012    2    1    2    0    0 -0.18103460557E+01  0.36987777919E+02  0.16786672569E+02  0.50528862722E+02  0.30000008731E+02 0.  0.
        -12    1    1    2    0    0  0.18103460557E+01 -0.36987777919E+02 -0.16786672569E+02  0.40659137278E+02  0.00000000000E+00 0.  1.
         11    1    3    3    0    0  0.67544254732E+01  0.12239385718E+02  0.10880835811E+02  0.17714892448E+02  0.51100000000E-03 0. -1.
        -11    1    3    3    0    0 -0.89028679276E+01  0.27425702292E+02  0.73454182619E+01  0.29755425946E+02  0.51100000000E-03 0.  1.
         12    1    3    3    0    0  0.33809639872E+00 -0.26773100913E+01 -0.14395815039E+01  0.30585443279E+01  0.00000000000E+00 0. -1.
</event>
<event>
 7    1  0.4963616E-011  0.5052886E+02  0.7816164E-02  0.1300439E+00
        -11   -1    0    0    0    0  0.00000000000E+00  0.00000000000E+00  0.45593999997E+02  0.45594000000E+02  0.51100000000E-03 0.  1.
         11   -1    0    0    0    0 -0.00000000000E+00 -0.00000000000E+00 -0.45593999997E+02  0.45594000000E+02  0.51100000000E-03 0. -1.
    9900012    2    1    2    0    0 -0.30363988823E+02  0.26630575694E+02 -0.46910840740E+01  0.50528860205E+02  0.30000001080E+02 0.  0.
        -12    1    1    2    0    0  0.30363988823E+02 -0.26630575694E+02  0.46910840740E+01  0.40659139795E+02  0.00000000000E+00 0.  1.
         11    1    3    3    0    0 -0.66301365832E+01 -0.15164038430E+01 -0.47661738918E+01  0.83050951563E+01  0.51100000000E-03 0. -1.
        -11    1    3    3    0    0 -0.92362834880E+01  0.79197074716E+01  0.96806192835E+01  0.15548153880E+02  0.51100000000E-03 0.  1.
        -12    1    3    3    0    0 -0.14497568752E+02  0.20227272066E+02 -0.96055294657E+01  0.26675611169E+02  0.00000000000E+00 0.  1.
</event>
<event>
 7    1  0.4963616E-011  0.5052886E+02  0.7816164E-02  0.1300439E+00
        -11   -1    0    0    0    0  0.00000000000E+00  0.00000000000E+00  0.45593999997E+02  0.45594000000E+02  0.51100000000E-03 0.  1.
         11   -1    0    0    0    0 -0.00000000000E+00 -0.00000000000E+00 -0.45593999997E+02  0.45594000000E+02  0.51100000000E-03 0. -1.
    9900012    2    1    2    0    0  0.84006936281E+01 -0.16307762729E+02 -0.36285679954E+02  0.50528863900E+02  0.30000012311E+02 0.  0.
        -12    1    1    2    0    0 -0.84006936281E+01  0.16307762729E+02  0.36285679954E+02  0.40659136100E+02  0.00000000000E+00 0.  1.
         11    1    3    3    0    0  0.12243409675E+02 -0.22312721940E+01 -0.21151185184E+02  0.24540829062E+02  0.51100000000E-03 0. -1.
        -11    1    3    3    0    0 -0.26493244662E+01 -0.16856565378E+02 -0.93429133915E+01  0.19453862017E+02  0.51100000000E-03 0.  1.
        -12    1    3    3    0    0 -0.11933915806E+01  0.27800748432E+01 -0.57915813783E+01  0.65341728214E+01  0.00000000000E+00 0.  1.
</event>
<event>
 7    1  0.4963616E-011  0.5052887E+02  0.7816164E-02  0.1300439E+00
        -11   -1    0    0    0    0  0.00000000000E+00  0.00000000000E+00  0.45593999997E+02  0.45594000000E+02  0.51100000000E-03 0. -1.
         11   -1    0    0    0    0 -0.00000000000E+00 -0.00000000000E+00 -0.45593999997E+02  0.45594000000E+02  0.51100000000E-03 0.  1.
    9900012    2    1    2    0    0 -0.13998644883E+02 -0.33613854202E+02  0.18091758192E+02  0.50528868585E+02  0.30000026552E+02 0.  0.
        -12    1    1    2    0    0  0.13998644883E+02  0.33613854202E+02 -0.18091758192E+02  0.40659131415E+02  0.00000000000E+00 0.  1.
         11    1    3    3    0    0  0.43853732498E+01 -0.15410765543E+02 -0.79244091942E+00  0.16042168059E+02  0.51100000000E-03 0. -1.
        -11    1    3    3    0    0 -0.16442322481E+02 -0.91965749880E+01  0.16314350308E+02  0.24921576722E+02  0.51100000000E-03 0.  1.
        -12    1    3    3    0    0 -0.19416956524E+01 -0.90065136714E+01  0.25698488037E+01  0.95651238044E+01  0.00000000000E+00 0.  1.
</event>
<event>
 7    1  0.4963616E-011  0.5052885E+02  0.7816164E-02  0.1300439E+00
        -11   -1    0    0    0    0  0.00000000000E+00  0.00000000000E+00  0.45593999997E+02  0.45594000000E+02  0.51100000000E-03 0.  1.
         11   -1    0    0    0    0 -0.00000000000E+00 -0.00000000000E+00 -0.45593999997E+02  0.45594000000E+02  0.51100000000E-03 0. -1.
    9900012    2    1    2    0    0  0.35399001851E+02 -0.15034973359E+02 -0.13191906283E+02  0.50528854075E+02  0.29999982446E+02 0.  0.
        -12    1    1    2    0    0 -0.35399001851E+02  0.15034973359E+02  0.13191906283E+02  0.40659145925E+02  0.00000000000E+00 0.  1.
         11    1    3    3    0    0  0.26791458161E+02 -0.78747764032E+01 -0.17462427240E+02  0.32935250100E+02  0.51100000000E-03 0. -1.
        -11    1    3    3    0    0  0.68108467224E+01 -0.10325465625E+02  0.53926204203E+00  0.12381182386E+02  0.51100000000E-03 0.  1.
         12    1    3    3    0    0  0.17966969678E+01  0.31652686692E+01  0.37312589142E+01  0.52124215895E+01  0.00000000000E+00 0. -1.
</event>
<event>
 7    1  0.4963616E-011  0.5052886E+02  0.7816164E-02  0.1300439E+00
        -11   -1    0    0    0    0  0.00000000000E+00  0.00000000000E+00  0.45593999997E+02  0.45594000000E+02  0.51100000000E-03 0. -1.
         11   -1    0    0    0    0 -0.00000000000E+00 -0.00000000000E+00 -0.45593999997E+02  0.45594000000E+02  0.51100000000E-03 0.  1.
    9900012    2    1    2    0    0  0.73100153203E+01 -0.73138945512E+01  0.39322211301E+02  0.50528859833E+02  0.29999999949E+02 0.  0.
        -12    1    1    2    0    0 -0.73100153203E+01  0.73138945512E+01 -0.39322211301E+02  0.40659140167E+02  0.00000000000E+00 0.  1.
         11    1    3    3    0    0  0.11045107430E+01 -0.62730270077E+01  0.13526100113E+01  0.65115563366E+01  0.51100000000E-03 0. -1.
        -11    1    3    3    0    0  0.88561741319E+00  0.94989466094E+01  0.23363777957E+02  0.25236489962E+02  0.51100000000E-03 0.  1.
        -12    1    3    3    0    0  0.53198871641E+01 -0.10539814153E+02  0.14605823332E+02  0.18780813535E+02  0.00000000000E+00 0.  1.
</event>
<event>
 7    1  0.4963616E-011  0.5052885E+02  0.7816164E-02  0.1300439E+00
        -11   -1    0    0    0    0  0.00000000000E+00  0.00000000000E+00  0.45593999997E+02  0.45594000000E+02  0.51100000000E-03 0.  1.
         11   -1    0    0    0    0 -0.00000000000E+00 -0.00000000000E+00 -0.45593999997E+02  0.45594000000E+02  0.51100000000E-03 0. -1.
    9900012    2    1    2    0    0 -0.27093061065E+02  0.80149771310E+01 -0.29238540836E+02  0.50528854823E+02  0.29999984720E+02 0.  0.
        -12    1    1    2    0    0  0.27093061065E+02 -0.80149771310E+01  0.29238540836E+02  0.40659145177E+02  0.00000000000E+00 0.  1.
         11    1    3    3    0    0  0.47379494162E+00  0.10644614149E+02 -0.78778255827E+01  0.13251129318E+02  0.51100000000E-03 0. -1.
        -11    1    3    3    0    0 -0.97258009482E+01 -0.63365766010E+01 -0.44933046893E+01  0.12447216331E+02  0.51100000000E-03 0.  1.
         12    1    3    3    0    0 -0.17841055059E+02  0.37069395828E+01 -0.16867410564E+02  0.24830509174E+02  0.00000000000E+00 0. -1.
</event>
<event>
 7    1  0.4963616E-011  0.5052887E+02  0.7816164E-02  0.1300439E+00
        -11   -1    0    0    0    0  0.00000000000E+00  0.00000000000E+00  0.45593999997E+02  0.45594000000E+02  0.51100000000E-03 0.  1.
         11   -1    0    0    0    0 -0.00000000000E+00 -0.00000000000E+00 -0.45593999997E+02  0.45594000000E+02  0.51100000000E-03 0. -1.
    9900012    2    1    2    0    0 -0.48361699027E+01 -0.57194270210E+01 -0.39963289876E+02  0.50528869138E+02  0.30000028231E+02 0.  0.
        -12    1    1    2    0    0  0.48361699027E+01  0.57194270210E+01  0.39963289876E+02  0.40659130862E+02  0.00000000000E+00 0.  1.
         11    1    3    3    0    0 -0.20516028102E+01 -0.77779451363E+01 -0.42872266021E+02  0.43620370226E+02  0.51100000000E-03 0. -1.
        -11    1    3    3    0    0  0.33755836344E+00  0.21697521611E+01  0.30766606349E+01  0.37798956352E+01  0.51100000000E-03 0.  1.
         12    1    3    3    0    0 -0.31221254559E+01 -0.11123404579E+00 -0.16768449001E+00  0.31286032768E+01  0.00000000000E+00 0. -1.
</event>
<event>
 7    1  0.5000034E-011  0.5052886E+02  0.7816164E-02  0.1300439E+00
        -11   -1    0    0    0    0  0.00000000000E+00  0.00000000000E+00  0.45593999997E+02  0.45594000000E+02  0.51100000000E-03 0.  1.
         11   -1    0    0    0    0 -0.00000000000E+00 -0.00000000000E+00 -0.45593999997E+02  0.45594000000E+02  0.51100000000E-03 0. -1.
    9900012    2    1    2    0    0 -0.31147857066E+02  0.19109713432E+02 -0.17826809716E+02  0.50528864595E+02  0.30000014422E+02 0.  0.
        -12    1    1    2    0    0  0.31147857066E+02 -0.19109713432E+02  0.17826809716E+02  0.40659135405E+02  0.00000000000E+00 0.  1.
         11    1    3    3    0    0 -0.14538208400E+02  0.13442236264E+02 -0.16257485149E+02  0.25619505126E+02  0.51100000000E-03 0. -1.
        -11    1    3    3    0    0 -0.16443486845E+01  0.52746131654E+01  0.59812722007E+01  0.81425453048E+01  0.51100000000E-03 0.  1.
         12    1    3    3    0    0 -0.14965299981E+02  0.39286400277E+00 -0.75505967677E+01  0.16766814164E+02  0.00000000000E+00 0. -1.
</event>
<event>
 7    1  0.4963616E-011  0.5052888E+02  0.7816164E-02  0.1300439E+00
        -11   -1    0    0    0    0  0.00000000000E+00  0.00000000000E+00  0.45593999997E+02  0.45594000000E+02  0.51100000000E-03 0. -1.
         11   -1    0    0    0    0 -0.00000000000E+00 -0.00000000000E+00 -0.45593999997E+02  0.45594000000E+02  0.51100000000E-03 0.  1.
    9900012    2    1    2    0    0 -0.33605858288E+02 -0.12886353733E+02  0.18914347633E+02  0.50528875929E+02  0.30000048874E+02 0.  0.
        -12    1    1    2    0    0  0.33605858288E+02  0.12886353733E+02 -0.18914347633E+02  0.40659124071E+02  0.00000000000E+00 0.  1.
         11    1    3    3    0    0 -0.26411231828E+02 -0.88316054146E+01  0.12795230434E+02  0.30647485101E+02  0.51100000000E-03 0. -1.
        -11    1    3    3    0    0 -0.38771592515E+00  0.60426722840E+01 -0.40072503483E+00  0.60683434959E+01  0.51100000000E-03 0.  1.
        -12    1    3    3    0    0 -0.68069105345E+01 -0.10097420603E+02  0.65198422341E+01  0.13813047332E+02  0.00000000000E+00 0.  1.
</event>
<event>
 7    1  0.4963616E-011  0.5052889E+02  0.7816164E-02  0.1300439E+00
        -11   -1    0    0    0    0  0.00000000000E+00  0.00000000000E+00  0.45593999997E+02  0.45594000000E+02  0.51100000000E-03 0.  1.
         11   -1    0    0    0    0 -0.00000000000E+00 -0.00000000000E+00 -0.45593999997E+02  0.45594000000E+02  0.51100000000E-03 0. -1.
    9900012    2    1    2    0    0 -0.29625215656E+02  0.24051593065E+02 -0.14036753504E+02  0.50528893019E+02  0.30000100819E+02 0.  0.
        -12    1    1    2    0    0  0.29625215656E+02 -0.24051593065E+02  0.14036753504E+02  0.40659106981E+02  0.00000000000E+00 0.  1.
         11    1    3    3    0    0 -0.49473826943E+01  0.15390931127E+02 -0.95663963832E+01  0.18784922052E+02  0.51100000000E-03 0. -1.
        -11    1    3    3    0    0 -0.20197478107E+02  0.88420274869E+00 -0.84685774809E+01  0.21918867243E+02  0.51100000000E-03 0.  1.
        -12    1    3    3    0    0 -0.44803548541E+01  0.77764591885E+01  0.39982203602E+01  0.98251037235E+01  0.00000000000E+00 0.  1.
</event>
<event>
 7    1  0.4963616E-011  0.5052885E+02  0.7816164E-02  0.1300439E+00
        -11   -1    0    0    0    0  0.00000000000E+00  0.00000000000E+00  0.45593999997E+02  0.45594000000E+02  0.51100000000E-03 0.  1.
         11   -1    0    0    0    0 -0.00000000000E+00 -0.00000000000E+00 -0.45593999997E+02  0.45594000000E+02  0.51100000000E-03 0. -1.
    9900012    2    1    2    0    0  0.18189499399E+02 -0.16009134457E+02 -0.32649898206E+02  0.50528854321E+02  0.29999983195E+02 0.  0.
        -12    1    1    2    0    0 -0.18189499399E+02  0.16009134457E+02  0.32649898206E+02  0.40659145679E+02  0.00000000000E+00 0.  1.
         11    1    3    3    0    0  0.15191951375E+02 -0.14369775906E+02 -0.97332311676E+01  0.23065594191E+02  0.51100000000E-03 0. -1.
        -11    1    3    3    0    0  0.62839776166E+01  0.26871564473E+01 -0.20325628712E+02  0.21443888809E+02  0.51100000000E-03 0.  1.
        -12    1    3    3    0    0 -0.32864295923E+01 -0.43265149978E+01 -0.25910383265E+01  0.60193713210E+01  0.00000000000E+00 0.  1.
</event>
<event>
 7    1  0.4963616E-011  0.5052886E+02  0.7816164E-02  0.1300439E+00
        -11   -1    0    0    0    0  0.00000000000E+00  0.00000000000E+00  0.45593999997E+02  0.45594000000E+02  0.51100000000E-03 0. -1.
         11   -1    0    0    0    0 -0.00000000000E+00 -0.00000000000E+00 -0.45593999997E+02  0.45594000000E+02  0.51100000000E-03 0.  1.
    9900012    2    1    2    0    0 -0.75643787226E+01  0.14899111267E+02  0.37066997678E+02  0.50528860082E+02  0.30000000706E+02 0.  0.
        -12    1    1    2    0    0  0.75643787226E+01 -0.14899111267E+02 -0.37066997678E+02  0.40659139918E+02  0.00000000000E+00 0.  1.
         11    1    3    3    0    0  0.58280838485E+01 -0.51615423474E+01  0.18218737335E+02  0.19812381762E+02  0.51100000000E-03 0. -1.
        -11    1    3    3    0    0 -0.38402809648E+01  0.52078505201E+01  0.37236450385E+01  0.74655875564E+01  0.51100000000E-03 0.  1.
         12    1    3    3    0    0 -0.95521816063E+01  0.14852803094E+02  0.15124615305E+02  0.23250890764E+02  0.00000000000E+00 0. -1.
</event>
<event>
 7    1  0.4963616E-011  0.5052885E+02  0.7816164E-02  0.1300439E+00
        -11   -1    0    0    0    0  0.00000000000E+00  0.00000000000E+00  0.45593999997E+02  0.45594000000E+02  0.51100000000E-03 0.  1.
         11   -1    0    0    0    0 -0.00000000000E+00 -0.00000000000E+00 -0.45593999997E+02  0.45594000000E+02  0.51100000000E-03 0. -1.
    9900012    2    1    2    0    0 -0.16979052161E+02  0.15888594039E+02 -0.33353129531E+02  0.50528845037E+02  0.29999954974E+02 0.  0.
        -12    1    1    2    0    0  0.16979052161E+02 -0.15888594039E+02  0.33353129531E+02  0.40659154963E+02  0.00000000000E+00 0.  1.
         11    1    3    3    0    0  0.43632119977E+01  0.48922890124E+01 -0.18639863278E+02  0.19758962878E+02  0.51100000000E-03 0. -1.
        -11    1    3    3    0    0 -0.17029277672E+02  0.68922861515E+01 -0.44462113727E+01  0.18901552905E+02  0.51100000000E-03 0.  1.
         12    1    3    3    0    0 -0.43129864867E+01  0.41040188752E+01 -0.10267054880E+02  0.11868329253E+02  0.00000000000E+00 0. -1.
</event>
<event>
 7    1  0.4963616E-011  0.5052886E+02  0.7816164E-02  0.1300439E+00
        -11   -1    0    0    0    0  0.00000000000E+00  0.00000000000E+00  0.45593999997E+02  0.45594000000E+02  0.51100000000E-03 0. -1.
         11   -1    0    0    0    0 -0.00000000000E+00 -0.00000000000E+00 -0.45593999997E+02  0.45594000000E+02  0.51100000000E-03 0.  1.
    9900012    2    1    2    0    0  0.23651669675E+02  0.12275467350E+02  0.30709557962E+02  0.50528861700E+02  0.30000005622E+02 0.  0.
        -12    1    1    2    0    0 -0.23651669675E+02 -0.12275467350E+02 -0.30709557962E+02  0.40659138300E+02  0.00000000000E+00 0.  1.
         11    1    3    3    0    0  0.79741923593E+01  0.70143836318E+01 -0.15432433471E+01  0.10731771606E+02  0.51100000000E-03 0.  1.
        -11    1    3    3    0    0  0.11846228637E+02 -0.45992209365E+01  0.18573414427E+02  0.22504614857E+02  0.51100000000E-03 0. -1.
         12    1    3    3    0    0  0.38312486794E+01  0.98603046546E+01  0.13679386882E+02  0.17292475236E+02  0.00000000000E+00 0. -1.
</event>
<event>
 7    1  0.4963616E-011  0.5052889E+02  0.7816164E-02  0.1300439E+00
        -11   -1    0    0    0    0  0.00000000000E+00  0.00000000000E+00  0.45593999997E+02  0.45594000000E+02  0.51100000000E-03 0.  1.
         11   -1    0    0    0    0 -0.00000000000E+00 -0.00000000000E+00 -0.45593999997E+02  0.45594000000E+02  0.51100000000E-03 0. -1.
    9900012    2    1    2    0    0 -0.21325851672E+02  0.10385407285E+02 -0.33022937090E+02  0.50528892680E+02  0.30000099791E+02 0.  0.
        -12    1    1    2    0    0  0.21325851672E+02 -0.10385407285E+02  0.33022937090E+02  0.40659107320E+02  0.00000000000E+00 0.  1.
         11    1    3    3    0    0  0.36088937227E+01  0.12441378869E+02 -0.88459429511E+01  0.15686386742E+02  0.51100000000E-03 0. -1.
        -11    1    3    3    0    0 -0.76937592556E+01 -0.14804150018E+01 -0.72707596826E+01  0.10688756087E+02  0.51100000000E-03 0.  1.
         12    1    3    3    0    0 -0.17240986139E+02 -0.57555658176E+00 -0.16906234456E+02  0.24153749852E+02  0.00000000000E+00 0. -1.
</event>
<event>
 7    1  0.4963616E-011  0.5052886E+02  0.7816164E-02  0.1300439E+00
        -11   -1    0    0    0    0  0.00000000000E+00  0.00000000000E+00  0.45593999997E+02  0.45594000000E+02  0.51100000000E-03 0. -1.
         11   -1    0    0    0    0 -0.00000000000E+00 -0.00000000000E+00 -0.45593999997E+02  0.45594000000E+02  0.51100000000E-03 0.  1.
    9900012    2    1    2    0    0  0.93004879692E+01 -0.34536420460E+02  0.19336555986E+02  0.50528858198E+02  0.29999994979E+02 0.  0.
        -12    1    1    2    0    0 -0.93004879692E+01  0.34536420460E+02 -0.19336555986E+02  0.40659141802E+02  0.00000000000E+00 0.  1.
         11    1    3    3    0    0  0.11760120320E+02 -0.17831405907E+02  0.18084801908E+02  0.27987846057E+02  0.51100000000E-03 0. -1.
        -11    1    3    3    0    0  0.20622549348E+01 -0.11912918239E+02 -0.53436879343E+01  0.13218378016E+02  0.51100000000E-03 0.  1.
         12    1    3    3    0    0 -0.45218872852E+01 -0.47920963140E+01  0.65954420115E+01  0.93226341251E+01  0.00000000000E+00 0. -1.
</event>
<event>
 7    1  0.4963616E-011  0.5052886E+02  0.7816164E-02  0.1300439E+00
        -11   -1    0    0    0    0  0.00000000000E+00  0.00000000000E+00  0.45593999997E+02  0.45594000000E+02  0.51100000000E-03 0.  1.
         11   -1    0    0    0    0 -0.00000000000E+00 -0.00000000000E+00 -0.45593999997E+02  0.45594000000E+02  0.51100000000E-03 0. -1.
    9900012    2    1    2    0    0  0.79364078273E+01 -0.15367454079E+02 -0.36797014372E+02  0.50528862272E+02  0.30000007363E+02 0.  0.
        -12    1    1    2    0    0 -0.79364078273E+01  0.15367454079E+02  0.36797014372E+02  0.40659137728E+02  0.00000000000E+00 0.  1.
         11    1    3    3    0    0  0.15487689569E+02  0.12316967334E+01 -0.18950366336E+02  0.24505142104E+02  0.51100000000E-03 0. -1.
        -11    1    3    3    0    0 -0.27737497734E+01 -0.18317336016E+01 -0.42026818955E+01  0.53583086108E+01  0.51100000000E-03 0.  1.
         12    1    3    3    0    0 -0.47775319681E+01 -0.14767417210E+02 -0.13643966141E+02  0.20665411557E+02  0.00000000000E+00 0. -1.
</event>
<event>
 7    1  0.4963616E-011  0.5052895E+02  0.7816164E-02  0.1300438E+00
        -11   -1    0    0    0    0  0.00000000000E+00  0.00000000000E+00  0.45593999997E+02  0.45594000000E+02  0.51100000000E-03 0.  1.
         11   -1    0    0    0    0 -0.00000000000E+00 -0.00000000000E+00 -0.45593999997E+02  0.45594000000E+02  0.51100000000E-03 0. -1.
    9900012    2    1    2    0    0  0.34431463443E+02 -0.61020461662E+01  0.20746020856E+02  0.50528953976E+02  0.30000286104E+02 0.  0.
        -12    1    1    2    0    0 -0.34431463443E+02  0.61020461662E+01 -0.20746020856E+02  0.40659046024E+02  0.00000000000E+00 0.  1.
         11    1    3    3    0    0  0.32074996480E+00  0.54451145744E+00  0.56798740185E+01  0.57149227812E+01  0.51100000000E-03 0. -1.
        -11    1    3    3    0    0  0.26628009597E+02 -0.99455796823E+01  0.87847554049E+00  0.28438304624E+02  0.51100000000E-03 0.  1.
        -12    1    3    3    0    0  0.74827038812E+01  0.32990220587E+01  0.14187671297E+02  0.16375726571E+02  0.00000000000E+00 0.  1.
</event>
<event>
 7    1  0.4963616E-011  0.5052886E+02  0.7816164E-02  0.1300439E+00
        -11   -1    0    0    0    0  0.00000000000E+00  0.00000000000E+00  0.45593999997E+02  0.45594000000E+02  0.51100000000E-03 0. -1.
         11   -1    0    0    0    0 -0.00000000000E+00 -0.00000000000E+00 -0.45593999997E+02  0.45594000000E+02  0.51100000000E-03 0.  1.
    9900012    2    1    2    0    0  0.62284121479E+00 -0.37146709949E+02  0.16519670837E+02  0.50528861842E+02  0.30000006054E+02 0.  0.
        -12    1    1    2    0    0 -0.62284121479E+00  0.37146709949E+02 -0.16519670837E+02  0.40659138158E+02  0.00000000000E+00 0.  1.
         11    1    3    3    0    0  0.84248976138E+00 -0.17435874066E+02  0.11341901173E+02  0.20817257647E+02  0.51100000000E-03 0. -1.
        -11    1    3    3    0    0  0.10584550640E+02 -0.11872190751E+02  0.30389901624E+01  0.16193118506E+02  0.51100000000E-03 0.  1.
        -12    1    3    3    0    0 -0.10804199187E+02 -0.78386451311E+01  0.21387795015E+01  0.13518485689E+02  0.00000000000E+00 0.  1.
</event>
<event>
 7    1  0.4963616E-011  0.5052886E+02  0.7816164E-02  0.1300439E+00
        -11   -1    0    0    0    0  0.00000000000E+00  0.00000000000E+00  0.45593999997E+02  0.45594000000E+02  0.51100000000E-03 0.  1.
         11   -1    0    0    0    0 -0.00000000000E+00 -0.00000000000E+00 -0.45593999997E+02  0.45594000000E+02  0.51100000000E-03 0. -1.
    9900012    2    1    2    0    0  0.32424964803E+02 -0.69526243152E+01 -0.23525478741E+02  0.50528862315E+02  0.30000007492E+02 0.  0.
        -12    1    1    2    0    0 -0.32424964803E+02  0.69526243152E+01  0.23525478741E+02  0.40659137685E+02  0.00000000000E+00 0.  1.
         11    1    3    3    0    0 -0.53305768197E+00 -0.66465441895E+01  0.20051383730E+01  0.69628500136E+01  0.51100000000E-03 0. -1.
        -11    1    3    3    0    0  0.17304894485E+02  0.34380317840E+01 -0.19705331627E+02  0.26449565790E+02  0.51100000000E-03 0.  1.
         12    1    3    3    0    0  0.15653127999E+02 -0.37441119097E+01 -0.58252854868E+01  0.17116446511E+02  0.00000000000E+00 0. -1.
</event>
<event>
 7    1  0.4963616E-011  0.5052886E+02  0.7816164E-02  0.1300439E+00
        -11   -1    0    0    0    0  0.00000000000E+00  0.00000000000E+00  0.45593999997E+02  0.45594000000E+02  0.51100000000E-03 0. -1.
         11   -1    0    0    0    0 -0.00000000000E+00 -0.00000000000E+00 -0.45593999997E+02  0.45594000000E+02  0.51100000000E-03 0.  1.
    9900012    2    1    2    0    0  0.31714960614E+02 -0.22117157900E+02 -0.12576108140E+02  0.50528857163E+02  0.29999991832E+02 0.  0.
        -12    1    1    2    0    0 -0.31714960614E+02  0.22117157900E+02  0.12576108140E+02  0.40659142837E+02  0.00000000000E+00 0.  1.
         11    1    3    3    0    0 -0.31068826742E+01 -0.85868889399E+01  0.33687648826E+01  0.97332398878E+01  0.51100000000E-03 0. -1.
        -11    1    3    3    0    0  0.53719057901E+01 -0.10807900454E+01 -0.34044747389E+01  0.64510408035E+01  0.51100000000E-03 0.  1.
         12    1    3    3    0    0  0.29449937498E+02 -0.12449478915E+02 -0.12540398283E+02  0.34344576471E+02  0.00000000000E+00 0. -1.
</event>
<event>
 7    1  0.4963616E-011  0.5052886E+02  0.7816164E-02  0.1300439E+00
        -11   -1    0    0    0    0  0.00000000000E+00  0.00000000000E+00  0.45593999997E+02  0.45594000000E+02  0.51100000000E-03 0.  1.
         11   -1    0    0    0    0 -0.00000000000E+00 -0.00000000000E+00 -0.45593999997E+02  0.45594000000E+02  0.51100000000E-03 0. -1.
    9900012    2    1    2    0    0  0.40351081701E+02  0.36793259930E+01  0.33791347751E+01  0.50528858518E+02  0.29999995952E+02 0.  0.
        -12    1    1    2    0    0 -0.40351081701E+02 -0.36793259930E+01 -0.33791347751E+01  0.40659141482E+02  0.00000000000E+00 0.  1.
         11    1    3    3    0    0  0.10848193618E+02  0.67084536895E+01 -0.22409489091E+01  0.12950231965E+02  0.51100000000E-03 0. -1.
        -11    1    3    3    0    0  0.32667737917E+02 -0.53956203255E+01  0.58370260608E+01  0.33620896669E+02  0.51100000000E-03 0.  1.
        -12    1    3    3    0    0 -0.31648498346E+01  0.23664926290E+01 -0.21694237659E+00  0.39577298838E+01  0.00000000000E+00 0.  1.
</event>
<event>
 7    1  0.4963616E-011  0.5052886E+02  0.7816164E-02  0.1300439E+00
        -11   -1    0    0    0    0  0.00000000000E+00  0.00000000000E+00  0.45593999997E+02  0.45594000000E+02  0.51100000000E-03 0.  1.
         11   -1    0    0    0    0 -0.00000000000E+00 -0.00000000000E+00 -0.45593999997E+02  0.45594000000E+02  0.51100000000E-03 0. -1.
    9900012    2    1    2    0    0 -0.11620798518E+01  0.28420909986E+02 -0.29052838499E+02  0.50528856147E+02  0.29999988743E+02 0.  0.
        -12    1    1    2    0    0  0.11620798518E+01 -0.28420909986E+02  0.29052838499E+02  0.40659143853E+02  0.00000000000E+00 0.  1.
         11    1    3    3    0    0 -0.67033458042E+01 -0.20740039486E+01 -0.39469258053E+00  0.70279527491E+01  0.51100000000E-03 0. -1.
        -11    1    3    3    0    0  0.61651850262E+01  0.17051147493E+02 -0.10678974904E+02  0.21042614915E+02  0.51100000000E-03 0.  1.
         12    1    3    3    0    0 -0.62391907377E+00  0.13443766442E+02 -0.17979171015E+02  0.22458288482E+02  0.00000000000E+00 0. -1.
</event>
<event>
 7    1  0.4963616E-011  0.5052885E+02  0.7816164E-02  0.1300439E+00
        -11   -1    0    0    0    0  0.00000000000E+00  0.00000000000E+00  0.45593999997E+02  0.45594000000E+02  0.51100000000E-03 0.  1.
         11   -1    0    0    0    0 -0.00000000000E+00 -0.00000000000E+00 -0.45593999997E+02  0.45594000000E+02  0.51100000000E-03 0. -1.
    9900012    2    1    2    0    0 -0.23773461446E+02  0.19771410267E+02 -0.26402271853E+02  0.50528854755E+02  0.29999984513E+02 0.  0.
        -12    1    1    2    0    0  0.23773461446E+02 -0.19771410267E+02  0.26402271853E+02  0.40659145245E+02  0.00000000000E+00 0.  1.
         11    1    3    3    0    0 -0.17792098923E+02  0.97613989120E+01 -0.10019914917E+01  0.20318653499E+02  0.51100000000E-03 0. -1.
        -11    1    3    3    0    0 -0.92393720028E+00  0.98541596208E+01 -0.10299124329E+02  0.14283909969E+02  0.51100000000E-03 0.  1.
         12    1    3    3    0    0 -0.50574253222E+01  0.15585173410E+00 -0.15101156032E+02  0.15926291287E+02  0.00000000000E+00 0. -1.
</event>
<event>
 7    1  0.4963616E-011  0.5052887E+02  0.7816164E-02  0.1300439E+00
        -11   -1    0    0    0    0  0.00000000000E+00  0.00000000000E+00  0.45593999997E+02  0.45594000000E+02  0.51100000000E-03 0. -1.
         11   -1    0    0    0    0 -0.00000000000E+00 -0.00000000000E+00 -0.45593999997E+02  0.45594000000E+02  0.51100000000E-03 0.  1.
    9900012    2    1    2    0    0  0.96678031762E+01 -0.38408692606E+02 -0.91908157064E+01  0.50528865980E+02  0.30000018632E+02 0.  0.
        -12    1    1    2    0    0 -0.96678031762E+01  0.38408692606E+02  0.91908157064E+01  0.40659134020E+02  0.00000000000E+00 0.  1.
         11    1    3    3    0    0  0.15529272818E+02 -0.18286619421E+02  0.41580657899E+01  0.24348475835E+02  0.51100000000E-03 0. -1.
        -11    1    3    3    0    0 -0.39621973648E+01 -0.53410050027E+01 -0.78677497637E+01  0.10301787660E+02  0.51100000000E-03 0.  1.
         12    1    3    3    0    0 -0.18992722771E+01 -0.14781068182E+02 -0.54811317326E+01  0.15878602484E+02  0.00000000000E+00 0. -1.
</event>
<event>
 7    1  0.4963616E-011  0.5052885E+02  0.7816164E-02  0.1300439E+00
        -11   -1    0    0    0    0  0.00000000000E+00  0.00000000000E+00  0.45593999997E+02  0.45594000000E+02  0.51100000000E-03 0.  1.
         11   -1    0    0    0    0 -0.00000000000E+00 -0.00000000000E+00 -0.45593999997E+02  0.45594000000E+02  0.51100000000E-03 0. -1.
    9900012    2    1    2    0    0 -0.39819021021E+02 -0.77440302692E+01 -0.27644606253E+01  0.50528847495E+02  0.29999962447E+02 0.  0.
        -12    1    1    2    0    0  0.39819021021E+02  0.77440302692E+01  0.27644606253E+01  0.40659152505E+02  0.00000000000E+00 0.  1.
         11    1    3    3    0    0 -0.25138404042E+02 -0.20591827694E+01 -0.55603689840E+01  0.25828226710E+02  0.51100000000E-03 0. -1.
        -11    1    3    3    0    0 -0.80568897955E+01  0.10093404108E+01  0.99727381343E+01  0.12860316769E+02  0.51100000000E-03 0.  1.
         12    1    3    3    0    0 -0.66237271830E+01 -0.66941879106E+01 -0.71768297757E+01  0.11840304017E+02  0.00000000000E+00 0. -1.
</event>
<event>
 7    1  0.4963616E-011  0.5052886E+02  0.7816164E-02  0.1300439E+00
        -11   -1    0    0    0    0  0.00000000000E+00  0.00000000000E+00  0.45593999997E+02  0.45594000000E+02  0.51100000000E-03 0.  1.
         11   -1    0    0    0    0 -0.00000000000E+00 -0.00000000000E+00 -0.45593999997E+02  0.45594000000E+02  0.51100000000E-03 0. -1.
    9900012    2    1    2    0    0 -0.34930559917E+02 -0.97857514712E+01 -0.18364670270E+02  0.50528855124E+02  0.29999985634E+02 0.  0.
        -12    1    1    2    0    0  0.34930559917E+02  0.97857514712E+01  0.18364670270E+02  0.40659144876E+02  0.00000000000E+00 0.  1.
         11    1    3    3    0    0 -0.16100501098E+02 -0.11425692826E+02  0.37613380509E+01  0.20097767447E+02  0.51100000000E-03 0.  1.
        -11    1    3    3    0    0 -0.16633629588E+02  0.45178467105E+01 -0.17585351526E+02  0.24623833185E+02  0.51100000000E-03 0. -1.
        -12    1    3    3    0    0 -0.21964292303E+01 -0.28779053555E+01 -0.45406567951E+01  0.58072544916E+01  0.00000000000E+00 0.  1.
</event>
<event>
 7    1  0.4963616E-011  0.5052886E+02  0.7816164E-02  0.1300439E+00
        -11   -1    0    0    0    0  0.00000000000E+00  0.00000000000E+00  0.45593999997E+02  0.45594000000E+02  0.51100000000E-03 0. -1.
         11   -1    0    0    0    0 -0.00000000000E+00 -0.00000000000E+00 -0.45593999997E+02  0.45594000000E+02  0.51100000000E-03 0.  1.
    9900012    2    1    2    0    0 -0.24540570820E+01 -0.40199692878E+02 -0.55792612371E+01  0.50528857613E+02  0.29999993201E+02 0.  0.
        -12    1    1    2    0    0  0.24540570820E+01  0.40199692878E+02  0.55792612371E+01  0.40659142387E+02  0.00000000000E+00 0.  1.
         11    1    3    3    0    0 -0.12295768591E+01 -0.40071156667E+02 -0.67336853799E+01  0.40651592527E+02  0.51100000000E-03 0. -1.
        -11    1    3    3    0    0 -0.40672431114E+01 -0.34908114758E+01  0.11123916845E+01  0.54740886737E+01  0.51100000000E-03 0.  1.
         12    1    3    3    0    0  0.28427628885E+01  0.33622752645E+01  0.42032458194E-01  0.44031764128E+01  0.00000000000E+00 0. -1.
</event>
<event>
 7    1  0.4963616E-011  0.5052887E+02  0.7816164E-02  0.1300439E+00
        -11   -1    0    0    0    0  0.00000000000E+00  0.00000000000E+00  0.45593999997E+02  0.45594000000E+02  0.51100000000E-03 0.  1.
         11   -1    0    0    0    0 -0.00000000000E+00 -0.00000000000E+00 -0.45593999997E+02  0.45594000000E+02  0.51100000000E-03 0. -1.
    9900012    2    1    2    0    0  0.11960825150E+02 -0.80256185053E+01 -0.38022274172E+02  0.50528865431E+02  0.30000016965E+02 0.  0.
        -12    1    1    2    0    0 -0.11960825150E+02  0.80256185053E+01  0.38022274172E+02  0.40659134569E+02  0.00000000000E+00 0.  1.
         11    1    3    3    0    0 -0.22595865160E+01  0.85062342427E+01 -0.11310887412E+02  0.14331710524E+02  0.51100000000E-03 0. -1.
        -11    1    3    3    0    0  0.13221664127E+02 -0.13842821849E+02 -0.15518806766E+02  0.24642838366E+02  0.51100000000E-03 0.  1.
        -12    1    3    3    0    0  0.99874753921E+00 -0.26890308986E+01 -0.11192579994E+02  0.11554316542E+02  0.00000000000E+00 0.  1.
</event>
<event>
 7    1  0.5369834E-011  0.5052886E+02  0.7816164E-02  0.1300439E+00
        -11   -1    0    0    0    0  0.00000000000E+00  0.00000000000E+00  0.45593999997E+02  0.45594000000E+02  0.51100000000E-03 0.  1.
         11   -1    0    0    0    0 -0.00000000000E+00 -0.00000000000E+00 -0.45593999997E+02  0.45594000000E+02  0.51100000000E-03 0. -1.
    9900012    2    1    2    0    0 -0.23539736241E+02 -0.29949404317E+02  0.14215471092E+02  0.50528860565E+02  0.30000002172E+02 0.  0.
        -12    1    1    2    0    0  0.23539736241E+02  0.29949404317E+02 -0.14215471092E+02  0.40659139435E+02  0.00000000000E+00 0.  1.
         11    1    3    3    0    0 -0.14132940673E+02 -0.26507406934E+02  0.55932189494E+01  0.30555960677E+02  0.51100000000E-03 0. -1.
        -11    1    3    3    0    0 -0.34711316780E+01  0.79957431421E+00  0.11568917000E+02  0.12104871541E+02  0.51100000000E-03 0.  1.
        -12    1    3    3    0    0 -0.59356638898E+01 -0.42415716979E+01 -0.29466648574E+01  0.78680283466E+01  0.00000000000E+00 0.  1.
</event>
<event>
 7    1  0.4963616E-011  0.5052887E+02  0.7816164E-02  0.1300439E+00
        -11   -1    0    0    0    0  0.00000000000E+00  0.00000000000E+00  0.45593999997E+02  0.45594000000E+02  0.51100000000E-03 0.  1.
         11   -1    0    0    0    0 -0.00000000000E+00 -0.00000000000E+00 -0.45593999997E+02  0.45594000000E+02  0.51100000000E-03 0. -1.
    9900012    2    1    2    0    0 -0.27400285849E+01  0.11697739027E+02 -0.38843532537E+02  0.50528869722E+02  0.30000030007E+02 0.  0.
        -12    1    1    2    0    0  0.27400285849E+01 -0.11697739027E+02  0.38843532537E+02  0.40659130278E+02  0.00000000000E+00 0.  1.
         11    1    3    3    0    0 -0.40574059574E+01  0.42972212498E+00 -0.36051436940E+02  0.36281583620E+02  0.51100000000E-03 0. -1.
        -11    1    3    3    0    0 -0.28165811414E+01  0.81715015164E+01 -0.27892545897E+01  0.90822083100E+01  0.51100000000E-03 0.  1.
         12    1    3    3    0    0  0.41339585140E+01  0.30965153858E+01 -0.28410072061E-02  0.51650777924E+01  0.00000000000E+00 0. -1.
</event>
<event>
 7    1  0.4963616E-011  0.5052884E+02  0.7816164E-02  0.1300439E+00
        -11   -1    0    0    0    0  0.00000000000E+00  0.00000000000E+00  0.45593999997E+02  0.45594000000E+02  0.51100000000E-03 0.  1.
         11   -1    0    0    0    0 -0.00000000000E+00 -0.00000000000E+00 -0.45593999997E+02  0.45594000000E+02  0.51100000000E-03 0. -1.
    9900012    2    1    2    0    0 -0.78183226732E+01 -0.35600555775E+02 -0.18017818172E+02  0.50528837286E+02  0.29999931413E+02 0.  0.
        -12    1    1    2    0    0  0.78183226732E+01  0.35600555775E+02  0.18017818172E+02  0.40659162714E+02  0.00000000000E+00 0.  1.
         11    1    3    3    0    0 -0.12335181336E+01 -0.13293369424E+02  0.77628954223E+01  0.15443373440E+02  0.51100000000E-03 0. -1.
        -11    1    3    3    0    0  0.33140904257E+00 -0.36459725715E+01 -0.59794452694E+01  0.70111849168E+01  0.51100000000E-03 0.  1.
         12    1    3    3    0    0 -0.69162135822E+01 -0.18661213780E+02 -0.19801268325E+02  0.28074278929E+02  0.00000000000E+00 0. -1.
</event>
<event>
 7    1  0.4963616E-011  0.5052886E+02  0.7816164E-02  0.1300439E+00
        -11   -1    0    0    0    0  0.00000000000E+00  0.00000000000E+00  0.45593999997E+02  0.45594000000E+02  0.51100000000E-03 0.  1.
         11   -1    0    0    0    0 -0.00000000000E+00 -0.00000000000E+00 -0.45593999997E+02  0.45594000000E+02  0.51100000000E-03 0. -1.
    9900012    2    1    2    0    0  0.27926023827E+02  0.29431934666E+02  0.26578748593E+01  0.50528857317E+02  0.29999992301E+02 0.  0.
        -12    1    1    2    0    0 -0.27926023827E+02 -0.29431934666E+02 -0.26578748593E+01  0.40659142683E+02  0.00000000000E+00 0.  1.
         11    1    3    3    0    0  0.20870191076E+02  0.26825496580E+02  0.74722806482E+01  0.34799527593E+02  0.51100000000E-03 0. -1.
        -11    1    3    3    0    0  0.49450376541E+01  0.22568252448E+01 -0.92929580976E+01  0.10765952259E+02  0.51100000000E-03 0.  1.
        -12    1    3    3    0    0  0.21107950964E+01  0.34961284113E+00  0.44785523087E+01  0.49633774649E+01  0.00000000000E+00 0.  1.
</event>
<event>
 7    1  0.4963616E-011  0.5052886E+02  0.7816164E-02  0.1300439E+00
        -11   -1    0    0    0    0  0.00000000000E+00  0.00000000000E+00  0.45593999997E+02  0.45594000000E+02  0.51100000000E-03 0.  1.
         11   -1    0    0    0    0 -0.00000000000E+00 -0.00000000000E+00 -0.45593999997E+02  0.45594000000E+02  0.51100000000E-03 0. -1.
    9900012    2    1    2    0    0  0.28304366891E+01  0.80079213162E+01 -0.39762137085E+02  0.50528859315E+02  0.29999998374E+02 0.  0.
        -12    1    1    2    0    0 -0.28304366891E+01 -0.80079213162E+01  0.39762137085E+02  0.40659140685E+02  0.00000000000E+00 0.  1.
         11    1    3    3    0    0 -0.45730581380E+01 -0.44139112321E+00 -0.30097964946E+02  0.30446595557E+02  0.51100000000E-03 0. -1.
        -11    1    3    3    0    0  0.11086215617E+01  0.86383515848E+01 -0.19659808804E+00  0.87114184229E+01  0.51100000000E-03 0.  1.
         12    1    3    3    0    0  0.62948732654E+01 -0.18903914538E+00 -0.94675740509E+01  0.11370845335E+02  0.00000000000E+00 0. -1.
</event>
<event>
 7    1  0.4963616E-011  0.5052887E+02  0.7816164E-02  0.1300439E+00
        -11   -1    0    0    0    0  0.00000000000E+00  0.00000000000E+00  0.45593999997E+02  0.45594000000E+02  0.51100000000E-03 0. -1.
         11   -1    0    0    0    0 -0.00000000000E+00 -0.00000000000E+00 -0.45593999997E+02  0.45594000000E+02  0.51100000000E-03 0.  1.
    9900012    2    1    2    0    0 -0.40531867298E+02 -0.18240250872E+01  0.26468469023E+01  0.50528866553E+02  0.30000020374E+02 0.  0.
        -12    1    1    2    0    0  0.40531867298E+02  0.18240250872E+01 -0.26468469023E+01  0.40659133447E+02  0.00000000000E+00 0.  1.
         11    1    3    3    0    0 -0.27462421203E+02  0.58133150564E+01 -0.43229800707E+01  0.28401890205E+02  0.51100000000E-03 0. -1.
        -11    1    3    3    0    0 -0.21434121731E+01 -0.12641477997E+01  0.89807972645E+01  0.93191740605E+01  0.51100000000E-03 0.  1.
        -12    1    3    3    0    0 -0.10926033922E+02 -0.63731923439E+01 -0.20109702915E+01  0.12807802287E+02  0.00000000000E+00 0.  1.
</event>
<event>
 7    1  0.4963616E-011  0.5052889E+02  0.7816164E-02  0.1300439E+00
        -11   -1    0    0    0    0  0.00000000000E+00  0.00000000000E+00  0.45593999997E+02  0.45594000000E+02  0.51100000000E-03 0.  1.
         11   -1    0    0    0    0 -0.00000000000E+00 -0.00000000000E+00 -0.45593999997E+02  0.45594000000E+02  0.51100000000E-03 0. -1.
    9900012    2    1    2    0    0  0.16992731800E+02  0.36636281984E+02 -0.47109506963E+01  0.50528890957E+02  0.30000094554E+02 0.  0.
        -12    1    1    2    0    0 -0.16992731800E+02 -0.36636281984E+02  0.47109506963E+01  0.40659109043E+02  0.00000000000E+00 0.  1.
         11    1    3    3    0    0  0.82585882930E+00  0.16491105508E+02 -0.26053238766E+01  0.16716049667E+02  0.51100000000E-03 0. -1.
        -11    1    3    3    0    0  0.16431198060E+01  0.56286835388E+01  0.87903391599E+01  0.10566550236E+02  0.51100000000E-03 0.  1.
        -12    1    3    3    0    0  0.14523753165E+02  0.14516492937E+02 -0.10895965980E+02  0.23246291055E+02  0.00000000000E+00 0.  1.
</event>
<event>
 7    1  0.4963616E-011  0.5052886E+02  0.7816164E-02  0.1300439E+00
        -11   -1    0    0    0    0  0.00000000000E+00  0.00000000000E+00  0.45593999997E+02  0.45594000000E+02  0.51100000000E-03 0.  1.
         11   -1    0    0    0    0 -0.00000000000E+00 -0.00000000000E+00 -0.45593999997E+02  0.45594000000E+02  0.51100000000E-03 0. -1.
    9900012    2    1    2    0    0  0.14416222790E+02 -0.86540370183E+01 -0.37019530605E+02  0.50528862251E+02  0.30000007300E+02 0.  0.
        -12    1    1    2    0    0 -0.14416222790E+02  0.86540370183E+01  0.37019530605E+02  0.40659137749E+02  0.00000000000E+00 0.  1.
         11    1    3    3    0    0  0.19649257072E+01  0.85416387179E+00 -0.28354254269E+01  0.35538945633E+01  0.51100000000E-03 0. -1.
        -11    1    3    3    0    0  0.10358120923E+02  0.76332235041E+01 -0.23139733591E+02  0.26476480904E+02  0.51100000000E-03 0.  1.
        -12    1    3    3    0    0  0.20931761599E+01 -0.17141424394E+02 -0.11044371587E+02  0.20498486784E+02  0.00000000000E+00 0.  1.
</event>
<event>
 7    1  0.4963616E-011  0.5052886E+02  0.7816164E-02  0.1300439E+00
        -11   -1    0    0    0    0  0.00000000000E+00  0.00000000000E+00  0.45593999997E+02  0.45594000000E+02  0.51100000000E-03 0.  1.
         11   -1    0    0    0    0 -0.00000000000E+00 -0.00000000000E+00 -0.45593999997E+02  0.45594000000E+02  0.51100000000E-03 0. -1.
    9900012    2    1    2    0    0  0.48230575459E+01  0.39292599599E+02  0.92733812978E+01  0.50528857510E+02  0.29999992888E+02 0.  0.
        -12    1    1    2    0    0 -0.48230575459E+01 -0.39292599599E+02 -0.92733812978E+01  0.40659142490E+02  0.00000000000E+00 0.  1.
         11    1    3    3    0    0  0.54305700271E+01  0.36129708898E+02  0.81430704811E+01  0.37432025766E+02  0.51100000000E-03 0. -1.
        -11    1    3    3    0    0 -0.46907591128E+01 -0.30500734780E+01  0.82729620691E+00  0.56560223258E+01  0.51100000000E-03 0.  1.
        -12    1    3    3    0    0  0.40832466315E+01  0.62129641788E+01  0.30301460980E+00  0.74408094180E+01  0.00000000000E+00 0.  1.
</event>
<event>
 7    1  0.4963616E-011  0.5052886E+02  0.7816164E-02  0.1300439E+00
        -11   -1    0    0    0    0  0.00000000000E+00  0.00000000000E+00  0.45593999997E+02  0.45594000000E+02  0.51100000000E-03 0. -1.
         11   -1    0    0    0    0 -0.00000000000E+00 -0.00000000000E+00 -0.45593999997E+02  0.45594000000E+02  0.51100000000E-03 0.  1.
    9900012    2    1    2    0    0  0.34972540111E+02 -0.93597040814E+01  0.18506294541E+02  0.50528861299E+02  0.30000004404E+02 0.  0.
        -12    1    1    2    0    0 -0.34972540111E+02  0.93597040814E+01 -0.18506294541E+02  0.40659138701E+02  0.00000000000E+00 0.  1.
         11    1    3    3    0    0  0.33219610941E+02 -0.30768591304E+01  0.13457688172E+02  0.35973865296E+02  0.51100000000E-03 0. -1.
        -11    1    3    3    0    0 -0.55814673416E+00  0.21681916458E+01 -0.22334962403E+01  0.31624497634E+01  0.51100000000E-03 0.  1.
        -12    1    3    3    0    0  0.23110759038E+01 -0.84510365968E+01  0.72821026094E+01  0.11392546239E+02  0.00000000000E+00 0.  1.
</event>
<event>
 7    1  0.5708496E-011  0.5052886E+02  0.7816164E-02  0.1300439E+00
        -11   -1    0    0    0    0  0.00000000000E+00  0.00000000000E+00  0.45593999997E+02  0.45594000000E+02  0.51100000000E-03 0. -1.
         11   -1    0    0    0    0 -0.00000000000E+00 -0.00000000000E+00 -0.45593999997E+02  0.45594000000E+02  0.51100000000E-03 0.  1.
    9900012    2    1    2    0    0 -0.74367598895E+01  0.39052626986E+02 -0.85295296838E+01  0.50528856517E+02  0.29999989868E+02 0.  0.
        -12    1    1    2    0    0  0.74367598895E+01 -0.39052626986E+02  0.85295296838E+01  0.40659143483E+02  0.00000000000E+00 0.  1.
         11    1    3    3    0    0 -0.65926880001E+01  0.20285542933E+02 -0.11378084448E+02  0.24174937293E+02  0.51100000000E-03 0. -1.
        -11    1    3    3    0    0 -0.44235766651E+01 -0.15613864019E+01  0.32532709625E+01  0.57087415623E+01  0.51100000000E-03 0.  1.
        -12    1    3    3    0    0  0.35795047757E+01  0.20328470455E+02 -0.40471619823E+00  0.20645177661E+02  0.00000000000E+00 0.  1.
</event>
<event>
 7    1  0.4963616E-011  0.5052884E+02  0.7816164E-02  0.1300439E+00
        -11   -1    0    0    0    0  0.00000000000E+00  0.00000000000E+00  0.45593999997E+02  0.45594000000E+02  0.51100000000E-03 0.  1.
         11   -1    0    0    0    0 -0.00000000000E+00 -0.00000000000E+00 -0.45593999997E+02  0.45594000000E+02  0.51100000000E-03 0. -1.
    9900012    2    1    2    0    0 -0.15986406845E+01  0.35005384266E+02 -0.20621216078E+02  0.50528841964E+02  0.29999945635E+02 0.  0.
        -12    1    1    2    0    0  0.15986406845E+01 -0.35005384266E+02  0.20621216078E+02  0.40659158036E+02  0.00000000000E+00 0.  1.
         11    1    3    3    0    0 -0.12053756351E+02  0.78014958597E+01  0.20831799038E+00  0.14359657951E+02  0.51100000000E-03 0. -1.
        -11    1    3    3    0    0  0.72520114783E+01  0.12005466122E+02 -0.10380689214E+02  0.17449401024E+02  0.51100000000E-03 0.  1.
         12    1    3    3    0    0  0.32031041887E+01  0.15198422284E+02 -0.10448844854E+02  0.18719782989E+02  0.00000000000E+00 0. -1.
</event>
<event>
 7    1  0.4963616E-011  0.5052885E+02  0.7816164E-02  0.1300439E+00
        -11   -1    0    0    0    0  0.00000000000E+00  0.00000000000E+00  0.45593999997E+02  0.45594000000E+02  0.51100000000E-03 0.  1.
         11   -1    0    0    0    0 -0.00000000000E+00 -0.00000000000E+00 -0.45593999997E+02  0.45594000000E+02  0.51100000000E-03 0. -1.
    9900012    2    1    2    0    0  0.15229094704E+02  0.96359672394E+01 -0.36447070644E+02  0.50528854059E+02  0.29999982397E+02 0.  0.
        -12    1    1    2    0    0 -0.15229094704E+02 -0.96359672394E+01  0.36447070644E+02  0.40659145941E+02  0.00000000000E+00 0.  1.
         11    1    3    3    0    0  0.10085843083E+02 -0.12584741562E+01 -0.25619948374E+02  0.27562469825E+02  0.51100000000E-03 0. -1.
        -11    1    3    3    0    0 -0.95844190882E-01  0.13921922888E+02 -0.92442999914E+01  0.16711858233E+02  0.51100000000E-03 0.  1.
        -12    1    3    3    0    0  0.52390958127E+01 -0.30274814929E+01 -0.15828222784E+01  0.62545260004E+01  0.00000000000E+00 0.  1.
</event>
<event>
 7    1  0.4963616E-011  0.5052889E+02  0.7816164E-02  0.1300439E+00
        -11   -1    0    0    0    0  0.00000000000E+00  0.00000000000E+00  0.45593999997E+02  0.45594000000E+02  0.51100000000E-03 0.  1.
         11   -1    0    0    0    0 -0.00000000000E+00 -0.00000000000E+00 -0.45593999997E+02  0.45594000000E+02  0.51100000000E-03 0. -1.
    9900012    2    1    2    0    0  0.18533504332E+02  0.26783339529E+02 -0.24337738057E+02  0.50528885980E+02  0.30000079425E+02 0.  0.
        -12    1    1    2    0    0 -0.18533504332E+02 -0.26783339529E+02  0.24337738057E+02  0.40659114020E+02  0.00000000000E+00 0.  1.
         11    1    3    3    0    0 -0.42953658251E+01  0.45898597924E+01 -0.81690929111E+01  0.10307815469E+02  0.51100000000E-03 0. -1.
        -11    1    3    3    0    0  0.19525990240E+02  0.16162708471E+02 -0.20055858264E+02  0.32322358994E+02  0.51100000000E-03 0.  1.
         12    1    3    3    0    0  0.33028799168E+01  0.60307712663E+01  0.38872131182E+01  0.78987115176E+01  0.00000000000E+00 0. -1.
</event>
<event>
 7    1  0.4963616E-011  0.5052887E+02  0.7816164E-02  0.1300439E+00
        -11   -1    0    0    0    0  0.00000000000E+00  0.00000000000E+00  0.45593999997E+02  0.45594000000E+02  0.51100000000E-03 0.  1.
         11   -1    0    0    0    0 -0.00000000000E+00 -0.00000000000E+00 -0.45593999997E+02  0.45594000000E+02  0.51100000000E-03 0. -1.
    9900012    2    1    2    0    0  0.13017354214E+02  0.38450017698E+02 -0.23043152266E+01  0.50528865229E+02  0.30000016349E+02 0.  0.
        -12    1    1    2    0    0 -0.13017354214E+02 -0.38450017698E+02  0.23043152266E+01  0.40659134771E+02  0.00000000000E+00 0.  1.
         11    1    3    3    0    0 -0.66090935880E+01  0.96103292809E+01 -0.30227557565E+01  0.12048883748E+02  0.51100000000E-03 0. -1.
        -11    1    3    3    0    0  0.14416814461E+02  0.23942780844E+02  0.71661150332E+01  0.28852287581E+02  0.51100000000E-03 0.  1.
         12    1    3    3    0    0  0.52096333411E+01  0.48969075731E+01 -0.64476745033E+01  0.96276938998E+01  0.00000000000E+00 0. -1.
</event>
<event>
 7    1  0.4963616E-011  0.5052887E+02  0.7816164E-02  0.1300439E+00
        -11   -1    0    0    0    0  0.00000000000E+00  0.00000000000E+00  0.45593999997E+02  0.45594000000E+02  0.51100000000E-03 0.  1.
         11   -1    0    0    0    0 -0.00000000000E+00 -0.00000000000E+00 -0.45593999997E+02  0.45594000000E+02  0.51100000000E-03 0. -1.
    9900012    2    1    2    0    0  0.10528357590E+01  0.37820224731E+02 -0.14889146139E+02  0.50528873908E+02  0.30000042729E+02 0.  0.
        -12    1    1    2    0    0 -0.10528357590E+01 -0.37820224731E+02  0.14889146139E+02  0.40659126092E+02  0.00000000000E+00 0.  1.
         11    1    3    3    0    0 -0.20707373884E+01  0.32902898402E+02 -0.53011189433E+01  0.33391474045E+02  0.51100000000E-03 0. -1.
        -11    1    3    3    0    0  0.92194240466E+00 -0.29623925464E+01 -0.82925818169E+01  0.88539630023E+01  0.51100000000E-03 0.  1.
         12    1    3    3    0    0  0.22016307428E+01  0.78797188757E+01 -0.12954453784E+01  0.82834368602E+01  0.00000000000E+00 0. -1.
</event>
<event>
 7    1  0.4963616E-011  0.5052884E+02  0.7816164E-02  0.1300439E+00
        -11   -1    0    0    0    0  0.00000000000E+00  0.00000000000E+00  0.45593999997E+02  0.45594000000E+02  0.51100000000E-03 0. -1.
         11   -1    0    0    0    0 -0.00000000000E+00 -0.00000000000E+00 -0.45593999997E+02  0.45594000000E+02  0.51100000000E-03 0.  1.
    9900012    2    1    2    0    0 -0.37288283606E+02 -0.15341982622E+02  0.52321244745E+01  0.50528835577E+02  0.29999926219E+02 0.  0.
        -12    1    1    2    0    0  0.37288283606E+02  0.15341982622E+02 -0.52321244745E+01  0.40659164423E+02  0.00000000000E+00 0.  1.
         11    1    3    3    0    0 -0.28852899421E+02 -0.10568737940E+02  0.26360302891E+01  0.30840503928E+02  0.51100000000E-03 0. -1.
        -11    1    3    3    0    0  0.40136935814E+01 -0.28936899431E+01  0.48149676644E+01  0.69041358273E+01  0.51100000000E-03 0.  1.
        -12    1    3    3    0    0 -0.12449077767E+02 -0.18795547393E+01 -0.22188734790E+01  0.12784195821E+02  0.00000000000E+00 0.  1.
</event>
<event>
 7    1  0.4963616E-011  0.5052886E+02  0.7816164E-02  0.1300439E+00
        -11   -1    0    0    0    0  0.00000000000E+00  0.00000000000E+00  0.45593999997E+02  0.45594000000E+02  0.51100000000E-03 0. -1.
         11   -1    0    0    0    0 -0.00000000000E+00 -0.00000000000E+00 -0.45593999997E+02  0.45594000000E+02  0.51100000000E-03 0.  1.
    9900012    2    1    2    0    0  0.19880318292E+02  0.11311691404E+02  0.33615234547E+02  0.50528863124E+02  0.30000009953E+02 0.  0.
        -12    1    1    2    0    0 -0.19880318292E+02 -0.11311691404E+02 -0.33615234547E+02  0.40659136876E+02  0.00000000000E+00 0.  1.
         11    1    3    3    0    0 -0.21350416743E+01  0.83981403657E+01  0.23821738492E+02  0.25348814362E+02  0.51100000000E-03 0. -1.
        -11    1    3    3    0    0 -0.42627107340E+00 -0.28363048937E+00  0.79582179809E-01  0.51815718366E+00  0.51100000000E-03 0.  1.
         12    1    3    3    0    0  0.22441631040E+02  0.31971815272E+01  0.97139138757E+01  0.24661891578E+02  0.00000000000E+00 0. -1.
</event>
<event>
 7    1  0.4963616E-011  0.5052886E+02  0.7816164E-02  0.1300439E+00
        -11   -1    0    0    0    0  0.00000000000E+00  0.00000000000E+00  0.45593999997E+02  0.45594000000E+02  0.51100000000E-03 0.  1.
         11   -1    0    0    0    0 -0.00000000000E+00 -0.00000000000E+00 -0.45593999997E+02  0.45594000000E+02  0.51100000000E-03 0. -1.
    9900012    2    1    2    0    0 -0.18409338510E+02 -0.36182387050E+02  0.22576201191E+01  0.50528859262E+02  0.29999998212E+02 0.  0.
        -12    1    1    2    0    0  0.18409338510E+02  0.36182387050E+02 -0.22576201191E+01  0.40659140738E+02  0.00000000000E+00 0.  1.
         11    1    3    3    0    0 -0.21657806183E+01 -0.20043098136E+02 -0.65905335640E+01  0.21209703475E+02  0.51100000000E-03 0. -1.
        -11    1    3    3    0    0 -0.14660599238E+02 -0.34901416966E+01  0.62188402668E+01  0.16303013022E+02  0.51100000000E-03 0.  1.
        -12    1    3    3    0    0 -0.15829586530E+01 -0.12649147217E+02  0.26293134163E+01  0.13016142764E+02  0.00000000000E+00 0.  1.
</event>
<event>
 7    1  0.4963616E-011  0.5052886E+02  0.7816164E-02  0.1300439E+00
        -11   -1    0    0    0    0  0.00000000000E+00  0.00000000000E+00  0.45593999997E+02  0.45594000000E+02  0.51100000000E-03 0.  1.
         11   -1    0    0    0    0 -0.00000000000E+00 -0.00000000000E+00 -0.45593999997E+02  0.45594000000E+02  0.51100000000E-03 0. -1.
    9900012    2    1    2    0    0 -0.47984482263E+01  0.39086414123E+02 -0.10118942018E+02  0.50528857585E+02  0.29999993114E+02 0.  0.
        -12    1    1    2    0    0  0.47984482263E+01 -0.39086414123E+02  0.10118942018E+02  0.40659142415E+02  0.00000000000E+00 0.  1.
         11    1    3    3    0    0 -0.13001664891E+01  0.38850348634E+02 -0.44452773505E+01  0.39125445849E+02  0.51100000000E-03 0. -1.
        -11    1    3    3    0    0 -0.12678313897E+01 -0.93556951873E+00  0.24416985736E+01  0.29059557709E+01  0.51100000000E-03 0.  1.
         12    1    3    3    0    0 -0.22304503475E+01  0.11716350080E+01 -0.81153632412E+01  0.84974559653E+01  0.00000000000E+00 0. -1.
</event>
<event>
 7    1  0.4963616E-011  0.5052885E+02  0.7816164E-02  0.1300439E+00
        -11   -1    0    0    0    0  0.00000000000E+00  0.00000000000E+00  0.45593999997E+02  0.45594000000E+02  0.51100000000E-03 0.  1.
         11   -1    0    0    0    0 -0.00000000000E+00 -0.00000000000E+00 -0.45593999997E+02  0.45594000000E+02  0.51100000000E-03 0. -1.
    9900012    2    1    2    0    0 -0.73277378464E+01  0.39083387437E+02  0.84829136711E+01  0.50528846789E+02  0.29999960301E+02 0.  0.
        -12    1    1    2    0    0  0.73277378464E+01 -0.39083387437E+02 -0.84829136711E+01  0.40659153211E+02  0.00000000000E+00 0.  1.
         11    1    3    3    0    0 -0.57774392239E+01 -0.33316922855E+00  0.77584692024E+01  0.96790314777E+01  0.51100000000E-03 0. -1.
        -11    1    3    3    0    0 -0.29666135483E+01  0.13489784466E+02  0.46828745157E+01  0.14584388738E+02  0.51100000000E-03 0.  1.
         12    1    3    3    0    0  0.14163149258E+01  0.25926772199E+02 -0.39584300470E+01  0.26265426573E+02  0.00000000000E+00 0. -1.
</event>
<event>
 7    1  0.4963616E-011  0.5052892E+02  0.7816164E-02  0.1300439E+00
        -11   -1    0    0    0    0  0.00000000000E+00  0.00000000000E+00  0.45593999997E+02  0.45594000000E+02  0.51100000000E-03 0.  1.
         11   -1    0    0    0    0 -0.00000000000E+00 -0.00000000000E+00 -0.45593999997E+02  0.45594000000E+02  0.51100000000E-03 0. -1.
    9900012    2    1    2    0    0 -0.19682986080E+02 -0.12560371427E+02 -0.33286299394E+02  0.50528922308E+02  0.30000189848E+02 0.  0.
        -12    1    1    2    0    0  0.19682986080E+02  0.12560371427E+02  0.33286299394E+02  0.40659077692E+02  0.00000000000E+00 0.  1.
         11    1    3    3    0    0 -0.19828295511E+01 -0.98915141464E+01 -0.16255539293E+02  0.19131550463E+02  0.51100000000E-03 0. -1.
        -11    1    3    3    0    0 -0.29533215071E+01  0.75069996126E+01 -0.78875578645E+01  0.11282318930E+02  0.51100000000E-03 0.  1.
        -12    1    3    3    0    0 -0.14746835022E+02 -0.10175856893E+02 -0.91432022362E+01  0.20115052916E+02  0.00000000000E+00 0.  1.
</event>
<event>
 7    1  0.4963616E-011  0.5052886E+02  0.7816164E-02  0.1300439E+00
        -11   -1    0    0    0    0  0.00000000000E+00  0.00000000000E+00  0.45593999997E+02  0.45594000000E+02  0.51100000000E-03 0.  1.
         11   -1    0    0    0    0 -0.00000000000E+00 -0.00000000000E+00 -0.45593999997E+02  0.45594000000E+02  0.51100000000E-03 0. -1.
    9900012    2    1    2    0    0  0.31350235425E+01  0.15317329319E+01 -0.40509152826E+02  0.50528855382E+02  0.29999986419E+02 0.  0.
        -12    1    1    2    0    0 -0.31350235425E+01 -0.15317329319E+01  0.40509152826E+02  0.40659144618E+02  0.00000000000E+00 0.  1.
         11    1    3    3    0    0 -0.92232388133E+00  0.12222502865E+02 -0.28986723892E+02  0.31471740020E+02  0.51100000000E-03 0. -1.
        -11    1    3    3    0    0  0.74067616692E+01 -0.69318814476E+01 -0.77007130083E+01  0.12736250623E+02  0.51100000000E-03 0.  1.
         12    1    3    3    0    0 -0.33494142454E+01 -0.37588884855E+01 -0.38217159253E+01  0.63208647389E+01  0.00000000000E+00 0. -1.
</event>
<event>
 7    1  0.4963616E-011  0.5052888E+02  0.7816164E-02  0.1300439E+00
        -11   -1    0    0    0    0  0.00000000000E+00  0.00000000000E+00  0.45593999997E+02  0.45594000000E+02  0.51100000000E-03 0.  1.
         11   -1    0    0    0    0 -0.00000000000E+00 -0.00000000000E+00 -0.45593999997E+02  0.45594000000E+02  0.51100000000E-03 0. -1.
    9900012    2    1    2    0    0 -0.20230730970E+02 -0.10454639216E+01 -0.35253201552E+02  0.50528884293E+02  0.30000074298E+02 0.  0.
        -12    1    1    2    0    0  0.20230730970E+02  0.10454639216E+01  0.35253201552E+02  0.40659115707E+02  0.00000000000E+00 0.  1.
         11    1    3    3    0    0  0.32197951798E+00 -0.88887840322E+00 -0.23168877369E+02  0.23188157633E+02  0.51100000000E-03 0. -1.
        -11    1    3    3    0    0 -0.14891192030E+02 -0.16046658370E+01 -0.12482336344E+01  0.15029325999E+02  0.51100000000E-03 0.  1.
        -12    1    3    3    0    0 -0.56615184583E+01  0.14480803186E+01 -0.10836090548E+02  0.12311400661E+02  0.00000000000E+00 0.  1.
</event>
<event>
 7    1  0.4963616E-011  0.5052885E+02  0.7816164E-02  0.1300439E+00
        -11   -1    0    0    0    0  0.00000000000E+00  0.00000000000E+00  0.45593999997E+02  0.45594000000E+02  0.51100000000E-03 0. -1.
         11   -1    0    0    0    0 -0.00000000000E+00 -0.00000000000E+00 -0.45593999997E+02  0.45594000000E+02  0.51100000000E-03 0.  1.
    9900012    2    1    2    0    0  0.12836705799E+02 -0.13712449052E+02  0.36060422092E+02  0.50528851998E+02  0.29999976134E+02 0.  0.
        -12    1    1    2    0    0 -0.12836705799E+02  0.13712449052E+02 -0.36060422092E+02  0.40659148002E+02  0.00000000000E+00 0.  1.
         11    1    3    3    0    0  0.23029382849E+01 -0.20712462664E+02  0.24680127690E+02  0.32301986586E+02  0.51100000000E-03 0. -1.
        -11    1    3    3    0    0  0.10394558357E+02  0.65111333758E+01  0.76359246326E+01  0.14448150281E+02  0.51100000000E-03 0.  1.
         12    1    3    3    0    0  0.13920915723E+00  0.48888023616E+00  0.37443697695E+01  0.37787151316E+01  0.00000000000E+00 0. -1.
</event>
<event>
 7    1  0.4963616E-011  0.5052899E+02  0.7816164E-02  0.1300438E+00
        -11   -1    0    0    0    0  0.00000000000E+00  0.00000000000E+00  0.45593999997E+02  0.45594000000E+02  0.51100000000E-03 0.  1.
         11   -1    0    0    0    0 -0.00000000000E+00 -0.00000000000E+00 -0.45593999997E+02  0.45594000000E+02  0.51100000000E-03 0. -1.
    9900012    2    1    2    0    0 -0.18699020876E+02 -0.33855703307E+02 -0.12541661887E+02  0.50528987333E+02  0.30000387496E+02 0.  0.
        -12    1    1    2    0    0  0.18699020876E+02  0.33855703307E+02  0.12541661887E+02  0.40659012667E+02  0.00000000000E+00 0.  1.
         11    1    3    3    0    0 -0.14327117494E+02 -0.33157277987E+02 -0.11338472642E+02  0.37858055171E+02  0.51100000000E-03 0. -1.
        -11    1    3    3    0    0 -0.24298486033E+00 -0.18286197630E+01  0.48888196715E+01  0.52252703204E+01  0.51100000000E-03 0.  1.
         12    1    3    3    0    0 -0.41289185213E+01  0.11301944427E+01 -0.60920089166E+01  0.74456618426E+01  0.00000000000E+00 0. -1.
</event>
<event>
 7    1  0.4963616E-011  0.5052887E+02  0.7816164E-02  0.1300439E+00
        -11   -1    0    0    0    0  0.00000000000E+00  0.00000000000E+00  0.45593999997E+02  0.45594000000E+02  0.51100000000E-03 0.  1.
         11   -1    0    0    0    0 -0.00000000000E+00 -0.00000000000E+00 -0.45593999997E+02  0.45594000000E+02  0.51100000000E-03 0. -1.
    9900012    2    1    2    0    0  0.18508156104E+02  0.32021038891E+02 -0.16889828165E+02  0.50528867330E+02  0.30000022738E+02 0.  0.
        -12    1    1    2    0    0 -0.18508156104E+02 -0.32021038891E+02  0.16889828165E+02  0.40659132670E+02  0.00000000000E+00 0.  1.
         11    1    3    3    0    0  0.84162440033E+01  0.16425907834E+02 -0.50766251540E+01  0.19141988781E+02  0.51100000000E-03 0. -1.
        -11    1    3    3    0    0  0.10647460152E+02  0.56154520922E+01 -0.16437514777E+02  0.20373846034E+02  0.51100000000E-03 0.  1.
        -12    1    3    3    0    0 -0.55554805221E+00  0.99796789650E+01  0.46243117660E+01  0.11013032516E+02  0.00000000000E+00 0.  1.
</event>
<event>
 7    1  0.4963616E-011  0.5052886E+02  0.7816164E-02  0.1300439E+00
        -11   -1    0    0    0    0  0.00000000000E+00  0.00000000000E+00  0.45593999997E+02  0.45594000000E+02  0.51100000000E-03 0.  1.
         11   -1    0    0    0    0 -0.00000000000E+00 -0.00000000000E+00 -0.45593999997E+02  0.45594000000E+02  0.51100000000E-03 0. -1.
    9900012    2    1    2    0    0  0.16435859125E+02 -0.29131598064E+02 -0.23116618255E+02  0.50528861907E+02  0.30000006253E+02 0.  0.
        -12    1    1    2    0    0 -0.16435859125E+02  0.29131598064E+02  0.23116618255E+02  0.40659138093E+02  0.00000000000E+00 0.  1.
         11    1    3    3    0    0  0.19666955650E+00  0.37775753751E+01  0.14032719884E+01  0.40345913255E+01  0.51100000000E-03 0. -1.
        -11    1    3    3    0    0  0.11023967516E+02 -0.10493225413E+02 -0.41886881239E+01  0.15785460013E+02  0.51100000000E-03 0.  1.
         12    1    3    3    0    0  0.52152220524E+01 -0.22415948026E+02 -0.20331202119E+02  0.30708810569E+02  0.00000000000E+00 0. -1.
</event>
<event>
 7    1  0.4963616E-011  0.5052886E+02  0.7816164E-02  0.1300439E+00
        -11   -1    0    0    0    0  0.00000000000E+00  0.00000000000E+00  0.45593999997E+02  0.45594000000E+02  0.51100000000E-03 0.  1.
         11   -1    0    0    0    0 -0.00000000000E+00 -0.00000000000E+00 -0.45593999997E+02  0.45594000000E+02  0.51100000000E-03 0. -1.
    9900012    2    1    2    0    0 -0.36196261931E+02 -0.10971880294E+01 -0.18487628482E+02  0.50528860729E+02  0.30000002672E+02 0.  0.
        -12    1    1    2    0    0  0.36196261931E+02  0.10971880294E+01  0.18487628482E+02  0.40659139271E+02  0.00000000000E+00 0.  1.
         11    1    3    3    0    0 -0.51561165724E+01  0.84291506450E+01 -0.14093029915E+02  0.17211903182E+02  0.51100000000E-03 0. -1.
        -11    1    3    3    0    0 -0.23346206132E+02 -0.76389002056E+01 -0.69597577410E+00  0.24574021234E+02  0.51100000000E-03 0.  1.
         12    1    3    3    0    0 -0.76939392275E+01 -0.18874384687E+01 -0.36986227930E+01  0.87429363130E+01  0.00000000000E+00 0. -1.
</event>
<event>
 7    1  0.4963616E-011  0.5052886E+02  0.7816164E-02  0.1300439E+00
        -11   -1    0    0    0    0  0.00000000000E+00  0.00000000000E+00  0.45593999997E+02  0.45594000000E+02  0.51100000000E-03 0.  1.
         11   -1    0    0    0    0 -0.00000000000E+00 -0.00000000000E+00 -0.45593999997E+02  0.45594000000E+02  0.51100000000E-03 0. -1.
    9900012    2    1    2    0    0  0.20568664162E+02  0.31632823980E+02  0.15147946173E+02  0.50528858695E+02  0.29999996490E+02 0.  0.
        -12    1    1    2    0    0 -0.20568664162E+02 -0.31632823980E+02 -0.15147946173E+02  0.40659141305E+02  0.00000000000E+00 0.  1.
         11    1    3    3    0    0  0.28511974908E+01  0.15260296542E+02 -0.48550076353E+01  0.16265825435E+02  0.51100000000E-03 0. -1.
        -11    1    3    3    0    0  0.13755576237E+02  0.16941773146E+02  0.20838467748E+02  0.30174182562E+02  0.51100000000E-03 0.  1.
        -12    1    3    3    0    0  0.39618904335E+01 -0.56924570800E+00 -0.83551393955E+00  0.40888506975E+01  0.00000000000E+00 0.  1.
</event>
<event>
 7    1  0.5075635E-011  0.5052888E+02  0.7816164E-02  0.1300439E+00
        -11   -1    0    0    0    0  0.00000000000E+00  0.00000000000E+00  0.45593999997E+02  0.45594000000E+02  0.51100000000E-03 0. -1.
         11   -1    0    0    0    0 -0.00000000000E+00 -0.00000000000E+00 -0.45593999997E+02  0.45594000000E+02  0.51100000000E-03 0.  1.
    9900012    2    1    2    0    0 -0.32624799310E+02  0.84655767525E+01  0.22740277189E+02  0.50528883846E+02  0.30000072939E+02 0.  0.
        -12    1    1    2    0    0  0.32624799310E+02 -0.84655767525E+01 -0.22740277189E+02  0.40659116154E+02  0.00000000000E+00 0.  1.
         11    1    3    3    0    0 -0.10410631274E+02  0.10215374732E+02  0.19593758313E+02  0.24426430143E+02  0.51100000000E-03 0. -1.
        -11    1    3    3    0    0 -0.22917775669E+02 -0.37509991138E+00  0.52291147791E+01  0.23509759318E+02  0.51100000000E-03 0.  1.
        -12    1    3    3    0    0  0.70360763280E+00 -0.13746980679E+01 -0.20825959034E+01  0.25926943853E+01  0.00000000000E+00 0.  1.
</event>
<event>
 7    1  0.4963616E-011  0.5052886E+02  0.7816164E-02  0.1300439E+00
        -11   -1    0    0    0    0  0.00000000000E+00  0.00000000000E+00  0.45593999997E+02  0.45594000000E+02  0.51100000000E-03 0.  1.
         11   -1    0    0    0    0 -0.00000000000E+00 -0.00000000000E+00 -0.45593999997E+02  0.45594000000E+02  0.51100000000E-03 0. -1.
    9900012    2    1    2    0    0  0.91950561518E+01  0.39383200031E+02  0.41929034009E+01  0.50528856610E+02  0.29999990151E+02 0.  0.
        -12    1    1    2    0    0 -0.91950561518E+01 -0.39383200031E+02 -0.41929034009E+01  0.40659143390E+02  0.00000000000E+00 0.  1.
         11    1    3    3    0    0  0.10731755778E+02  0.13601900811E+01  0.32580366914E+00  0.10822515762E+02  0.51100000000E-03 0.  1.
        -11    1    3    3    0    0 -0.49224093737E+01  0.24772309593E+02 -0.76095890770E+00  0.25268092435E+02  0.51100000000E-03 0. -1.
        -12    1    3    3    0    0  0.33857097476E+01  0.13250700357E+02  0.46280586394E+01  0.14438248412E+02  0.00000000000E+00 0.  1.
</event>
<event>
 7    1  0.4963616E-011  0.5052886E+02  0.7816164E-02  0.1300439E+00
        -11   -1    0    0    0    0  0.00000000000E+00  0.00000000000E+00  0.45593999997E+02  0.45594000000E+02  0.51100000000E-03 0.  1.
         11   -1    0    0    0    0 -0.00000000000E+00 -0.00000000000E+00 -0.45593999997E+02  0.45594000000E+02  0.51100000000E-03 0. -1.
    9900012    2    1    2    0    0  0.37783589265E+02  0.13261284534E+02 -0.70501107576E+01  0.50528863918E+02  0.30000012366E+02 0.  0.
        -12    1    1    2    0    0 -0.37783589265E+02 -0.13261284534E+02  0.70501107576E+01  0.40659136082E+02  0.00000000000E+00 0.  1.
         11    1    3    3    0    0  0.14464790199E+02  0.47493551135E+01  0.90388541990E+01  0.17705575816E+02  0.51100000000E-03 0. -1.
        -11    1    3    3    0    0  0.82532516232E+01  0.19340406555E+01 -0.13842137815E+02  0.16231495777E+02  0.51100000000E-03 0.  1.
         12    1    3    3    0    0  0.15065547443E+02  0.65778887655E+01 -0.22468271417E+01  0.16591792325E+02  0.00000000000E+00 0. -1.
</event>
<event>
 7    1  0.4963616E-011  0.5052886E+02  0.7816164E-02  0.1300439E+00
        -11   -1    0    0    0    0  0.00000000000E+00  0.00000000000E+00  0.45593999997E+02  0.45594000000E+02  0.51100000000E-03 0. -1.
         11   -1    0    0    0    0 -0.00000000000E+00 -0.00000000000E+00 -0.45593999997E+02  0.45594000000E+02  0.51100000000E-03 0.  1.
    9900012    2    1    2    0    0  0.40757345398E+01  0.30475200232E+02  0.26604812910E+02  0.50528861898E+02  0.30000006226E+02 0.  0.
        -12    1    1    2    0    0 -0.40757345398E+01 -0.30475200232E+02 -0.26604812910E+02  0.40659138102E+02  0.00000000000E+00 0.  1.
         11    1    3    3    0    0  0.10490608557E+02  0.24358879612E+02  0.27144722985E+02  0.37950545056E+02  0.51100000000E-03 0. -1.
        -11    1    3    3    0    0 -0.31880830420E+01 -0.14882474060E+01 -0.22037991058E+01  0.41515641130E+01  0.51100000000E-03 0.  1.
        -12    1    3    3    0    0 -0.32267909750E+01  0.76045680259E+01  0.16638890305E+01  0.84267527294E+01  0.00000000000E+00 0.  1.
</event>
<event>
 7    1  0.4963616E-011  0.5052887E+02  0.7816164E-02  0.1300439E+00
        -11   -1    0    0    0    0  0.00000000000E+00  0.00000000000E+00  0.45593999997E+02  0.45594000000E+02  0.51100000000E-03 0. -1.
         11   -1    0    0    0    0 -0.00000000000E+00 -0.00000000000E+00 -0.45593999997E+02  0.45594000000E+02  0.51100000000E-03 0.  1.
    9900012    2    1    2    0    0  0.25641086513E+02  0.31134471504E+02  0.51327006618E+01  0.50528865116E+02  0.30000016006E+02 0.  0.
        -12    1    1    2    0    0 -0.25641086513E+02 -0.31134471504E+02 -0.51327006618E+01  0.40659134884E+02  0.00000000000E+00 0.  1.
         11    1    3    3    0    0  0.30614629935E+01  0.17713373311E+02 -0.25676465456E+01  0.18158440427E+02  0.51100000000E-03 0. -1.
        -11    1    3    3    0    0  0.55634226521E+01  0.24190863281E+01  0.10287231294E+02  0.11942812828E+02  0.51100000000E-03 0.  1.
         12    1    3    3    0    0  0.17016200868E+02  0.11002011866E+02 -0.25868840869E+01  0.20427611861E+02  0.00000000000E+00 0. -1.
</event>
<event>
 7    1  0.4963616E-011  0.5052886E+02  0.7816164E-02  0.1300439E+00
        -11   -1    0    0    0    0  0.00000000000E+00  0.00000000000E+00  0.45593999997E+02  0.45594000000E+02  0.51100000000E-03 0.  1.
         11   -1    0    0    0    0 -0.00000000000E+00 -0.00000000000E+00 -0.45593999997E+02  0.45594000000E+02  0.51100000000E-03 0. -1.
    9900012    2    1    2    0    0 -0.21257684124E+02 -0.29590311065E+02  0.18046887930E+02  0.50528858258E+02  0.29999995161E+02 0.  0.
        -12    1    1    2    0    0  0.21257684124E+02  0.29590311065E+02 -0.18046887930E+02  0.40659141742E+02  0.00000000000E+00 0.  1.
         11    1    3    3    0    0 -0.62676303791E+01  0.55342507465E+01  0.59430701479E+01  0.10258226208E+02  0.51100000000E-03 0. -1.
        -11    1    3    3    0    0 -0.76449070039E+01 -0.22783808704E+02  0.70275385290E+01  0.25038626963E+02  0.51100000000E-03 0.  1.
         12    1    3    3    0    0 -0.73451467415E+01 -0.12340753107E+02  0.50762792530E+01  0.15232005087E+02  0.00000000000E+00 0. -1.
</event>
<event>
 7    1  0.4963616E-011  0.5052886E+02  0.7816164E-02  0.1300439E+00
        -11   -1    0    0    0    0  0.00000000000E+00  0.00000000000E+00  0.45593999997E+02  0.45594000000E+02  0.51100000000E-03 0. -1.
         11   -1    0    0    0    0 -0.00000000000E+00 -0.00000000000E+00 -0.45593999997E+02  0.45594000000E+02  0.51100000000E-03 0.  1.
    9900012    2    1    2    0    0 -0.35407516661E+02  0.47238608721E+01  0.19420580669E+02  0.50528855258E+02  0.29999986042E+02 0.  0.
        -12    1    1    2    0    0  0.35407516661E+02 -0.47238608721E+01 -0.19420580669E+02  0.40659144742E+02  0.00000000000E+00 0.  1.
         11    1    3    3    0    0 -0.12988127066E+02  0.13565257091E+02  0.36811798531E+00  0.18784119776E+02  0.51100000000E-03 0. -1.
        -11    1    3    3    0    0 -0.14901285376E+02 -0.87301720472E+01  0.99248085171E+01  0.19918986777E+02  0.51100000000E-03 0.  1.
         12    1    3    3    0    0 -0.75181042181E+01 -0.11122417205E+00  0.91276541668E+01  0.11825748705E+02  0.00000000000E+00 0. -1.
</event>
<event>
 7    1  0.4963616E-011  0.5052885E+02  0.7816164E-02  0.1300439E+00
        -11   -1    0    0    0    0  0.00000000000E+00  0.00000000000E+00  0.45593999997E+02  0.45594000000E+02  0.51100000000E-03 0.  1.
         11   -1    0    0    0    0 -0.00000000000E+00 -0.00000000000E+00 -0.45593999997E+02  0.45594000000E+02  0.51100000000E-03 0. -1.
    9900012    2    1    2    0    0 -0.25237463613E+02 -0.31878298986E+02 -0.10291045275E+00  0.50528854578E+02  0.29999983976E+02 0.  0.
        -12    1    1    2    0    0  0.25237463613E+02  0.31878298986E+02  0.10291045275E+00  0.40659145422E+02  0.00000000000E+00 0.  1.
         11    1    3    3    0    0 -0.18429099082E+02 -0.30346031253E+02 -0.10070867404E+02  0.36904412694E+02  0.51100000000E-03 0. -1.
        -11    1    3    3    0    0 -0.52021782371E+01  0.15613972352E+01  0.41233080523E+01  0.68192587055E+01  0.51100000000E-03 0.  1.
         12    1    3    3    0    0 -0.16061862943E+01 -0.30936649685E+01  0.58446488987E+01  0.68051831789E+01  0.00000000000E+00 0. -1.
</event>
<event>
 7    1  0.4963616E-011  0.5052886E+02  0.7816164E-02  0.1300439E+00
        -11   -1    0    0    0    0  0.00000000000E+00  0.00000000000E+00  0.45593999997E+02  0.45594000000E+02  0.51100000000E-03 0.  1.
         11   -1    0    0    0    0 -0.00000000000E+00 -0.00000000000E+00 -0.45593999997E+02  0.45594000000E+02  0.51100000000E-03 0. -1.
    9900012    2    1    2    0    0 -0.31599170596E+01  0.32230386933E+02 -0.24584192881E+02  0.50528862561E+02  0.30000008240E+02 0.  0.
        -12    1    1    2    0    0  0.31599170596E+01 -0.32230386933E+02  0.24584192881E+02  0.40659137439E+02  0.00000000000E+00 0.  1.
         11    1    3    3    0    0  0.27563121791E+01  0.30882816347E+02 -0.95683959425E+01  0.32448417581E+02  0.51100000000E-03 0. -1.
        -11    1    3    3    0    0 -0.64579910406E+01  0.33446631496E+01 -0.82145793273E+01  0.10971405272E+02  0.51100000000E-03 0.  1.
         12    1    3    3    0    0  0.54176180190E+00 -0.19970925639E+01 -0.68012176117E+01  0.71090397073E+01  0.00000000000E+00 0. -1.
</event>
<event>
 7    1  0.4963616E-011  0.5052888E+02  0.7816164E-02  0.1300439E+00
        -11   -1    0    0    0    0  0.00000000000E+00  0.00000000000E+00  0.45593999997E+02  0.45594000000E+02  0.51100000000E-03 0.  1.
         11   -1    0    0    0    0 -0.00000000000E+00 -0.00000000000E+00 -0.45593999997E+02  0.45594000000E+02  0.51100000000E-03 0. -1.
    9900012    2    1    2    0    0  0.17611361626E+02 -0.33625396314E+02 -0.14571785972E+02  0.50528877014E+02  0.30000052172E+02 0.  0.
        -12    1    1    2    0    0 -0.17611361626E+02  0.33625396314E+02  0.14571785972E+02  0.40659122986E+02  0.00000000000E+00 0.  1.
         11    1    3    3    0    0  0.28529817785E+01 -0.26876500736E+02 -0.78338113720E+01  0.28139907564E+02  0.51100000000E-03 0. -1.
        -11    1    3    3    0    0  0.13752482073E+02 -0.78450090148E+01 -0.35687484374E+00  0.15836738601E+02  0.51100000000E-03 0.  1.
        -12    1    3    3    0    0  0.10058977748E+01  0.10961134370E+01 -0.63810997560E+01  0.65522308488E+01  0.00000000000E+00 0.  1.
</event>
<event>
 7    1  0.4963616E-011  0.5052886E+02  0.7816164E-02  0.1300439E+00
        -11   -1    0    0    0    0  0.00000000000E+00  0.00000000000E+00  0.45593999997E+02  0.45594000000E+02  0.51100000000E-03 0. -1.
         11   -1    0    0    0    0 -0.00000000000E+00 -0.00000000000E+00 -0.45593999997E+02  0.45594000000E+02  0.51100000000E-03 0.  1.
    9900012    2    1    2    0    0 -0.31139708230E+01  0.30937517796E+02 -0.26198074196E+02  0.50528856954E+02  0.29999991197E+02 0.  0.
        -12    1    1    2    0    0  0.31139708230E+01 -0.30937517796E+02  0.26198074196E+02  0.40659143046E+02  0.00000000000E+00 0.  1.
         11    1    3    3    0    0 -0.14020891932E+02  0.16217159863E+02 -0.77479812977E+01  0.22795019171E+02  0.51100000000E-03 0. -1.
        -11    1    3    3    0    0  0.12144876841E+02  0.13834426651E+02 -0.14291234840E+02  0.23305123637E+02  0.51100000000E-03 0.  1.
         12    1    3    3    0    0 -0.12379557319E+01  0.88593128274E+00 -0.41588580587E+01  0.44287141457E+01  0.00000000000E+00 0. -1.
</event>
<event>
 7    1  0.4963616E-011  0.5052883E+02  0.7816164E-02  0.1300439E+00
        -11   -1    0    0    0    0  0.00000000000E+00  0.00000000000E+00  0.45593999997E+02  0.45594000000E+02  0.51100000000E-03 0.  1.
         11   -1    0    0    0    0 -0.00000000000E+00 -0.00000000000E+00 -0.45593999997E+02  0.45594000000E+02  0.51100000000E-03 0. -1.
    9900012    2    1    2    0    0  0.24415493659E+02  0.28035159831E+02 -0.16464563661E+02  0.50528826694E+02  0.29999899218E+02 0.  0.
        -12    1    1    2    0    0 -0.24415493659E+02 -0.28035159831E+02  0.16464563661E+02  0.40659173306E+02  0.00000000000E+00 0.  1.
         11    1    3    3    0    0  0.28229116571E+01  0.17627025141E+02 -0.96005239792E+01  0.20269457479E+02  0.51100000000E-03 0. -1.
        -11    1    3    3    0    0  0.58317654271E+01 -0.28597825627E+01  0.33012661629E+01  0.72860279194E+01  0.51100000000E-03 0.  1.
         12    1    3    3    0    0  0.15760816575E+02  0.13267917253E+02 -0.10165305845E+02  0.22973341295E+02  0.00000000000E+00 0. -1.
</event>
<event>
 7    1  0.4963616E-011  0.5052885E+02  0.7816164E-02  0.1300439E+00
        -11   -1    0    0    0    0  0.00000000000E+00  0.00000000000E+00  0.45593999997E+02  0.45594000000E+02  0.51100000000E-03 0.  1.
         11   -1    0    0    0    0 -0.00000000000E+00 -0.00000000000E+00 -0.45593999997E+02  0.45594000000E+02  0.51100000000E-03 0. -1.
    9900012    2    1    2    0    0  0.11549210259E+01 -0.31051606480E+02 -0.26222700716E+02  0.50528854160E+02  0.29999982705E+02 0.  0.
        -12    1    1    2    0    0 -0.11549210259E+01  0.31051606480E+02  0.26222700716E+02  0.40659145840E+02  0.00000000000E+00 0.  1.
         11    1    3    3    0    0  0.35940402366E+01 -0.20451504445E+02 -0.10986684160E+02  0.23492304875E+02  0.51100000000E-03 0. -1.
        -11    1    3    3    0    0 -0.74486717582E+01 -0.62207397937E+01  0.73743410973E+00  0.97326319087E+01  0.51100000000E-03 0.  1.
        -12    1    3    3    0    0  0.50095525475E+01 -0.43793622418E+01 -0.15973450666E+02  0.17303917376E+02  0.00000000000E+00 0.  1.
</event>
<event>
 7    1  0.4963616E-011  0.5052886E+02  0.7816164E-02  0.1300439E+00
        -11   -1    0    0    0    0  0.00000000000E+00  0.00000000000E+00  0.45593999997E+02  0.45594000000E+02  0.51100000000E-03 0.  1.
         11   -1    0    0    0    0 -0.00000000000E+00 -0.00000000000E+00 -0.45593999997E+02  0.45594000000E+02  0.51100000000E-03 0. -1.
    9900012    2    1    2    0    0 -0.21916754044E+02 -0.35892175145E+00 -0.34244602480E+02  0.50528859187E+02  0.29999997984E+02 0.  0.
        -12    1    1    2    0    0  0.21916754044E+02  0.35892175145E+00  0.34244602480E+02  0.40659140813E+02  0.00000000000E+00 0.  1.
         11    1    3    3    0    0  0.65106196903E+01 -0.12583382167E+01 -0.26096022298E+01  0.71261215172E+01  0.51100000000E-03 0. -1.
        -11    1    3    3    0    0 -0.15640886787E+02  0.46363653505E+01 -0.18996659096E+02  0.25040093455E+02  0.51100000000E-03 0.  1.
         12    1    3    3    0    0 -0.12786486947E+02 -0.37369488853E+01 -0.12638341155E+02  0.18362644215E+02  0.00000000000E+00 0. -1.
</event>
<event>
 7    1  0.4963616E-011  0.5052884E+02  0.7816164E-02  0.1300439E+00
        -11   -1    0    0    0    0  0.00000000000E+00  0.00000000000E+00  0.45593999997E+02  0.45594000000E+02  0.51100000000E-03 0.  1.
         11   -1    0    0    0    0 -0.00000000000E+00 -0.00000000000E+00 -0.45593999997E+02  0.45594000000E+02  0.51100000000E-03 0. -1.
    9900012    2    1    2    0    0  0.26195583142E+02 -0.15391127427E+02 -0.27019843907E+02  0.50528839355E+02  0.29999937702E+02 0.  0.
        -12    1    1    2    0    0 -0.26195583142E+02  0.15391127427E+02  0.27019843907E+02  0.40659160645E+02  0.00000000000E+00 0.  1.
         11    1    3    3    0    0 -0.13042449261E+00 -0.88121026098E+01 -0.13777337905E+02  0.16354974869E+02  0.51100000000E-03 0. -1.
        -11    1    3    3    0    0  0.20866119862E+02 -0.39761223007E+01 -0.19088350875E+01  0.21327169487E+02  0.51100000000E-03 0.  1.
         12    1    3    3    0    0  0.54598877719E+01 -0.26029025170E+01 -0.11333670914E+02  0.12846694999E+02  0.00000000000E+00 0. -1.
</event>
<event>
 7    1  0.5081299E-011  0.5052886E+02  0.7816164E-02  0.1300439E+00
        -11   -1    0    0    0    0  0.00000000000E+00  0.00000000000E+00  0.45593999997E+02  0.45594000000E+02  0.51100000000E-03 0.  1.
         11   -1    0    0    0    0 -0.00000000000E+00 -0.00000000000E+00 -0.45593999997E+02  0.45594000000E+02  0.51100000000E-03 0. -1.
    9900012    2    1    2    0    0  0.33565136773E+02  0.58648238948E+01 -0.22184486028E+02  0.50528856056E+02  0.29999988468E+02 0.  0.
        -12    1    1    2    0    0 -0.33565136773E+02 -0.58648238948E+01  0.22184486028E+02  0.40659143944E+02  0.00000000000E+00 0.  1.
         11    1    3    3    0    0  0.11041690671E+02  0.11251963594E+02 -0.90324886728E+01  0.18168969962E+02  0.51100000000E-03 0. -1.
        -11    1    3    3    0    0  0.54078802174E+01 -0.59112934696E+01 -0.12958504945E+02  0.15235202972E+02  0.51100000000E-03 0.  1.
        -12    1    3    3    0    0  0.17115565885E+02  0.52415377085E+00 -0.19349241067E+00  0.17124683122E+02  0.00000000000E+00 0.  1.
</event>
<event>
 7    1  0.4963616E-011  0.5052884E+02  0.7816164E-02  0.1300439E+00
        -11   -1    0    0    0    0  0.00000000000E+00  0.00000000000E+00  0.45593999997E+02  0.45594000000E+02  0.51100000000E-03 0. -1.
         11   -1    0    0    0    0 -0.00000000000E+00 -0.00000000000E+00 -0.45593999997E+02  0.45594000000E+02  0.51100000000E-03 0.  1.
    9900012    2    1    2    0    0  0.32511096729E+02 -0.19095644597E+02  0.15216832940E+02  0.50528842878E+02  0.29999948413E+02 0.  0.
        -12    1    1    2    0    0 -0.32511096729E+02  0.19095644597E+02 -0.15216832940E+02  0.40659157122E+02  0.00000000000E+00 0.  1.
         11    1    3    3    0    0  0.12204825152E+02 -0.16433007100E+02  0.10513740346E+02  0.23011740822E+02  0.51100000000E-03 0. -1.
        -11    1    3    3    0    0  0.17873341437E+02  0.39815866050E+01  0.76592214090E+01  0.19848754089E+02  0.51100000000E-03 0.  1.
         12    1    3    3    0    0  0.24329301405E+01 -0.66442241016E+01 -0.29561288145E+01  0.76683479674E+01  0.00000000000E+00 0. -1.
</event>
<event>
 7    1  0.7947326E-011  0.5052885E+02  0.7816164E-02  0.1300439E+00
        -11   -1    0    0    0    0  0.00000000000E+00  0.00000000000E+00  0.45593999997E+02  0.45594000000E+02  0.51100000000E-03 0.  1.
         11   -1    0    0    0    0 -0.00000000000E+00 -0.00000000000E+00 -0.45593999997E+02  0.45594000000E+02  0.51100000000E-03 0. -1.
    9900012    2    1    2    0    0  0.39330836144E+02 -0.98517642571E+01  0.30322269545E+01  0.50528851816E+02  0.29999975579E+02 0.  0.
        -12    1    1    2    0    0 -0.39330836144E+02  0.98517642571E+01 -0.30322269545E+01  0.40659148184E+02  0.00000000000E+00 0.  1.
         11    1    3    3    0    0  0.29560469581E+02 -0.92930912767E+01  0.28308087390E+01  0.31115854250E+02  0.51100000000E-03 0. -1.
        -11    1    3    3    0    0 -0.80285276528E+00 -0.22260096254E+01  0.65525286604E+01  0.69667297580E+01  0.51100000000E-03 0.  1.
        -12    1    3    3    0    0  0.10573219328E+02  0.16673366450E+01 -0.63511104449E+01  0.12446267807E+02  0.00000000000E+00 0.  1.
</event>
<event>
 7    1  0.4963616E-011  0.5052885E+02  0.7816164E-02  0.1300439E+00
        -11   -1    0    0    0    0  0.00000000000E+00  0.00000000000E+00  0.45593999997E+02  0.45594000000E+02  0.51100000000E-03 0.  1.
         11   -1    0    0    0    0 -0.00000000000E+00 -0.00000000000E+00 -0.45593999997E+02  0.45594000000E+02  0.51100000000E-03 0. -1.
    9900012    2    1    2    0    0  0.30262979396E+02  0.26725888151E+02 -0.48005527111E+01  0.50528851882E+02  0.29999975780E+02 0.  0.
        -12    1    1    2    0    0 -0.30262979396E+02 -0.26725888151E+02  0.48005527111E+01  0.40659148118E+02  0.00000000000E+00 0.  1.
         11    1    3    3    0    0  0.76572508581E+00  0.16618606841E+02  0.28049225385E+01  0.16871040838E+02  0.51100000000E-03 0. -1.
        -11    1    3    3    0    0  0.57476702037E+01  0.19971122046E+01  0.25332479834E+01  0.65910177920E+01  0.51100000000E-03 0.  1.
         12    1    3    3    0    0  0.23749584107E+02  0.81101691055E+01 -0.10138723233E+02  0.27066793252E+02  0.00000000000E+00 0. -1.
</event>
<event>
 7    1  0.4963616E-011  0.5052884E+02  0.7816164E-02  0.1300439E+00
        -11   -1    0    0    0    0  0.00000000000E+00  0.00000000000E+00  0.45593999997E+02  0.45594000000E+02  0.51100000000E-03 0.  1.
         11   -1    0    0    0    0 -0.00000000000E+00 -0.00000000000E+00 -0.45593999997E+02  0.45594000000E+02  0.51100000000E-03 0. -1.
    9900012    2    1    2    0    0  0.45896121868E+01  0.39768822930E+01 -0.40203074672E+02  0.50528839336E+02  0.29999937645E+02 0.  0.
        -12    1    1    2    0    0 -0.45896121868E+01 -0.39768822930E+01  0.40203074672E+02  0.40659160664E+02  0.00000000000E+00 0.  1.
         11    1    3    3    0    0  0.70051363848E+01 -0.14402232533E+01 -0.32733070391E+02  0.33505224612E+02  0.51100000000E-03 0. -1.
        -11    1    3    3    0    0  0.56496647883E+01  0.31904929710E+01 -0.12737309807E+01  0.66121364543E+01  0.51100000000E-03 0.  1.
        -12    1    3    3    0    0 -0.80651889863E+01  0.22266125753E+01 -0.61962733005E+01  0.10411478270E+02  0.00000000000E+00 0.  1.
</event>
<event>
 7    1  0.4963616E-011  0.5052887E+02  0.7816164E-02  0.1300439E+00
        -11   -1    0    0    0    0  0.00000000000E+00  0.00000000000E+00  0.45593999997E+02  0.45594000000E+02  0.51100000000E-03 0. -1.
         11   -1    0    0    0    0 -0.00000000000E+00 -0.00000000000E+00 -0.45593999997E+02  0.45594000000E+02  0.51100000000E-03 0.  1.
    9900012    2    1    2    0    0 -0.89150460918E+01 -0.33651151295E+02  0.21006827363E+02  0.50528870322E+02  0.30000031831E+02 0.  0.
        -12    1    1    2    0    0  0.89150460918E+01  0.33651151295E+02 -0.21006827363E+02  0.40659129678E+02  0.00000000000E+00 0.  1.
         11    1    3    3    0    0 -0.31371319713E+01 -0.21143594690E+02  0.13227451076E+02  0.25136798835E+02  0.51100000000E-03 0. -1.
        -11    1    3    3    0    0 -0.75204230678E+01 -0.15379475963E+01 -0.44491179768E+01  0.88722430625E+01  0.51100000000E-03 0.  1.
        -12    1    3    3    0    0  0.17425089474E+01 -0.10969609008E+02  0.12228494264E+02  0.16519828425E+02  0.00000000000E+00 0.  1.
</event>
<event>
 7    1  0.4963616E-011  0.5052886E+02  0.7816164E-02  0.1300439E+00
        -11   -1    0    0    0    0  0.00000000000E+00  0.00000000000E+00  0.45593999997E+02  0.45594000000E+02  0.51100000000E-03 0.  1.
         11   -1    0    0    0    0 -0.00000000000E+00 -0.00000000000E+00 -0.45593999997E+02  0.45594000000E+02  0.51100000000E-03 0. -1.
    9900012    2    1    2    0    0  0.30256798396E+02 -0.20149668553E+02 -0.18212148775E+02  0.50528863819E+02  0.30000012065E+02 0.  0.
        -12    1    1    2    0    0 -0.30256798396E+02  0.20149668553E+02  0.18212148775E+02  0.40659136181E+02  0.00000000000E+00 0.  1.
         11    1    3    3    0    0  0.16712340024E+02 -0.10287594623E+01  0.27999266078E+01  0.16976461480E+02  0.51100000000E-03 0. -1.
        -11    1    3    3    0    0  0.45471816511E+01 -0.15918871189E+02 -0.12289197621E+02  0.20618237057E+02  0.51100000000E-03 0.  1.
         12    1    3    3    0    0  0.89972767216E+01 -0.32020379017E+01 -0.87228777609E+01  0.12934165283E+02  0.00000000000E+00 0. -1.
</event>
<event>
 7    1  0.4963616E-011  0.5052886E+02  0.7816164E-02  0.1300439E+00
        -11   -1    0    0    0    0  0.00000000000E+00  0.00000000000E+00  0.45593999997E+02  0.45594000000E+02  0.51100000000E-03 0. -1.
         11   -1    0    0    0    0 -0.00000000000E+00 -0.00000000000E+00 -0.45593999997E+02  0.45594000000E+02  0.51100000000E-03 0.  1.
    9900012    2    1    2    0    0  0.10529271251E+02  0.21598834831E+02  0.32799241335E+02  0.50528862635E+02  0.30000008465E+02 0.  0.
        -12    1    1    2    0    0 -0.10529271251E+02 -0.21598834831E+02 -0.32799241335E+02  0.40659137365E+02  0.00000000000E+00 0.  1.
         11    1    3    3    0    0  0.79296484940E+01  0.13673688224E+02  0.48912257363E+01  0.16546092117E+02  0.51100000000E-03 0. -1.
        -11    1    3    3    0    0  0.52478292017E+01 -0.39363403630E+01  0.14328711994E+02  0.15759012483E+02  0.51100000000E-03 0.  1.
        -12    1    3    3    0    0 -0.26482064446E+01  0.11861486970E+02  0.13579303605E+02  0.18223758035E+02  0.00000000000E+00 0.  1.
</event>
<event>
 7    1  0.4963616E-011  0.5052887E+02  0.7816164E-02  0.1300439E+00
        -11   -1    0    0    0    0  0.00000000000E+00  0.00000000000E+00  0.45593999997E+02  0.45594000000E+02  0.51100000000E-03 0.  1.
         11   -1    0    0    0    0 -0.00000000000E+00 -0.00000000000E+00 -0.45593999997E+02  0.45594000000E+02  0.51100000000E-03 0. -1.
    9900012    2    1    2    0    0 -0.39950075242E+02 -0.60245260731E+01 -0.45674364776E+01  0.50528869387E+02  0.30000028989E+02 0.  0.
        -12    1    1    2    0    0  0.39950075242E+02  0.60245260731E+01  0.45674364776E+01  0.40659130613E+02  0.00000000000E+00 0.  1.
         11    1    3    3    0    0 -0.30925141667E+01  0.62757696333E+01 -0.43564930331E+01  0.82418420375E+01  0.51100000000E-03 0. -1.
        -11    1    3    3    0    0 -0.27514741741E+02 -0.87648082187E+00 -0.16188103112E+00  0.27529174296E+02  0.51100000000E-03 0.  1.
         12    1    3    3    0    0 -0.93428193343E+01 -0.11423814885E+02 -0.49062413383E-01  0.14757853054E+02  0.00000000000E+00 0. -1.
</event>
<event>
 7    1  0.4963616E-011  0.5052885E+02  0.7816164E-02  0.1300439E+00
        -11   -1    0    0    0    0  0.00000000000E+00  0.00000000000E+00  0.45593999997E+02  0.45594000000E+02  0.51100000000E-03 0. -1.
         11   -1    0    0    0    0 -0.00000000000E+00 -0.00000000000E+00 -0.45593999997E+02  0.45594000000E+02  0.51100000000E-03 0.  1.
    9900012    2    1    2    0    0  0.64741748171E+00 -0.28843880851E+02  0.28649214726E+02  0.50528854456E+02  0.29999983605E+02 0.  0.
        -12    1    1    2    0    0 -0.64741748171E+00  0.28843880851E+02 -0.28649214726E+02  0.40659145544E+02  0.00000000000E+00 0.  1.
         11    1    3    3    0    0  0.89534469029E+01 -0.21535070683E+02  0.14753287027E+02  0.27596792552E+02  0.51100000000E-03 0. -1.
        -11    1    3    3    0    0 -0.54577149986E+01  0.12464634820E+01  0.12644896338E+02  0.13828728353E+02  0.51100000000E-03 0.  1.
        -12    1    3    3    0    0 -0.28483144225E+01 -0.85552736498E+01  0.12510313610E+01  0.91033335509E+01  0.00000000000E+00 0.  1.
</event>
<event>
 7    1  0.4963616E-011  0.5052885E+02  0.7816164E-02  0.1300439E+00
        -11   -1    0    0    0    0  0.00000000000E+00  0.00000000000E+00  0.45593999997E+02  0.45594000000E+02  0.51100000000E-03 0.  1.
         11   -1    0    0    0    0 -0.00000000000E+00 -0.00000000000E+00 -0.45593999997E+02  0.45594000000E+02  0.51100000000E-03 0. -1.
    9900012    2    1    2    0    0 -0.34628833496E+02  0.17307170093E+02 -0.12428672382E+02  0.50528854127E+02  0.29999982606E+02 0.  0.
        -12    1    1    2    0    0  0.34628833496E+02 -0.17307170093E+02  0.12428672382E+02  0.40659145873E+02  0.00000000000E+00 0.  1.
         11    1    3    3    0    0 -0.20137268644E+02  0.14638938755E+02 -0.19340182068E+02  0.31525398633E+02  0.51100000000E-03 0. -1.
        -11    1    3    3    0    0 -0.12659798123E+02  0.35158222683E+01  0.91334881342E+01  0.16001628058E+02  0.51100000000E-03 0.  1.
         12    1    3    3    0    0 -0.18317667286E+01 -0.84759093032E+00 -0.22219784481E+01  0.30018274362E+01  0.00000000000E+00 0. -1.
</event>
<event>
 7    1  0.4963616E-011  0.5052883E+02  0.7816164E-02  0.1300439E+00
        -11   -1    0    0    0    0  0.00000000000E+00  0.00000000000E+00  0.45593999997E+02  0.45594000000E+02  0.51100000000E-03 0.  1.
         11   -1    0    0    0    0 -0.00000000000E+00 -0.00000000000E+00 -0.45593999997E+02  0.45594000000E+02  0.51100000000E-03 0. -1.
    9900012    2    1    2    0    0  0.38431859964E+02 -0.90833615742E+01 -0.96774271379E+01  0.50528832352E+02  0.29999916418E+02 0.  0.
        -12    1    1    2    0    0 -0.38431859964E+02  0.90833615742E+01  0.96774271379E+01  0.40659167648E+02  0.00000000000E+00 0.  1.
         11    1    3    3    0    0  0.10312268988E+02 -0.14956549851E+02  0.13419958460E+01  0.18216537219E+02  0.51100000000E-03 0. -1.
        -11    1    3    3    0    0  0.17593270676E+02  0.33072020014E+01 -0.16302795556E+01  0.17975499154E+02  0.51100000000E-03 0.  1.
         12    1    3    3    0    0  0.10526320300E+02  0.25659862756E+01 -0.93891434283E+01  0.14336795979E+02  0.00000000000E+00 0. -1.
</event>
<event>
 7    1  0.4963616E-011  0.5052887E+02  0.7816164E-02  0.1300439E+00
        -11   -1    0    0    0    0  0.00000000000E+00  0.00000000000E+00  0.45593999997E+02  0.45594000000E+02  0.51100000000E-03 0.  1.
         11   -1    0    0    0    0 -0.00000000000E+00 -0.00000000000E+00 -0.45593999997E+02  0.45594000000E+02  0.51100000000E-03 0. -1.
    9900012    2    1    2    0    0  0.36880475109E+01 -0.23367749879E+02 -0.33068282829E+02  0.50528871159E+02  0.30000034374E+02 0.  0.
        -12    1    1    2    0    0 -0.36880475109E+01  0.23367749879E+02  0.33068282829E+02  0.40659128841E+02  0.00000000000E+00 0.  1.
         11    1    3    3    0    0 -0.74567414641E+01 -0.21308388159E+02 -0.20637489083E+02  0.30586865729E+02  0.51100000000E-03 0. -1.
        -11    1    3    3    0    0  0.51208547153E+01 -0.63646193383E+01 -0.60110362181E+01  0.10142193501E+02  0.51100000000E-03 0.  1.
         12    1    3    3    0    0  0.60239342597E+01  0.43052576182E+01 -0.64197575279E+01  0.97998119289E+01  0.00000000000E+00 0. -1.
</event>
<event>
 7    1  0.4963616E-011  0.5052884E+02  0.7816164E-02  0.1300439E+00
        -11   -1    0    0    0    0  0.00000000000E+00  0.00000000000E+00  0.45593999997E+02  0.45594000000E+02  0.51100000000E-03 0.  1.
         11   -1    0    0    0    0 -0.00000000000E+00 -0.00000000000E+00 -0.45593999997E+02  0.45594000000E+02  0.51100000000E-03 0. -1.
    9900012    2    1    2    0    0  0.22048321595E+02  0.31251482482E+02 -0.13797960994E+02  0.50528839038E+02  0.29999936741E+02 0.  0.
        -12    1    1    2    0    0 -0.22048321595E+02 -0.31251482482E+02  0.13797960994E+02  0.40659160962E+02  0.00000000000E+00 0.  1.
         11    1    3    3    0    0  0.13245831818E+02  0.10149056786E+02 -0.10172900944E+02  0.19543370438E+02  0.51100000000E-03 0. -1.
        -11    1    3    3    0    0 -0.47551222581E+01 -0.82336017424E+00  0.59875552060E+00  0.48628816663E+01  0.51100000000E-03 0.  1.
         12    1    3    3    0    0  0.13557612035E+02  0.21925785871E+02 -0.42238155711E+01  0.26122586934E+02  0.00000000000E+00 0. -1.
</event>
<event>
 7    1  0.4963616E-011  0.5052886E+02  0.7816164E-02  0.1300439E+00
        -11   -1    0    0    0    0  0.00000000000E+00  0.00000000000E+00  0.45593999997E+02  0.45594000000E+02  0.51100000000E-03 0.  1.
         11   -1    0    0    0    0 -0.00000000000E+00 -0.00000000000E+00 -0.45593999997E+02  0.45594000000E+02  0.51100000000E-03 0. -1.
    9900012    2    1    2    0    0  0.13675638629E+02  0.38071099492E+02 -0.40907302277E+01  0.50528858565E+02  0.29999996093E+02 0.  0.
        -12    1    1    2    0    0 -0.13675638629E+02 -0.38071099492E+02  0.40907302277E+01  0.40659141435E+02  0.00000000000E+00 0.  1.
         11    1    3    3    0    0  0.72744004885E+01  0.35880407503E+02 -0.74797175718E+01  0.37366652517E+02  0.51100000000E-03 0. -1.
        -11    1    3    3    0    0  0.56742809479E+01 -0.36359519005E+01  0.95781088107E+00  0.68069826240E+01  0.51100000000E-03 0.  1.
         12    1    3    3    0    0  0.72695719242E+00  0.58266438895E+01  0.24311764630E+01  0.63552234240E+01  0.00000000000E+00 0. -1.
</event>
<event>
 7    1  0.4963616E-011  0.5052886E+02  0.7816164E-02  0.1300439E+00
        -11   -1    0    0    0    0  0.00000000000E+00  0.00000000000E+00  0.45593999997E+02  0.45594000000E+02  0.51100000000E-03 0. -1.
         11   -1    0    0    0    0 -0.00000000000E+00 -0.00000000000E+00 -0.45593999997E+02  0.45594000000E+02  0.51100000000E-03 0.  1.
    9900012    2    1    2    0    0  0.32782443645E+02 -0.22096708386E+02  0.94980092415E+01  0.50528864343E+02  0.30000013657E+02 0.  0.
        -12    1    1    2    0    0 -0.32782443645E+02  0.22096708386E+02 -0.94980092415E+01  0.40659135657E+02  0.00000000000E+00 0.  1.
         11    1    3    3    0    0  0.13327652869E+02 -0.18811258214E+02  0.10580303341E+02  0.25365972988E+02  0.51100000000E-03 0. -1.
        -11    1    3    3    0    0 -0.43334962111E+00  0.39192245144E+01 -0.71117220847E+00  0.40067291972E+01  0.51100000000E-03 0.  1.
        -12    1    3    3    0    0  0.19888140397E+02 -0.72046746869E+01 -0.37112189102E+00  0.21156162158E+02  0.00000000000E+00 0.  1.
</event>
<event>
 7    1  0.4963616E-011  0.5052886E+02  0.7816164E-02  0.1300439E+00
        -11   -1    0    0    0    0  0.00000000000E+00  0.00000000000E+00  0.45593999997E+02  0.45594000000E+02  0.51100000000E-03 0.  1.
         11   -1    0    0    0    0 -0.00000000000E+00 -0.00000000000E+00 -0.45593999997E+02  0.45594000000E+02  0.51100000000E-03 0. -1.
    9900012    2    1    2    0    0 -0.27353464538E+02  0.26898528999E+02  0.13469329996E+02  0.50528859145E+02  0.29999997857E+02 0.  0.
        -12    1    1    2    0    0  0.27353464538E+02 -0.26898528999E+02 -0.13469329996E+02  0.40659140855E+02  0.00000000000E+00 0.  1.
         11    1    3    3    0    0 -0.23652399719E+02  0.91666938235E+01  0.94300588490E+01  0.27062710476E+02  0.51100000000E-03 0. -1.
        -11    1    3    3    0    0 -0.44448283180E+01  0.82193850942E+01 -0.47599030373E+01  0.10486728150E+02  0.51100000000E-03 0.  1.
         12    1    3    3    0    0  0.74376349948E+00  0.95124500815E+01  0.87991741841E+01  0.12979420519E+02  0.00000000000E+00 0. -1.
</event>
<event>
 7    1  0.4963616E-011  0.5052885E+02  0.7816164E-02  0.1300439E+00
        -11   -1    0    0    0    0  0.00000000000E+00  0.00000000000E+00  0.45593999997E+02  0.45594000000E+02  0.51100000000E-03 0. -1.
         11   -1    0    0    0    0 -0.00000000000E+00 -0.00000000000E+00 -0.45593999997E+02  0.45594000000E+02  0.51100000000E-03 0.  1.
    9900012    2    1    2    0    0  0.14031250116E+02 -0.63039021233E+01  0.37637095009E+02  0.50528854872E+02  0.29999984869E+02 0.  0.
        -12    1    1    2    0    0 -0.14031250116E+02  0.63039021233E+01 -0.37637095009E+02  0.40659145128E+02  0.00000000000E+00 0.  1.
         11    1    3    3    0    0 -0.70172595910E+01 -0.23699582326E+01  0.29722844211E+01  0.79807962719E+01  0.51100000000E-03 0. -1.
        -11    1    3    3    0    0  0.21687440545E+02 -0.10784745006E+01  0.31209008436E+02  0.38019868391E+02  0.51100000000E-03 0.  1.
         12    1    3    3    0    0 -0.63893083825E+00 -0.28554693901E+01  0.34558021518E+01  0.45281902087E+01  0.00000000000E+00 0. -1.
</event>
<event>
 7    1  0.4963616E-011  0.5052886E+02  0.7816164E-02  0.1300439E+00
        -11   -1    0    0    0    0  0.00000000000E+00  0.00000000000E+00  0.45593999997E+02  0.45594000000E+02  0.51100000000E-03 0.  1.
         11   -1    0    0    0    0 -0.00000000000E+00 -0.00000000000E+00 -0.45593999997E+02  0.45594000000E+02  0.51100000000E-03 0. -1.
    9900012    2    1    2    0    0  0.10082314873E+02 -0.30112850775E+02 -0.25391512665E+02  0.50528858710E+02  0.29999996536E+02 0.  0.
        -12    1    1    2    0    0 -0.10082314873E+02  0.30112850775E+02  0.25391512665E+02  0.40659141290E+02  0.00000000000E+00 0.  1.
         11    1    3    3    0    0  0.11509118562E+02 -0.13158526846E+02 -0.99835976833E+01  0.20131538982E+02  0.51100000000E-03 0. -1.
        -11    1    3    3    0    0 -0.37844198202E+01  0.26009501584E+01 -0.82467363884E+01  0.94390378971E+01  0.51100000000E-03 0.  1.
        -12    1    3    3    0    0  0.23576161308E+01 -0.19555274087E+02 -0.71611785937E+01  0.20958281831E+02  0.00000000000E+00 0.  1.
</event>
<event>
 7    1  0.4963616E-011  0.5052888E+02  0.7816164E-02  0.1300439E+00
        -11   -1    0    0    0    0  0.00000000000E+00  0.00000000000E+00  0.45593999997E+02  0.45594000000E+02  0.51100000000E-03 0.  1.
         11   -1    0    0    0    0 -0.00000000000E+00 -0.00000000000E+00 -0.45593999997E+02  0.45594000000E+02  0.51100000000E-03 0. -1.
    9900012    2    1    2    0    0 -0.29760692368E+02 -0.27668352625E+02  0.13884243763E+01  0.50528877168E+02  0.30000052639E+02 0.  0.
        -12    1    1    2    0    0  0.29760692368E+02  0.27668352625E+02 -0.13884243763E+01  0.40659122832E+02  0.00000000000E+00 0.  1.
         11    1    3    3    0    0 -0.10820131913E+01 -0.24508781076E+01 -0.42640435561E+01  0.50358339680E+01  0.51100000000E-03 0. -1.
        -11    1    3    3    0    0 -0.30532520951E+02 -0.25075139653E+02 -0.34894344103E-01  0.39509475852E+02  0.51100000000E-03 0.  1.
        -12    1    3    3    0    0  0.18538417736E+01 -0.14233486437E+00  0.56873622765E+01  0.59835673473E+01  0.00000000000E+00 0.  1.
</event>
<event>
 7    1  0.4963616E-011  0.5052886E+02  0.7816164E-02  0.1300439E+00
        -11   -1    0    0    0    0  0.00000000000E+00  0.00000000000E+00  0.45593999997E+02  0.45594000000E+02  0.51100000000E-03 0.  1.
         11   -1    0    0    0    0 -0.00000000000E+00 -0.00000000000E+00 -0.45593999997E+02  0.45594000000E+02  0.51100000000E-03 0. -1.
    9900012    2    1    2    0    0  0.30627670236E+02 -0.66364107700E+01 -0.25905011388E+02  0.50528858998E+02  0.29999997412E+02 0.  0.
        -12    1    1    2    0    0 -0.30627670236E+02  0.66364107700E+01  0.25905011388E+02  0.40659141002E+02  0.00000000000E+00 0.  1.
         11    1    3    3    0    0  0.20594863343E+02 -0.56833828322E+01 -0.28533368261E+02  0.35645509410E+02  0.51100000000E-03 0. -1.
        -11    1    3    3    0    0  0.12053152874E+02 -0.20129970581E+01  0.29714563424E+01  0.12576176065E+02  0.51100000000E-03 0.  1.
        -12    1    3    3    0    0 -0.20203459815E+01  0.10599691203E+01 -0.34309946917E+00  0.23071735233E+01  0.00000000000E+00 0.  1.
</event>
<event>
 7    1  0.4963616E-011  0.5052886E+02  0.7816164E-02  0.1300439E+00
        -11   -1    0    0    0    0  0.00000000000E+00  0.00000000000E+00  0.45593999997E+02  0.45594000000E+02  0.51100000000E-03 0.  1.
         11   -1    0    0    0    0 -0.00000000000E+00 -0.00000000000E+00 -0.45593999997E+02  0.45594000000E+02  0.51100000000E-03 0. -1.
    9900012    2    1    2    0    0 -0.10168900375E+02  0.32189306150E+02  0.22662922332E+02  0.50528855716E+02  0.29999987436E+02 0.  0.
        -12    1    1    2    0    0  0.10168900375E+02 -0.32189306150E+02 -0.22662922332E+02  0.40659144284E+02  0.00000000000E+00 0.  1.
         11    1    3    3    0    0 -0.71401264065E+01  0.35103497894E+02  0.17208976765E+02  0.39741487781E+02  0.51100000000E-03 0. -1.
        -11    1    3    3    0    0 -0.23399638171E+01 -0.13553241347E+01  0.75885019860E+01  0.80559106765E+01  0.51100000000E-03 0.  1.
        -12    1    3    3    0    0 -0.68881015153E+00 -0.15588676099E+01 -0.21345564189E+01  0.27314572586E+01  0.00000000000E+00 0.  1.
</event>
<event>
 7    1  0.4963616E-011  0.5052886E+02  0.7816164E-02  0.1300439E+00
        -11   -1    0    0    0    0  0.00000000000E+00  0.00000000000E+00  0.45593999997E+02  0.45594000000E+02  0.51100000000E-03 0. -1.
         11   -1    0    0    0    0 -0.00000000000E+00 -0.00000000000E+00 -0.45593999997E+02  0.45594000000E+02  0.51100000000E-03 0.  1.
    9900012    2    1    2    0    0  0.14438949398E+02 -0.23556485668E+02  0.29829082905E+02  0.50528862482E+02  0.30000007999E+02 0.  0.
        -12    1    1    2    0    0 -0.14438949398E+02  0.23556485668E+02 -0.29829082905E+02  0.40659137518E+02  0.00000000000E+00 0.  1.
         11    1    3    3    0    0  0.45464684084E+01  0.61221798319E+00  0.58749394596E+00  0.46249686751E+01  0.51100000000E-03 0.  1.
        -11    1    3    3    0    0  0.10259276673E+02 -0.25773858499E+02  0.14940136633E+02  0.31507970780E+02  0.51100000000E-03 0. -1.
        -12    1    3    3    0    0 -0.36679568328E+00  0.16051548475E+01  0.14301452326E+02  0.14395923027E+02  0.00000000000E+00 0.  1.
</event>
<event>
 7    1  0.4963616E-011  0.5052886E+02  0.7816164E-02  0.1300439E+00
        -11   -1    0    0    0    0  0.00000000000E+00  0.00000000000E+00  0.45593999997E+02  0.45594000000E+02  0.51100000000E-03 0.  1.
         11   -1    0    0    0    0 -0.00000000000E+00 -0.00000000000E+00 -0.45593999997E+02  0.45594000000E+02  0.51100000000E-03 0. -1.
    9900012    2    1    2    0    0  0.70355354022E+01  0.30636066950E+02 -0.25789503190E+02  0.50528857961E+02  0.29999994257E+02 0.  0.
        -12    1    1    2    0    0 -0.70355354022E+01 -0.30636066950E+02  0.25789503190E+02  0.40659142039E+02  0.00000000000E+00 0.  1.
         11    1    3    3    0    0  0.84868608957E+00  0.33564433459E+02 -0.21191085759E+02  0.39703319476E+02  0.51100000000E-03 0. -1.
        -11    1    3    3    0    0  0.47971577102E+01 -0.28420909250E+00 -0.58638557695E+01  0.75814445623E+01  0.51100000000E-03 0.  1.
         12    1    3    3    0    0  0.13896916024E+01 -0.26441574160E+01  0.12654383380E+01  0.32440939225E+01  0.00000000000E+00 0. -1.
</event>
<event>
 7    1  0.5046553E-011  0.5052886E+02  0.7816164E-02  0.1300439E+00
        -11   -1    0    0    0    0  0.00000000000E+00  0.00000000000E+00  0.45593999997E+02  0.45594000000E+02  0.51100000000E-03 0. -1.
         11   -1    0    0    0    0 -0.00000000000E+00 -0.00000000000E+00 -0.45593999997E+02  0.45594000000E+02  0.51100000000E-03 0.  1.
    9900012    2    1    2    0    0  0.23492820105E+02  0.25819537195E+02  0.20847170019E+02  0.50528860865E+02  0.30000003084E+02 0.  0.
        -12    1    1    2    0    0 -0.23492820105E+02 -0.25819537195E+02 -0.20847170019E+02  0.40659139135E+02  0.00000000000E+00 0.  1.
         11    1    3    3    0    0  0.20232984079E+02  0.21148870018E+02  0.11691941400E+02  0.31517452970E+02  0.51100000000E-03 0. -1.
        -11    1    3    3    0    0  0.44245496135E+01 -0.48858077853E+01  0.16245667096E+01  0.67887387821E+01  0.51100000000E-03 0.  1.
        -12    1    3    3    0    0 -0.11647135873E+01  0.95564749616E+01  0.75306619094E+01  0.12222669112E+02  0.00000000000E+00 0.  1.
</event>
<event>
 7    1  0.4963616E-011  0.5052885E+02  0.7816164E-02  0.1300439E+00
        -11   -1    0    0    0    0  0.00000000000E+00  0.00000000000E+00  0.45593999997E+02  0.45594000000E+02  0.51100000000E-03 0. -1.
         11   -1    0    0    0    0 -0.00000000000E+00 -0.00000000000E+00 -0.45593999997E+02  0.45594000000E+02  0.51100000000E-03 0.  1.
    9900012    2    1    2    0    0  0.78211172366E+01  0.15920370948E+02  0.36586045889E+02  0.50528845560E+02  0.29999956565E+02 0.  0.
        -12    1    1    2    0    0 -0.78211172366E+01 -0.15920370948E+02 -0.36586045889E+02  0.40659154440E+02  0.00000000000E+00 0.  1.
         11    1    3    3    0    0  0.15882158667E+02  0.18011551572E+01  0.14651700335E+02  0.21683160443E+02  0.51100000000E-03 0.  1.
        -11    1    3    3    0    0 -0.36192385961E+01  0.40976889560E+01  0.15201372937E+01  0.56745713890E+01  0.51100000000E-03 0. -1.
         12    1    3    3    0    0 -0.44418028344E+01  0.10021526835E+02  0.20414208260E+02  0.23171113728E+02  0.00000000000E+00 0. -1.
</event>
<event>
 7    1  0.4963616E-011  0.5052886E+02  0.7816164E-02  0.1300439E+00
        -11   -1    0    0    0    0  0.00000000000E+00  0.00000000000E+00  0.45593999997E+02  0.45594000000E+02  0.51100000000E-03 0.  1.
         11   -1    0    0    0    0 -0.00000000000E+00 -0.00000000000E+00 -0.45593999997E+02  0.45594000000E+02  0.51100000000E-03 0. -1.
    9900012    2    1    2    0    0  0.34244624061E+02  0.12849263981E+02 -0.17758599698E+02  0.50528859267E+02  0.29999998228E+02 0.  0.
        -12    1    1    2    0    0 -0.34244624061E+02 -0.12849263981E+02  0.17758599698E+02  0.40659140733E+02  0.00000000000E+00 0.  1.
         11    1    3    3    0    0  0.91290435962E+01 -0.49582188992E+01 -0.35576378905E+00  0.10394707296E+02  0.51100000000E-03 0. -1.
        -11    1    3    3    0    0  0.70846902919E+01  0.15303880025E+02 -0.13289852897E+02  0.21471417527E+02  0.51100000000E-03 0.  1.
        -12    1    3    3    0    0  0.18030890172E+02  0.25036028560E+01 -0.41129830127E+01  0.18662734444E+02  0.00000000000E+00 0.  1.
</event>
<event>
 7    1  0.4963616E-011  0.5052887E+02  0.7816164E-02  0.1300439E+00
        -11   -1    0    0    0    0  0.00000000000E+00  0.00000000000E+00  0.45593999997E+02  0.45594000000E+02  0.51100000000E-03 0. -1.
         11   -1    0    0    0    0 -0.00000000000E+00 -0.00000000000E+00 -0.45593999997E+02  0.45594000000E+02  0.51100000000E-03 0.  1.
    9900012    2    1    2    0    0 -0.72428536662E+01  0.35511710818E+02  0.18428900923E+02  0.50528869123E+02  0.30000028186E+02 0.  0.
        -12    1    1    2    0    0  0.72428536662E+01 -0.35511710818E+02 -0.18428900923E+02  0.40659130877E+02  0.00000000000E+00 0.  1.
         11    1    3    3    0    0 -0.11523859899E+02  0.14124036194E+02 -0.23401221452E+01  0.18378354586E+02  0.51100000000E-03 0. -1.
        -11    1    3    3    0    0  0.80023234795E+01  0.15016964012E+02  0.12817816389E+02  0.21303586704E+02  0.51100000000E-03 0.  1.
         12    1    3    3    0    0 -0.37213172472E+01  0.63707106119E+01  0.79512066795E+01  0.10846927833E+02  0.00000000000E+00 0. -1.
</event>
<event>
 7    1  0.4963616E-011  0.5052885E+02  0.7816164E-02  0.1300439E+00
        -11   -1    0    0    0    0  0.00000000000E+00  0.00000000000E+00  0.45593999997E+02  0.45594000000E+02  0.51100000000E-03 0.  1.
         11   -1    0    0    0    0 -0.00000000000E+00 -0.00000000000E+00 -0.45593999997E+02  0.45594000000E+02  0.51100000000E-03 0. -1.
    9900012    2    1    2    0    0 -0.26163509924E+01 -0.98987393047E+01 -0.39348899563E+02  0.50528853069E+02  0.29999979389E+02 0.  0.
        -12    1    1    2    0    0  0.26163509924E+01  0.98987393047E+01  0.39348899563E+02  0.40659146931E+02  0.00000000000E+00 0.  1.
         11    1    3    3    0    0  0.65585802756E+01 -0.37435836461E+01 -0.14713518723E+02  0.16538350196E+02  0.51100000000E-03 0. -1.
        -11    1    3    3    0    0 -0.88556941484E+01  0.52234360848E+01 -0.53344654688E+01  0.11582923874E+02  0.51100000000E-03 0.  1.
        -12    1    3    3    0    0 -0.31923711957E+00 -0.11378591743E+02 -0.19300915371E+02  0.22407578998E+02  0.00000000000E+00 0.  1.
</event>
<event>
 7    1  0.4963616E-011  0.5052885E+02  0.7816164E-02  0.1300439E+00
        -11   -1    0    0    0    0  0.00000000000E+00  0.00000000000E+00  0.45593999997E+02  0.45594000000E+02  0.51100000000E-03 0.  1.
         11   -1    0    0    0    0 -0.00000000000E+00 -0.00000000000E+00 -0.45593999997E+02  0.45594000000E+02  0.51100000000E-03 0. -1.
    9900012    2    1    2    0    0 -0.35578756620E+02 -0.71997224070E+01 -0.18316177300E+02  0.50528852490E+02  0.29999977628E+02 0.  0.
        -12    1    1    2    0    0  0.35578756620E+02  0.71997224070E+01  0.18316177300E+02  0.40659147510E+02  0.00000000000E+00 0.  1.
         11    1    3    3    0    0 -0.23913872327E+02 -0.16946011223E+01 -0.52298593099E+01  0.24537652522E+02  0.51100000000E-03 0. -1.
        -11    1    3    3    0    0 -0.19479549224E+01 -0.37840314818E+01 -0.15297349502E+02  0.15878360265E+02  0.51100000000E-03 0.  1.
        -12    1    3    3    0    0 -0.97169293712E+01 -0.17210898030E+01  0.22110315122E+01  0.10112839703E+02  0.00000000000E+00 0.  1.
</event>
<event>
 7    1  0.4963616E-011  0.5052886E+02  0.7816164E-02  0.1300439E+00
        -11   -1    0    0    0    0  0.00000000000E+00  0.00000000000E+00  0.45593999997E+02  0.45594000000E+02  0.51100000000E-03 0. -1.
         11   -1    0    0    0    0 -0.00000000000E+00 -0.00000000000E+00 -0.45593999997E+02  0.45594000000E+02  0.51100000000E-03 0.  1.
    9900012    2    1    2    0    0  0.30035761967E+02  0.43695142390E+01  0.27054124591E+02  0.50528864384E+02  0.30000013782E+02 0.  0.
        -12    1    1    2    0    0 -0.30035761967E+02 -0.43695142390E+01 -0.27054124591E+02  0.40659135616E+02  0.00000000000E+00 0.  1.
         11    1    3    3    0    0  0.82527433547E+01  0.99012001248E+01  0.21144519178E+02  0.24763526169E+02  0.51100000000E-03 0. -1.
        -11    1    3    3    0    0  0.11181420206E+02 -0.61072743955E+00 -0.23645698296E+01  0.11445013611E+02  0.51100000000E-03 0.  1.
         12    1    3    3    0    0  0.10601598407E+02 -0.49209584463E+01  0.82741752430E+01  0.14320324604E+02  0.00000000000E+00 0. -1.
</event>
<event>
 7    1  0.4963616E-011  0.5052886E+02  0.7816164E-02  0.1300439E+00
        -11   -1    0    0    0    0  0.00000000000E+00  0.00000000000E+00  0.45593999997E+02  0.45594000000E+02  0.51100000000E-03 0.  1.
         11   -1    0    0    0    0 -0.00000000000E+00 -0.00000000000E+00 -0.45593999997E+02  0.45594000000E+02  0.51100000000E-03 0. -1.
    9900012    2    1    2    0    0 -0.17023771851E+02 -0.16109450389E+02 -0.33224126802E+02  0.50528858327E+02  0.29999995371E+02 0.  0.
        -12    1    1    2    0    0  0.17023771851E+02  0.16109450389E+02  0.33224126802E+02  0.40659141673E+02  0.00000000000E+00 0.  1.
         11    1    3    3    0    0 -0.19230966302E+02 -0.12566245283E+02 -0.29675772058E+02  0.37528549571E+02  0.51100000000E-03 0. -1.
        -11    1    3    3    0    0  0.50317965573E+00 -0.21732119924E+01  0.43048140030E+01  0.48484496482E+01  0.51100000000E-03 0.  1.
        -12    1    3    3    0    0  0.17040147950E+01 -0.13699931137E+01 -0.78531687468E+01  0.81518591081E+01  0.00000000000E+00 0.  1.
</event>
<event>
 7    1  0.4963616E-011  0.5052886E+02  0.7816164E-02  0.1300439E+00
        -11   -1    0    0    0    0  0.00000000000E+00  0.00000000000E+00  0.45593999997E+02  0.45594000000E+02  0.51100000000E-03 0. -1.
         11   -1    0    0    0    0 -0.00000000000E+00 -0.00000000000E+00 -0.45593999997E+02  0.45594000000E+02  0.51100000000E-03 0.  1.
    9900012    2    1    2    0    0 -0.33461014067E+02 -0.22786664679E+02  0.37807867848E+01  0.50528857138E+02  0.29999991757E+02 0.  0.
        -12    1    1    2    0    0  0.33461014067E+02  0.22786664679E+02 -0.37807867848E+01  0.40659142862E+02  0.00000000000E+00 0.  1.
         11    1    3    3    0    0 -0.16109668280E+02 -0.25133448381E+02  0.10341440832E+01  0.29871074535E+02  0.51100000000E-03 0. -1.
        -11    1    3    3    0    0 -0.66921289633E+01  0.57885849759E+01 -0.86086312893E+00  0.88900726472E+01  0.51100000000E-03 0.  1.
         12    1    3    3    0    0 -0.10659216823E+02 -0.34418012737E+01  0.36075058306E+01  0.11767709956E+02  0.00000000000E+00 0. -1.
</event>
<event>
 7    1  0.4963616E-011  0.5052884E+02  0.7816164E-02  0.1300439E+00
        -11   -1    0    0    0    0  0.00000000000E+00  0.00000000000E+00  0.45593999997E+02  0.45594000000E+02  0.51100000000E-03 0.  1.
         11   -1    0    0    0    0 -0.00000000000E+00 -0.00000000000E+00 -0.45593999997E+02  0.45594000000E+02  0.51100000000E-03 0. -1.
    9900012    2    1    2    0    0 -0.92806308829E+01  0.31809705654E+02 -0.23562253357E+02  0.50528840311E+02  0.29999940610E+02 0.  0.
        -12    1    1    2    0    0  0.92806308829E+01 -0.31809705654E+02  0.23562253357E+02  0.40659159689E+02  0.00000000000E+00 0.  1.
         11    1    3    3    0    0  0.45453950141E+00  0.30337077148E+01 -0.29633266255E+01  0.42651252745E+01  0.51100000000E-03 0. -1.
        -11    1    3    3    0    0  0.76731588506E+01  0.12040639781E+02 -0.16415691711E+02  0.21756132646E+02  0.51100000000E-03 0.  1.
        -12    1    3    3    0    0 -0.17408329235E+02  0.16735358157E+02 -0.41832350198E+01  0.24507582391E+02  0.00000000000E+00 0.  1.
</event>
<event>
 7    1  0.4963616E-011  0.5052886E+02  0.7816164E-02  0.1300439E+00
        -11   -1    0    0    0    0  0.00000000000E+00  0.00000000000E+00  0.45593999997E+02  0.45594000000E+02  0.51100000000E-03 0.  1.
         11   -1    0    0    0    0 -0.00000000000E+00 -0.00000000000E+00 -0.45593999997E+02  0.45594000000E+02  0.51100000000E-03 0. -1.
    9900012    2    1    2    0    0 -0.13450584032E+02  0.23297938466E+02 -0.30486939714E+02  0.50528860305E+02  0.30000001384E+02 0.  0.
        -12    1    1    2    0    0  0.13450584032E+02 -0.23297938466E+02  0.30486939714E+02  0.40659139695E+02  0.00000000000E+00 0.  1.
         11    1    3    3    0    0 -0.57417444099E+01  0.11362118263E+02 -0.13457349812E+02  0.18524730080E+02  0.51100000000E-03 0. -1.
        -11    1    3    3    0    0 -0.68712781064E+01 -0.54021027021E+01 -0.99871235303E+01  0.13271767519E+02  0.51100000000E-03 0.  1.
        -12    1    3    3    0    0 -0.83756151590E+00  0.17337922905E+02 -0.70424663715E+01  0.18732362706E+02  0.00000000000E+00 0.  1.
</event>
<event>
 7    1  0.4963616E-011  0.5052885E+02  0.7816164E-02  0.1300439E+00
        -11   -1    0    0    0    0  0.00000000000E+00  0.00000000000E+00  0.45593999997E+02  0.45594000000E+02  0.51100000000E-03 0. -1.
         11   -1    0    0    0    0 -0.00000000000E+00 -0.00000000000E+00 -0.45593999997E+02  0.45594000000E+02  0.51100000000E-03 0.  1.
    9900012    2    1    2    0    0  0.39915218939E+01 -0.39181441206E+02 -0.10101909962E+02  0.50528853835E+02  0.29999981717E+02 0.  0.
        -12    1    1    2    0    0 -0.39915218939E+01  0.39181441206E+02  0.10101909962E+02  0.40659146165E+02  0.00000000000E+00 0.  1.
         11    1    3    3    0    0  0.65390513014E+01 -0.15887680883E+02  0.75119124759E+01  0.18751171298E+02  0.51100000000E-03 0. -1.
        -11    1    3    3    0    0 -0.69278302191E+01 -0.87619349591E+01 -0.88551073290E+01  0.14254096318E+02  0.51100000000E-03 0.  1.
         12    1    3    3    0    0  0.43803008116E+01 -0.14531825364E+02 -0.87587151088E+01  0.17523586219E+02  0.00000000000E+00 0. -1.
</event>
<event>
 7    1  0.4963616E-011  0.5052886E+02  0.7816164E-02  0.1300439E+00
        -11   -1    0    0    0    0  0.00000000000E+00  0.00000000000E+00  0.45593999997E+02  0.45594000000E+02  0.51100000000E-03 0.  1.
         11   -1    0    0    0    0 -0.00000000000E+00 -0.00000000000E+00 -0.45593999997E+02  0.45594000000E+02  0.51100000000E-03 0. -1.
    9900012    2    1    2    0    0 -0.90122630515E+01 -0.28923707506E+02 -0.27117597125E+02  0.50528858162E+02  0.29999994869E+02 0.  0.
        -12    1    1    2    0    0  0.90122630515E+01  0.28923707506E+02  0.27117597125E+02  0.40659141838E+02  0.00000000000E+00 0.  1.
         11    1    3    3    0    0  0.64881931653E+01 -0.12505028528E+02 -0.22491821980E+02  0.26539676812E+02  0.51100000000E-03 0. -1.
        -11    1    3    3    0    0 -0.13344062795E+02 -0.10055267744E+02 -0.22331753836E+01  0.16857030991E+02  0.51100000000E-03 0.  1.
        -12    1    3    3    0    0 -0.21563934221E+01 -0.63634112343E+01 -0.23925997609E+01  0.71321503590E+01  0.00000000000E+00 0.  1.
</event>
<event>
 7    1  0.4963616E-011  0.5052885E+02  0.7816164E-02  0.1300439E+00
        -11   -1    0    0    0    0  0.00000000000E+00  0.00000000000E+00  0.45593999997E+02  0.45594000000E+02  0.51100000000E-03 0.  1.
         11   -1    0    0    0    0 -0.00000000000E+00 -0.00000000000E+00 -0.45593999997E+02  0.45594000000E+02  0.51100000000E-03 0. -1.
    9900012    2    1    2    0    0  0.33717993813E+00 -0.49193301391E+01 -0.40359053694E+02  0.50528847102E+02  0.29999961250E+02 0.  0.
        -12    1    1    2    0    0 -0.33717993813E+00  0.49193301391E+01  0.40359053694E+02  0.40659152898E+02  0.00000000000E+00 0.  1.
         11    1    3    3    0    0 -0.21308576360E+01  0.50493284368E+01 -0.16785839830E+02  0.17657879006E+02  0.51100000000E-03 0. -1.
        -11    1    3    3    0    0  0.92909843930E+01 -0.12515002841E+02 -0.15156011619E+02  0.21740569808E+02  0.51100000000E-03 0.  1.
        -12    1    3    3    0    0 -0.68229468189E+01  0.25463442652E+01 -0.84172022448E+01  0.11130398288E+02  0.00000000000E+00 0.  1.
</event>
<event>
 7    1  0.4963616E-011  0.5052886E+02  0.7816164E-02  0.1300439E+00
        -11   -1    0    0    0    0  0.00000000000E+00  0.00000000000E+00  0.45593999997E+02  0.45594000000E+02  0.51100000000E-03 0.  1.
         11   -1    0    0    0    0 -0.00000000000E+00 -0.00000000000E+00 -0.45593999997E+02  0.45594000000E+02  0.51100000000E-03 0. -1.
    9900012    2    1    2    0    0  0.39536710397E+02 -0.83084143661E+01 -0.45808711861E+01  0.50528860817E+02  0.30000002939E+02 0.  0.
        -12    1    1    2    0    0 -0.39536710397E+02  0.83084143661E+01  0.45808711861E+01  0.40659139183E+02  0.00000000000E+00 0.  1.
         11    1    3    3    0    0  0.50167267061E+01 -0.61797444450E+01  0.28832885910E+01  0.84658219688E+01  0.51100000000E-03 0. -1.
        -11    1    3    3    0    0  0.37374368972E+02  0.67649774242E+00 -0.64295786779E+01  0.37929415860E+02  0.51100000000E-03 0.  1.
        -12    1    3    3    0    0 -0.28543852812E+01 -0.28051676636E+01 -0.10345810992E+01  0.41336229878E+01  0.00000000000E+00 0.  1.
</event>
<event>
 7    1  0.4963616E-011  0.5052888E+02  0.7816164E-02  0.1300439E+00
        -11   -1    0    0    0    0  0.00000000000E+00  0.00000000000E+00  0.45593999997E+02  0.45594000000E+02  0.51100000000E-03 0.  1.
         11   -1    0    0    0    0 -0.00000000000E+00 -0.00000000000E+00 -0.45593999997E+02  0.45594000000E+02  0.51100000000E-03 0. -1.
    9900012    2    1    2    0    0 -0.30971250157E+02 -0.13352327915E+01  0.26308995498E+02  0.50528875230E+02  0.30000046749E+02 0.  0.
        -12    1    1    2    0    0  0.30971250157E+02  0.13352327915E+01 -0.26308995498E+02  0.40659124770E+02  0.00000000000E+00 0.  1.
         11    1    3    3    0    0 -0.31264382517E+01 -0.68112687955E+01  0.18938521584E+02  0.20367513319E+02  0.51100000000E-03 0.  1.
        -11    1    3    3    0    0 -0.26072241705E+02  0.47804531883E+01  0.86322838400E+01  0.27877066645E+02  0.51100000000E-03 0. -1.
         12    1    3    3    0    0 -0.17725702010E+01  0.69558281572E+00 -0.12618099260E+01  0.22842952655E+01  0.00000000000E+00 0. -1.
</event>
<event>
 7    1  0.4963616E-011  0.5052886E+02  0.7816164E-02  0.1300439E+00
        -11   -1    0    0    0    0  0.00000000000E+00  0.00000000000E+00  0.45593999997E+02  0.45594000000E+02  0.51100000000E-03 0. -1.
         11   -1    0    0    0    0 -0.00000000000E+00 -0.00000000000E+00 -0.45593999997E+02  0.45594000000E+02  0.51100000000E-03 0.  1.
    9900012    2    1    2    0    0 -0.22736741885E+02  0.32498110148E+02 -0.89486695037E+01  0.50528864733E+02  0.30000014844E+02 0.  0.
        -12    1    1    2    0    0  0.22736741885E+02 -0.32498110148E+02  0.89486695037E+01  0.40659135267E+02  0.00000000000E+00 0.  1.
         11    1    3    3    0    0 -0.15273471323E+02  0.94382219853E+01  0.18303277301E+01  0.18047411459E+02  0.51100000000E-03 0. -1.
        -11    1    3    3    0    0 -0.61524867726E+01  0.91919532769E+01 -0.14333752056E+02  0.18105290574E+02  0.51100000000E-03 0.  1.
        -12    1    3    3    0    0 -0.13107837894E+01  0.13867934886E+02  0.35547548218E+01  0.14376162700E+02  0.00000000000E+00 0.  1.
</event>
<event>
 7    1  0.4963616E-011  0.5052886E+02  0.7816164E-02  0.1300439E+00
        -11   -1    0    0    0    0  0.00000000000E+00  0.00000000000E+00  0.45593999997E+02  0.45594000000E+02  0.51100000000E-03 0.  1.
         11   -1    0    0    0    0 -0.00000000000E+00 -0.00000000000E+00 -0.45593999997E+02  0.45594000000E+02  0.51100000000E-03 0. -1.
    9900012    2    1    2    0    0  0.34619850644E+02  0.89891317193E+01 -0.19334611806E+02  0.50528858822E+02  0.29999996874E+02 0.  0.
        -12    1    1    2    0    0 -0.34619850644E+02 -0.89891317193E+01  0.19334611806E+02  0.40659141178E+02  0.00000000000E+00 0.  1.
         11    1    3    3    0    0  0.17207080110E+02  0.55938279102E+01 -0.16301518779E+02  0.24353932564E+02  0.51100000000E-03 0. -1.
        -11    1    3    3    0    0  0.11852420534E+02 -0.57257621101E+01  0.35420782604E+01  0.13631234094E+02  0.51100000000E-03 0.  1.
        -12    1    3    3    0    0  0.55603499995E+01  0.91210659192E+01 -0.65751712880E+01  0.12543692163E+02  0.00000000000E+00 0.  1.
</event>
<event>
 7    1  0.4963616E-011  0.5052886E+02  0.7816164E-02  0.1300439E+00
        -11   -1    0    0    0    0  0.00000000000E+00  0.00000000000E+00  0.45593999997E+02  0.45594000000E+02  0.51100000000E-03 0.  1.
         11   -1    0    0    0    0 -0.00000000000E+00 -0.00000000000E+00 -0.45593999997E+02  0.45594000000E+02  0.51100000000E-03 0. -1.
    9900012    2    1    2    0    0  0.39324429202E+02  0.79333778842E+01 -0.66193907251E+01  0.50528861417E+02  0.30000004763E+02 0.  0.
        -12    1    1    2    0    0 -0.39324429202E+02 -0.79333778842E+01  0.66193907251E+01  0.40659138583E+02  0.00000000000E+00 0.  1.
         11    1    3    3    0    0  0.60211589071E+01  0.11453374094E+01 -0.86076416120E+01  0.10566818194E+02  0.51100000000E-03 0. -1.
        -11    1    3    3    0    0  0.34926680542E+02  0.49368896439E+01  0.54722752188E+01  0.35695821736E+02  0.51100000000E-03 0.  1.
        -12    1    3    3    0    0 -0.16234102471E+01  0.18511508309E+01 -0.34840243319E+01  0.42662214868E+01  0.00000000000E+00 0.  1.
</event>
<event>
 7    1  0.4963616E-011  0.5052886E+02  0.7816164E-02  0.1300439E+00
        -11   -1    0    0    0    0  0.00000000000E+00  0.00000000000E+00  0.45593999997E+02  0.45594000000E+02  0.51100000000E-03 0.  1.
         11   -1    0    0    0    0 -0.00000000000E+00 -0.00000000000E+00 -0.45593999997E+02  0.45594000000E+02  0.51100000000E-03 0. -1.
    9900012    2    1    2    0    0 -0.38337704898E+02  0.90550024802E+00 -0.13511710242E+02  0.50528857594E+02  0.29999993142E+02 0.  0.
        -12    1    1    2    0    0  0.38337704898E+02 -0.90550024802E+00  0.13511710242E+02  0.40659142406E+02  0.00000000000E+00 0.  1.
         11    1    3    3    0    0 -0.39320949408E+02 -0.71263623629E+01 -0.12840938421E+02  0.41973941948E+02  0.51100000000E-03 0. -1.
        -11    1    3    3    0    0  0.11671779109E+01  0.33944611943E+01 -0.14077819221E+01  0.38557128105E+01  0.51100000000E-03 0.  1.
         12    1    3    3    0    0 -0.18393340086E+00  0.46374014166E+01  0.73701010151E+00  0.46992028350E+01  0.00000000000E+00 0. -1.
</event>
<event>
 7    1  0.4963616E-011  0.5052885E+02  0.7816164E-02  0.1300439E+00
        -11   -1    0    0    0    0  0.00000000000E+00  0.00000000000E+00  0.45593999997E+02  0.45594000000E+02  0.51100000000E-03 0. -1.
         11   -1    0    0    0    0 -0.00000000000E+00 -0.00000000000E+00 -0.45593999997E+02  0.45594000000E+02  0.51100000000E-03 0.  1.
    9900012    2    1    2    0    0 -0.22020634583E+02 -0.83187585672E+01  0.33152023023E+02  0.50528847008E+02  0.29999960965E+02 0.  0.
        -12    1    1    2    0    0  0.22020634583E+02  0.83187585672E+01 -0.33152023023E+02  0.40659152992E+02  0.00000000000E+00 0.  1.
         11    1    3    3    0    0 -0.10209383226E+01 -0.11984662168E+02  0.10517063814E+02  0.15977580351E+02  0.51100000000E-03 0. -1.
        -11    1    3    3    0    0 -0.13728479014E+02  0.95354252991E+01  0.15478235754E+02  0.22780940586E+02  0.51100000000E-03 0.  1.
         12    1    3    3    0    0 -0.72712172466E+01 -0.58695216982E+01  0.71567234548E+01  0.11770326071E+02  0.00000000000E+00 0. -1.
</event>
<event>
 7    1  0.4963616E-011  0.5052886E+02  0.7816164E-02  0.1300439E+00
        -11   -1    0    0    0    0  0.00000000000E+00  0.00000000000E+00  0.45593999997E+02  0.45594000000E+02  0.51100000000E-03 0.  1.
         11   -1    0    0    0    0 -0.00000000000E+00 -0.00000000000E+00 -0.45593999997E+02  0.45594000000E+02  0.51100000000E-03 0. -1.
    9900012    2    1    2    0    0 -0.37285182120E+02 -0.15139544991E+02  0.58116195962E+01  0.50528861413E+02  0.30000004752E+02 0.  0.
        -12    1    1    2    0    0  0.37285182120E+02  0.15139544991E+02 -0.58116195962E+01  0.40659138587E+02  0.00000000000E+00 0.  1.
         11    1    3    3    0    0 -0.49195769851E+00 -0.10457674469E+02 -0.14363294431E+01  0.10567309033E+02  0.51100000000E-03 0. -1.
        -11    1    3    3    0    0 -0.22560876817E+02  0.75807687068E+00  0.96263723431E+01  0.24540474487E+02  0.51100000000E-03 0.  1.
         12    1    3    3    0    0 -0.14232347605E+02 -0.54399473923E+01 -0.23784233037E+01  0.15421077893E+02  0.00000000000E+00 0. -1.
</event>
<event>
 7    1  0.4963616E-011  0.5052886E+02  0.7816164E-02  0.1300439E+00
        -11   -1    0    0    0    0  0.00000000000E+00  0.00000000000E+00  0.45593999997E+02  0.45594000000E+02  0.51100000000E-03 0. -1.
         11   -1    0    0    0    0 -0.00000000000E+00 -0.00000000000E+00 -0.45593999997E+02  0.45594000000E+02  0.51100000000E-03 0.  1.
    9900012    2    1    2    0    0 -0.24478528261E+02  0.32093347695E+02  0.48974216166E+01  0.50528855265E+02  0.29999986062E+02 0.  0.
        -12    1    1    2    0    0  0.24478528261E+02 -0.32093347695E+02 -0.48974216166E+01  0.40659144735E+02  0.00000000000E+00 0.  1.
         11    1    3    3    0    0 -0.13351415798E+02  0.30232719666E+02 -0.57530410654E+01  0.33546611215E+02  0.51100000000E-03 0. -1.
        -11    1    3    3    0    0 -0.43740954517E+01  0.11185920167E+01  0.88797332560E+01  0.99616074044E+01  0.51100000000E-03 0.  1.
         12    1    3    3    0    0 -0.67530170120E+01  0.74203601209E+00  0.17707294259E+01  0.70206366454E+01  0.00000000000E+00 0. -1.
</event>
<event>
 7    1  0.4963616E-011  0.5052886E+02  0.7816164E-02  0.1300439E+00
        -11   -1    0    0    0    0  0.00000000000E+00  0.00000000000E+00  0.45593999997E+02  0.45594000000E+02  0.51100000000E-03 0.  1.
         11   -1    0    0    0    0 -0.00000000000E+00 -0.00000000000E+00 -0.45593999997E+02  0.45594000000E+02  0.51100000000E-03 0. -1.
    9900012    2    1    2    0    0  0.10394012683E+02 -0.39232825035E+02  0.24322459483E+01  0.50528857360E+02  0.29999992431E+02 0.  0.
        -12    1    1    2    0    0 -0.10394012683E+02  0.39232825035E+02 -0.24322459483E+01  0.40659142640E+02  0.00000000000E+00 0.  1.
         11    1    3    3    0    0 -0.43036624552E-01 -0.31687336438E+02  0.28533736978E+00  0.31688650339E+02  0.51100000000E-03 0. -1.
        -11    1    3    3    0    0  0.12408897356E+02 -0.81261552970E+01  0.47025256192E+01  0.15560491026E+02  0.51100000000E-03 0.  1.
         12    1    3    3    0    0 -0.19718480491E+01  0.58066669950E+00 -0.25556170406E+01  0.32797159943E+01  0.00000000000E+00 0. -1.
</event>
<event>
 7    1  0.4963616E-011  0.5052891E+02  0.7816164E-02  0.1300439E+00
        -11   -1    0    0    0    0  0.00000000000E+00  0.00000000000E+00  0.45593999997E+02  0.45594000000E+02  0.51100000000E-03 0.  1.
         11   -1    0    0    0    0 -0.00000000000E+00 -0.00000000000E+00 -0.45593999997E+02  0.45594000000E+02  0.51100000000E-03 0. -1.
    9900012    2    1    2    0    0 -0.31120507252E+02 -0.22911521895E+02 -0.12638751691E+02  0.50528906903E+02  0.30000143022E+02 0.  0.
        -12    1    1    2    0    0  0.31120507252E+02  0.22911521895E+02  0.12638751691E+02  0.40659093097E+02  0.00000000000E+00 0.  1.
         11    1    3    3    0    0 -0.26266382376E+02 -0.13193266694E+02 -0.20412119554E+02  0.35786027359E+02  0.51100000000E-03 0. -1.
        -11    1    3    3    0    0 -0.50754035992E+01 -0.56093990888E+01  0.74468826639E+01  0.10615137376E+02  0.51100000000E-03 0.  1.
         12    1    3    3    0    0  0.22127872340E+00 -0.41088561119E+01  0.32648519957E+00  0.41277421683E+01  0.00000000000E+00 0. -1.
</event>
<event>
 7    1  0.4963616E-011  0.5052886E+02  0.7816164E-02  0.1300439E+00
        -11   -1    0    0    0    0  0.00000000000E+00  0.00000000000E+00  0.45593999997E+02  0.45594000000E+02  0.51100000000E-03 0. -1.
         11   -1    0    0    0    0 -0.00000000000E+00 -0.00000000000E+00 -0.45593999997E+02  0.45594000000E+02  0.51100000000E-03 0.  1.
    9900012    2    1    2    0    0  0.97398172985E+01  0.36883937051E+02  0.14066863095E+02  0.50528862150E+02  0.30000006990E+02 0.  0.
        -12    1    1    2    0    0 -0.97398172985E+01 -0.36883937051E+02 -0.14066863095E+02  0.40659137850E+02  0.00000000000E+00 0.  1.
         11    1    3    3    0    0  0.14202615160E+02  0.34924302785E+02  0.18984505951E+02  0.42211759841E+02  0.51100000000E-03 0. -1.
        -11    1    3    3    0    0 -0.36380535907E+01  0.22216895842E+01 -0.10997479255E+01  0.44023612185E+01  0.51100000000E-03 0.  1.
         12    1    3    3    0    0 -0.82474427081E+00 -0.26205531750E+00 -0.38178949310E+01  0.39147410905E+01  0.00000000000E+00 0. -1.
</event>
<event>
 7    1  0.4963616E-011  0.5052887E+02  0.7816164E-02  0.1300439E+00
        -11   -1    0    0    0    0  0.00000000000E+00  0.00000000000E+00  0.45593999997E+02  0.45594000000E+02  0.51100000000E-03 0.  1.
         11   -1    0    0    0    0 -0.00000000000E+00 -0.00000000000E+00 -0.45593999997E+02  0.45594000000E+02  0.51100000000E-03 0. -1.
    9900012    2    1    2    0    0 -0.27511495095E+02  0.97461612426E+01 -0.28307155851E+02  0.50528867032E+02  0.30000021830E+02 0.  0.
        -12    1    1    2    0    0  0.27511495095E+02 -0.97461612426E+01  0.28307155851E+02  0.40659132968E+02  0.00000000000E+00 0.  1.
         11    1    3    3    0    0 -0.12714533517E+02  0.77073522252E+00 -0.21624261916E+02  0.25097053592E+02  0.51100000000E-03 0. -1.
        -11    1    3    3    0    0 -0.10186293203E+02  0.59056250552E+01  0.47745657442E+01  0.12705646572E+02  0.51100000000E-03 0.  1.
        -12    1    3    3    0    0 -0.46106683757E+01  0.30698009649E+01 -0.11457459680E+02  0.12726166868E+02  0.00000000000E+00 0.  1.
</event>
<event>
 7    1  0.4963616E-011  0.5052885E+02  0.7816164E-02  0.1300439E+00
        -11   -1    0    0    0    0  0.00000000000E+00  0.00000000000E+00  0.45593999997E+02  0.45594000000E+02  0.51100000000E-03 0. -1.
         11   -1    0    0    0    0 -0.00000000000E+00 -0.00000000000E+00 -0.45593999997E+02  0.45594000000E+02  0.51100000000E-03 0.  1.
    9900012    2    1    2    0    0 -0.40544452882E+02  0.25324697436E+01 -0.17030060436E+01  0.50528852295E+02  0.29999977037E+02 0.  0.
        -12    1    1    2    0    0  0.40544452882E+02 -0.25324697436E+01  0.17030060436E+01  0.40659147705E+02  0.00000000000E+00 0.  1.
         11    1    3    3    0    0 -0.33173422949E+02 -0.73647947667E+01 -0.88962287544E+01  0.35126330273E+02  0.51100000000E-03 0. -1.
        -11    1    3    3    0    0 -0.12804452961E+01  0.52431266401E+01  0.87236948486E+00  0.54672612797E+01  0.51100000000E-03 0.  1.
        -12    1    3    3    0    0 -0.60905846367E+01  0.46541378702E+01  0.63208532260E+01  0.99352607432E+01  0.00000000000E+00 0.  1.
</event>
<event>
 7    1  0.4963616E-011  0.5052887E+02  0.7816164E-02  0.1300439E+00
        -11   -1    0    0    0    0  0.00000000000E+00  0.00000000000E+00  0.45593999997E+02  0.45594000000E+02  0.51100000000E-03 0. -1.
         11   -1    0    0    0    0 -0.00000000000E+00 -0.00000000000E+00 -0.45593999997E+02  0.45594000000E+02  0.51100000000E-03 0.  1.
    9900012    2    1    2    0    0  0.73661619154E+00  0.13246919951E+02  0.38433592612E+02  0.50528873931E+02  0.30000042800E+02 0.  0.
        -12    1    1    2    0    0 -0.73661619154E+00 -0.13246919951E+02 -0.38433592612E+02  0.40659126069E+02  0.00000000000E+00 0.  1.
         11    1    3    3    0    0 -0.22269686967E+01  0.29063236902E+01  0.31025749657E+02  0.31241050702E+02  0.51100000000E-03 0. -1.
        -11    1    3    3    0    0  0.59849806065E+01  0.12102222350E+02  0.80685877516E+01  0.15728505562E+02  0.51100000000E-03 0.  1.
        -12    1    3    3    0    0 -0.30213957183E+01 -0.17616260886E+01 -0.66074479592E+00  0.35593176660E+01  0.00000000000E+00 0.  1.
</event>
<event>
 7    1  0.4963616E-011  0.5052886E+02  0.7816164E-02  0.1300439E+00
        -11   -1    0    0    0    0  0.00000000000E+00  0.00000000000E+00  0.45593999997E+02  0.45594000000E+02  0.51100000000E-03 0.  1.
         11   -1    0    0    0    0 -0.00000000000E+00 -0.00000000000E+00 -0.45593999997E+02  0.45594000000E+02  0.51100000000E-03 0. -1.
    9900012    2    1    2    0    0 -0.47317548091E+01  0.26380618882E+02 -0.30575143350E+02  0.50528856538E+02  0.29999989933E+02 0.  0.
        -12    1    1    2    0    0  0.47317548091E+01 -0.26380618882E+02  0.30575143350E+02  0.40659143462E+02  0.00000000000E+00 0.  1.
         11    1    3    3    0    0 -0.52610130618E+01 -0.18773936247E+01 -0.12041857062E+01  0.57142741214E+01  0.51100000000E-03 0. -1.
        -11    1    3    3    0    0 -0.13807482764E+01  0.13022410407E+02 -0.25974000546E+02  0.29088457216E+02  0.51100000000E-03 0.  1.
        -12    1    3    3    0    0  0.19100065291E+01  0.15235602100E+02 -0.33969570984E+01  0.15726125201E+02  0.00000000000E+00 0.  1.
</event>
<event>
 7    1  0.4963616E-011  0.5052880E+02  0.7816164E-02  0.1300439E+00
        -11   -1    0    0    0    0  0.00000000000E+00  0.00000000000E+00  0.45593999997E+02  0.45594000000E+02  0.51100000000E-03 0. -1.
         11   -1    0    0    0    0 -0.00000000000E+00 -0.00000000000E+00 -0.45593999997E+02  0.45594000000E+02  0.51100000000E-03 0.  1.
    9900012    2    1    2    0    0 -0.27746920732E+02 -0.29341829746E+02  0.47260679085E+01  0.50528802999E+02  0.29999827194E+02 0.  0.
        -12    1    1    2    0    0  0.27746920732E+02  0.29341829746E+02 -0.47260679085E+01  0.40659197001E+02  0.00000000000E+00 0.  1.
         11    1    3    3    0    0 -0.13161564493E+02 -0.22886098589E+02  0.90953617480E+01  0.27923572373E+02  0.51100000000E-03 0. -1.
        -11    1    3    3    0    0 -0.13162698890E+02  0.16086007826E+01  0.13094218468E+00  0.13261273870E+02  0.51100000000E-03 0.  1.
        -12    1    3    3    0    0 -0.14226573492E+01 -0.80643319398E+01 -0.45002360242E+01  0.93439567551E+01  0.00000000000E+00 0.  1.
</event>
<event>
 7    1  0.4963616E-011  0.5052886E+02  0.7816164E-02  0.1300439E+00
        -11   -1    0    0    0    0  0.00000000000E+00  0.00000000000E+00  0.45593999997E+02  0.45594000000E+02  0.51100000000E-03 0.  1.
         11   -1    0    0    0    0 -0.00000000000E+00 -0.00000000000E+00 -0.45593999997E+02  0.45594000000E+02  0.51100000000E-03 0. -1.
    9900012    2    1    2    0    0  0.23741675696E+02 -0.23859742099E+02 -0.22808145379E+02  0.50528856459E+02  0.29999989692E+02 0.  0.
        -12    1    1    2    0    0 -0.23741675696E+02  0.23859742099E+02  0.22808145379E+02  0.40659143541E+02  0.00000000000E+00 0.  1.
         11    1    3    3    0    0  0.12899383785E+02  0.41246373362E+00 -0.19875686876E+02  0.23698252202E+02  0.51100000000E-03 0. -1.
        -11    1    3    3    0    0  0.55372828672E+01 -0.11375794995E+02 -0.40409699355E+00  0.12658337488E+02  0.51100000000E-03 0.  1.
         12    1    3    3    0    0  0.53050090442E+01 -0.12896410838E+02 -0.25283615089E+01  0.14172266769E+02  0.00000000000E+00 0. -1.
</event>
<event>
 7    1  0.4963616E-011  0.5052886E+02  0.7816164E-02  0.1300439E+00
        -11   -1    0    0    0    0  0.00000000000E+00  0.00000000000E+00  0.45593999997E+02  0.45594000000E+02  0.51100000000E-03 0.  1.
         11   -1    0    0    0    0 -0.00000000000E+00 -0.00000000000E+00 -0.45593999997E+02  0.45594000000E+02  0.51100000000E-03 0. -1.
    9900012    2    1    2    0    0  0.36885309533E+02  0.11279583613E+02 -0.12861211622E+02  0.50528857975E+02  0.29999994301E+02 0.  0.
        -12    1    1    2    0    0 -0.36885309533E+02 -0.11279583613E+02  0.12861211622E+02  0.40659142025E+02  0.00000000000E+00 0.  1.
         11    1    3    3    0    0  0.21179716320E+02  0.15625184202E+02 -0.14445441196E+02  0.30023283237E+02  0.51100000000E-03 0. -1.
        -11    1    3    3    0    0  0.17454804920E+02 -0.27605954127E+01  0.27305134334E+01  0.17881465424E+02  0.51100000000E-03 0.  1.
         12    1    3    3    0    0 -0.17492117071E+01 -0.15850051767E+01 -0.11462838589E+01  0.26241093140E+01  0.00000000000E+00 0. -1.
</event>
<event>
 7    1  0.4963616E-011  0.5052887E+02  0.7816164E-02  0.1300439E+00
        -11   -1    0    0    0    0  0.00000000000E+00  0.00000000000E+00  0.45593999997E+02  0.45594000000E+02  0.51100000000E-03 0. -1.
         11   -1    0    0    0    0 -0.00000000000E+00 -0.00000000000E+00 -0.45593999997E+02  0.45594000000E+02  0.51100000000E-03 0.  1.
    9900012    2    1    2    0    0  0.20370009847E+02 -0.22121176636E+02  0.27365688673E+02  0.50528872200E+02  0.30000037540E+02 0.  0.
        -12    1    1    2    0    0 -0.20370009847E+02  0.22121176636E+02 -0.27365688673E+02  0.40659127800E+02  0.00000000000E+00 0.  1.
         11    1    3    3    0    0  0.84289255462E+01  0.19988283246E+01  0.81459031966E+01  0.11891082360E+02  0.51100000000E-03 0. -1.
        -11    1    3    3    0    0 -0.13202416073E+01 -0.11525535001E+02 -0.66676307393E+00  0.11620050268E+02  0.51100000000E-03 0.  1.
        -12    1    3    3    0    0  0.13261325908E+02 -0.12594469959E+02  0.19886548550E+02  0.27017739573E+02  0.00000000000E+00 0.  1.
</event>
<event>
 7    1  0.4963616E-011  0.5052886E+02  0.7816164E-02  0.1300439E+00
        -11   -1    0    0    0    0  0.00000000000E+00  0.00000000000E+00  0.45593999997E+02  0.45594000000E+02  0.51100000000E-03 0. -1.
         11   -1    0    0    0    0 -0.00000000000E+00 -0.00000000000E+00 -0.45593999997E+02  0.45594000000E+02  0.51100000000E-03 0.  1.
    9900012    2    1    2    0    0 -0.23321554845E+02 -0.29228640215E+02  0.15967395797E+02  0.50528855177E+02  0.29999985796E+02 0.  0.
        -12    1    1    2    0    0  0.23321554845E+02  0.29228640215E+02 -0.15967395797E+02  0.40659144823E+02  0.00000000000E+00 0.  1.
         11    1    3    3    0    0 -0.13749206937E+02 -0.89911478439E+01  0.19187447638E+02  0.25259445324E+02  0.51100000000E-03 0.  1.
        -11    1    3    3    0    0 -0.11843365990E+02 -0.13647396412E+02 -0.18350369072E+01  0.18162712009E+02  0.51100000000E-03 0. -1.
        -12    1    3    3    0    0  0.22710180825E+01 -0.65900959592E+01 -0.13850149334E+01  0.71066978442E+01  0.00000000000E+00 0.  1.
</event>
<event>
 7    1  0.5146630E-011  0.5052886E+02  0.7816164E-02  0.1300439E+00
        -11   -1    0    0    0    0  0.00000000000E+00  0.00000000000E+00  0.45593999997E+02  0.45594000000E+02  0.51100000000E-03 0. -1.
         11   -1    0    0    0    0 -0.00000000000E+00 -0.00000000000E+00 -0.45593999997E+02  0.45594000000E+02  0.51100000000E-03 0.  1.
    9900012    2    1    2    0    0 -0.35907943335E+02 -0.18200713021E+02  0.57025809532E+01  0.50528858610E+02  0.29999996232E+02 0.  0.
        -12    1    1    2    0    0  0.35907943335E+02  0.18200713021E+02 -0.57025809532E+01  0.40659141390E+02  0.00000000000E+00 0.  1.
         11    1    3    3    0    0 -0.19236798465E+02 -0.77192917266E+00 -0.52128886009E+01  0.19945538289E+02  0.51100000000E-03 0.  1.
        -11    1    3    3    0    0 -0.19056081167E+02 -0.17779714360E+02  0.92584246240E+01  0.27658107292E+02  0.51100000000E-03 0. -1.
        -12    1    3    3    0    0  0.23849362974E+01  0.35093051165E+00  0.16570449302E+01  0.29252130294E+01  0.00000000000E+00 0.  1.
</event>
<event>
 7    1  0.4963616E-011  0.5052886E+02  0.7816164E-02  0.1300439E+00
        -11   -1    0    0    0    0  0.00000000000E+00  0.00000000000E+00  0.45593999997E+02  0.45594000000E+02  0.51100000000E-03 0.  1.
         11   -1    0    0    0    0 -0.00000000000E+00 -0.00000000000E+00 -0.45593999997E+02  0.45594000000E+02  0.51100000000E-03 0. -1.
    9900012    2    1    2    0    0  0.14576211943E+02  0.15447110094E+01 -0.37925103484E+02  0.50528861286E+02  0.30000004364E+02 0.  0.
        -12    1    1    2    0    0 -0.14576211943E+02 -0.15447110094E+01  0.37925103484E+02  0.40659138714E+02  0.00000000000E+00 0.  1.
         11    1    3    3    0    0 -0.21592999733E+01  0.21346450569E+01  0.22521541627E+01  0.37804079842E+01  0.51100000000E-03 0. -1.
        -11    1    3    3    0    0  0.15929110322E+02  0.51219418481E+01 -0.21762717956E+02  0.27451534330E+02  0.51100000000E-03 0.  1.
         12    1    3    3    0    0  0.80640159408E+00 -0.57118758956E+01 -0.18414539691E+02  0.19296918972E+02  0.00000000000E+00 0. -1.
</event>
<event>
 7    1  0.4963616E-011  0.5052886E+02  0.7816164E-02  0.1300439E+00
        -11   -1    0    0    0    0  0.00000000000E+00  0.00000000000E+00  0.45593999997E+02  0.45594000000E+02  0.51100000000E-03 0.  1.
         11   -1    0    0    0    0 -0.00000000000E+00 -0.00000000000E+00 -0.45593999997E+02  0.45594000000E+02  0.51100000000E-03 0. -1.
    9900012    2    1    2    0    0  0.32901309323E+00  0.25801579280E+01 -0.40575856239E+02  0.50528861125E+02  0.30000003875E+02 0.  0.
        -12    1    1    2    0    0 -0.32901309323E+00 -0.25801579280E+01  0.40575856239E+02  0.40659138875E+02  0.00000000000E+00 0.  1.
         11    1    3    3    0    0 -0.85697063575E+01  0.10921654179E+02 -0.30231313743E+02  0.33266420426E+02  0.51100000000E-03 0. -1.
        -11    1    3    3    0    0 -0.45828557339E+00 -0.30072312939E+01 -0.25085806572E+01  0.39428977791E+01  0.51100000000E-03 0.  1.
         12    1    3    3    0    0  0.93570050241E+01 -0.53342649573E+01 -0.78359618385E+01  0.13319542920E+02  0.00000000000E+00 0. -1.
</event>
<event>
 7    1  0.4963616E-011  0.5052886E+02  0.7816164E-02  0.1300439E+00
        -11   -1    0    0    0    0  0.00000000000E+00  0.00000000000E+00  0.45593999997E+02  0.45594000000E+02  0.51100000000E-03 0.  1.
         11   -1    0    0    0    0 -0.00000000000E+00 -0.00000000000E+00 -0.45593999997E+02  0.45594000000E+02  0.51100000000E-03 0. -1.
    9900012    2    1    2    0    0 -0.31926641905E+02 -0.68505161639E+01 -0.24226542830E+02  0.50528863111E+02  0.30000009913E+02 0.  0.
        -12    1    1    2    0    0  0.31926641905E+02  0.68505161639E+01  0.24226542830E+02  0.40659136889E+02  0.00000000000E+00 0.  1.
         11    1    3    3    0    0 -0.13137292158E+02 -0.58957949169E+01 -0.25397492235E+02  0.29195572525E+02  0.51100000000E-03 0. -1.
        -11    1    3    3    0    0 -0.17943137827E+02  0.14186359539E+01  0.29629001054E+01  0.18241367831E+02  0.51100000000E-03 0.  1.
        -12    1    3    3    0    0 -0.84621192027E+00 -0.23733572010E+01 -0.17919506998E+01  0.30919227558E+01  0.00000000000E+00 0.  1.
</event>
<event>
 7    1  0.4963616E-011  0.5052886E+02  0.7816164E-02  0.1300439E+00
        -11   -1    0    0    0    0  0.00000000000E+00  0.00000000000E+00  0.45593999997E+02  0.45594000000E+02  0.51100000000E-03 0.  1.
         11   -1    0    0    0    0 -0.00000000000E+00 -0.00000000000E+00 -0.45593999997E+02  0.45594000000E+02  0.51100000000E-03 0. -1.
    9900012    2    1    2    0    0  0.20420562732E+01 -0.80799904530E+01 -0.39795851637E+02  0.50528855308E+02  0.29999986196E+02 0.  0.
        -12    1    1    2    0    0 -0.20420562732E+01  0.80799904530E+01  0.39795851637E+02  0.40659144692E+02  0.00000000000E+00 0.  1.
         11    1    3    3    0    0  0.44982487219E+01 -0.48857307188E+01 -0.38158398000E+02  0.38732001555E+02  0.51100000000E-03 0. -1.
        -11    1    3    3    0    0 -0.36855515014E+01 -0.58881659572E+01 -0.39936336103E+01  0.80126710829E+01  0.51100000000E-03 0.  1.
         12    1    3    3    0    0  0.12293590527E+01  0.26939062230E+01  0.23561799736E+01  0.37841826709E+01  0.00000000000E+00 0. -1.
</event>
<event>
 7    1  0.4963616E-011  0.5052886E+02  0.7816164E-02  0.1300439E+00
        -11   -1    0    0    0    0  0.00000000000E+00  0.00000000000E+00  0.45593999997E+02  0.45594000000E+02  0.51100000000E-03 0.  1.
         11   -1    0    0    0    0 -0.00000000000E+00 -0.00000000000E+00 -0.45593999997E+02  0.45594000000E+02  0.51100000000E-03 0. -1.
    9900012    2    1    2    0    0 -0.17423097940E+02  0.85591366505E+01  0.35725932303E+02  0.50528863254E+02  0.30000010347E+02 0.  0.
        -12    1    1    2    0    0  0.17423097940E+02 -0.85591366505E+01 -0.35725932303E+02  0.40659136746E+02  0.00000000000E+00 0.  1.
         11    1    3    3    0    0 -0.12811074093E+02  0.58429652422E+00  0.30220381416E+02  0.32828896951E+02  0.51100000000E-03 0. -1.
        -11    1    3    3    0    0 -0.33045057791E+00 -0.37540312237E+01 -0.57498396053E+00  0.38121588147E+01  0.51100000000E-03 0.  1.
         12    1    3    3    0    0 -0.42815732691E+01  0.11728871350E+02  0.60805348474E+01  0.13887807488E+02  0.00000000000E+00 0. -1.
</event>
<event>
 7    1  0.4963616E-011  0.5052884E+02  0.7816164E-02  0.1300439E+00
        -11   -1    0    0    0    0  0.00000000000E+00  0.00000000000E+00  0.45593999997E+02  0.45594000000E+02  0.51100000000E-03 0. -1.
         11   -1    0    0    0    0 -0.00000000000E+00 -0.00000000000E+00 -0.45593999997E+02  0.45594000000E+02  0.51100000000E-03 0.  1.
    9900012    2    1    2    0    0 -0.17349706210E+02  0.30729253815E+02  0.20195745161E+02  0.50528837831E+02  0.29999933073E+02 0.  0.
        -12    1    1    2    0    0  0.17349706210E+02 -0.30729253815E+02 -0.20195745161E+02  0.40659162169E+02  0.00000000000E+00 0.  1.
         11    1    3    3    0    0 -0.36772626435E+01  0.22664839780E+02  0.65783133963E+01  0.23884962428E+02  0.51100000000E-03 0. -1.
        -11    1    3    3    0    0 -0.78936320428E+01 -0.39472283558E+01  0.22062941459E+01  0.90971299122E+01  0.51100000000E-03 0.  1.
        -12    1    3    3    0    0 -0.57788115236E+01  0.12011642391E+02  0.11411137619E+02  0.17546745491E+02  0.00000000000E+00 0.  1.
</event>
<event>
 7    1  0.4963616E-011  0.5052886E+02  0.7816164E-02  0.1300439E+00
        -11   -1    0    0    0    0  0.00000000000E+00  0.00000000000E+00  0.45593999997E+02  0.45594000000E+02  0.51100000000E-03 0. -1.
         11   -1    0    0    0    0 -0.00000000000E+00 -0.00000000000E+00 -0.45593999997E+02  0.45594000000E+02  0.51100000000E-03 0.  1.
    9900012    2    1    2    0    0 -0.14800920390E+02  0.28251996523E+02  0.25217519509E+02  0.50528857829E+02  0.29999993856E+02 0.  0.
        -12    1    1    2    0    0  0.14800920390E+02 -0.28251996523E+02 -0.25217519509E+02  0.40659142171E+02  0.00000000000E+00 0.  1.
         11    1    3    3    0    0 -0.36008847496E+01 -0.18757205160E+01 -0.21691522407E+01  0.46032510401E+01  0.51100000000E-03 0. -1.
        -11    1    3    3    0    0  0.26047447862E+01  0.18377113196E+02  0.11606153560E+02  0.21890769414E+02  0.51100000000E-03 0.  1.
         12    1    3    3    0    0 -0.13804780427E+02  0.11750603843E+02  0.15780518189E+02  0.24034837375E+02  0.00000000000E+00 0. -1.
</event>
<event>
 7    1  0.4963616E-011  0.5052885E+02  0.7816164E-02  0.1300439E+00
        -11   -1    0    0    0    0  0.00000000000E+00  0.00000000000E+00  0.45593999997E+02  0.45594000000E+02  0.51100000000E-03 0.  1.
         11   -1    0    0    0    0 -0.00000000000E+00 -0.00000000000E+00 -0.45593999997E+02  0.45594000000E+02  0.51100000000E-03 0. -1.
    9900012    2    1    2    0    0  0.22959499022E+02  0.23777894946E+02 -0.23677835763E+02  0.50528846174E+02  0.29999958432E+02 0.  0.
        -12    1    1    2    0    0 -0.22959499022E+02 -0.23777894946E+02  0.23677835763E+02  0.40659153826E+02  0.00000000000E+00 0.  1.
         11    1    3    3    0    0  0.13762195467E+02  0.51218725850E-03 -0.78250368096E+01  0.15831273659E+02  0.51100000000E-03 0. -1.
        -11    1    3    3    0    0  0.94843071845E+01  0.22819227731E+02 -0.68557384831E+01  0.25645085054E+02  0.51100000000E-03 0.  1.
         12    1    3    3    0    0 -0.28700362975E+00  0.95815502828E+00 -0.89970604702E+01  0.90524874618E+01  0.00000000000E+00 0. -1.
</event>
<event>
 7    1  0.4963616E-011  0.5052886E+02  0.7816164E-02  0.1300439E+00
        -11   -1    0    0    0    0  0.00000000000E+00  0.00000000000E+00  0.45593999997E+02  0.45594000000E+02  0.51100000000E-03 0.  1.
         11   -1    0    0    0    0 -0.00000000000E+00 -0.00000000000E+00 -0.45593999997E+02  0.45594000000E+02  0.51100000000E-03 0. -1.
    9900012    2    1    2    0    0  0.21563439021E+02 -0.12574587646E+02 -0.32094601968E+02  0.50528860408E+02  0.30000001696E+02 0.  0.
        -12    1    1    2    0    0 -0.21563439021E+02  0.12574587646E+02  0.32094601968E+02  0.40659139592E+02  0.00000000000E+00 0.  1.
         11    1    3    3    0    0  0.19490982858E+02 -0.19627454376E+01 -0.44191490546E+01  0.20081824147E+02  0.51100000000E-03 0. -1.
        -11    1    3    3    0    0 -0.54708715085E+00 -0.18258810735E+01 -0.13029448678E+02  0.13168131195E+02  0.51100000000E-03 0.  1.
        -12    1    3    3    0    0  0.26195433132E+01 -0.87859611351E+01 -0.14646004235E+02  0.17278905067E+02  0.00000000000E+00 0.  1.
</event>
<event>
 7    1  0.4963616E-011  0.5052883E+02  0.7816164E-02  0.1300439E+00
        -11   -1    0    0    0    0  0.00000000000E+00  0.00000000000E+00  0.45593999997E+02  0.45594000000E+02  0.51100000000E-03 0. -1.
         11   -1    0    0    0    0 -0.00000000000E+00 -0.00000000000E+00 -0.45593999997E+02  0.45594000000E+02  0.51100000000E-03 0.  1.
    9900012    2    1    2    0    0 -0.25064946273E+02 -0.11377531075E+02  0.29924382056E+02  0.50528826540E+02  0.29999898752E+02 0.  0.
        -12    1    1    2    0    0  0.25064946273E+02  0.11377531075E+02 -0.29924382056E+02  0.40659173460E+02  0.00000000000E+00 0.  1.
         11    1    3    3    0    0 -0.22579247131E+02 -0.18110756744E+02  0.29325276268E+02  0.41204292728E+02  0.51100000000E-03 0.  1.
        -11    1    3    3    0    0 -0.43775495906E+01  0.52706304138E+01 -0.31341045421E-01  0.68515303326E+01  0.51100000000E-03 0. -1.
        -12    1    3    3    0    0  0.18918504488E+01  0.14625952544E+01  0.63044683333E+00  0.24730034792E+01  0.00000000000E+00 0.  1.
</event>
<event>
 7    1  0.4963616E-011  0.5052884E+02  0.7816164E-02  0.1300439E+00
        -11   -1    0    0    0    0  0.00000000000E+00  0.00000000000E+00  0.45593999997E+02  0.45594000000E+02  0.51100000000E-03 0.  1.
         11   -1    0    0    0    0 -0.00000000000E+00 -0.00000000000E+00 -0.45593999997E+02  0.45594000000E+02  0.51100000000E-03 0. -1.
    9900012    2    1    2    0    0  0.31219227590E+02 -0.17733679961E+02  0.19079931175E+02  0.50528839287E+02  0.29999937496E+02 0.  0.
        -12    1    1    2    0    0 -0.31219227590E+02  0.17733679961E+02 -0.19079931175E+02  0.40659160713E+02  0.00000000000E+00 0.  1.
         11    1    3    3    0    0  0.11764946997E+02 -0.48372020339E+01 -0.31743743681E+01  0.13110650413E+02  0.51100000000E-03 0. -1.
        -11    1    3    3    0    0  0.83994098763E+01 -0.11311704050E+02  0.22148301542E+02  0.26249799928E+02  0.51100000000E-03 0.  1.
        -12    1    3    3    0    0  0.11054870717E+02 -0.15847738773E+01  0.10600400073E+00  0.11168388946E+02  0.00000000000E+00 0.  1.
</event>
<event>
 7    1  0.4963616E-011  0.5052886E+02  0.7816164E-02  0.1300439E+00
        -11   -1    0    0    0    0  0.00000000000E+00  0.00000000000E+00  0.45593999997E+02  0.45594000000E+02  0.51100000000E-03 0.  1.
         11   -1    0    0    0    0 -0.00000000000E+00 -0.00000000000E+00 -0.45593999997E+02  0.45594000000E+02  0.51100000000E-03 0. -1.
    9900012    2    1    2    0    0 -0.30960234417E+02  0.26269913233E+02 -0.21262697279E+01  0.50528862289E+02  0.30000007415E+02 0.  0.
        -12    1    1    2    0    0  0.30960234417E+02 -0.26269913233E+02  0.21262697279E+01  0.40659137711E+02  0.00000000000E+00 0.  1.
         11    1    3    3    0    0 -0.10626426097E+02 -0.34775782821E+01 -0.38259475783E+00  0.11187531511E+02  0.51100000000E-03 0. -1.
        -11    1    3    3    0    0 -0.63571761400E+01  0.19593620753E+02 -0.61781196758E+01  0.21505646368E+02  0.51100000000E-03 0.  1.
        -12    1    3    3    0    0 -0.13976632180E+02  0.10153870762E+02  0.44344447058E+01  0.17835684410E+02  0.00000000000E+00 0.  1.
</event>
<event>
 7    1  0.4963616E-011  0.5052886E+02  0.7816164E-02  0.1300439E+00
        -11   -1    0    0    0    0  0.00000000000E+00  0.00000000000E+00  0.45593999997E+02  0.45594000000E+02  0.51100000000E-03 0. -1.
         11   -1    0    0    0    0 -0.00000000000E+00 -0.00000000000E+00 -0.45593999997E+02  0.45594000000E+02  0.51100000000E-03 0.  1.
    9900012    2    1    2    0    0  0.38540063948E+02  0.43386578242E+01  0.12206763148E+02  0.50528861453E+02  0.30000004872E+02 0.  0.
        -12    1    1    2    0    0 -0.38540063948E+02 -0.43386578242E+01 -0.12206763148E+02  0.40659138547E+02  0.00000000000E+00 0.  1.
         11    1    3    3    0    0  0.19086042244E+02  0.23015752495E+01 -0.77037040093E+01  0.20710415566E+02  0.51100000000E-03 0. -1.
        -11    1    3    3    0    0  0.84155501758E+01  0.52350534153E+01  0.13212752637E+02  0.16516782421E+02  0.51100000000E-03 0.  1.
        -12    1    3    3    0    0  0.11038471528E+02 -0.31979708406E+01  0.66977145197E+01  0.13301663466E+02  0.00000000000E+00 0.  1.
</event>
<event>
 7    1  0.4963616E-011  0.5052885E+02  0.7816164E-02  0.1300439E+00
        -11   -1    0    0    0    0  0.00000000000E+00  0.00000000000E+00  0.45593999997E+02  0.45594000000E+02  0.51100000000E-03 0.  1.
         11   -1    0    0    0    0 -0.00000000000E+00 -0.00000000000E+00 -0.45593999997E+02  0.45594000000E+02  0.51100000000E-03 0. -1.
    9900012    2    1    2    0    0  0.14339557429E+02  0.34548700118E+02  0.15935204121E+02  0.50528851983E+02  0.29999976086E+02 0.  0.
        -12    1    1    2    0    0 -0.14339557429E+02 -0.34548700118E+02 -0.15935204121E+02  0.40659148017E+02  0.00000000000E+00 0.  1.
         11    1    3    3    0    0  0.33797496969E+01  0.19373062953E+02  0.47556609447E+00  0.19671411733E+02  0.51100000000E-03 0. -1.
        -11    1    3    3    0    0  0.26755534737E+01 -0.45624201885E+01  0.27247269278E+01  0.59496555749E+01  0.51100000000E-03 0.  1.
         12    1    3    3    0    0  0.82842542587E+01  0.19738057353E+02  0.12734911099E+02  0.24907784675E+02  0.00000000000E+00 0. -1.
</event>
<event>
 7    1  0.4963616E-011  0.5052885E+02  0.7816164E-02  0.1300439E+00
        -11   -1    0    0    0    0  0.00000000000E+00  0.00000000000E+00  0.45593999997E+02  0.45594000000E+02  0.51100000000E-03 0.  1.
         11   -1    0    0    0    0 -0.00000000000E+00 -0.00000000000E+00 -0.45593999997E+02  0.45594000000E+02  0.51100000000E-03 0. -1.
    9900012    2    1    2    0    0 -0.11512328411E+02 -0.38375222712E+02 -0.69263899367E+01  0.50528852183E+02  0.29999976695E+02 0.  0.
        -12    1    1    2    0    0  0.11512328411E+02  0.38375222712E+02  0.69263899367E+01  0.40659147817E+02  0.00000000000E+00 0.  1.
         11    1    3    3    0    0  0.37704818100E+01  0.23574968085E+01  0.29592918086E+01  0.53415103250E+01  0.51100000000E-03 0. -1.
        -11    1    3    3    0    0 -0.98389436732E+01 -0.21704453854E+02 -0.86692600582E+01  0.25358316189E+02  0.51100000000E-03 0.  1.
         12    1    3    3    0    0 -0.54438665481E+01 -0.19028265667E+02 -0.12164216871E+01  0.19829025669E+02  0.00000000000E+00 0. -1.
</event>
<event>
 7    1  0.4963616E-011  0.5052883E+02  0.7816164E-02  0.1300439E+00
        -11   -1    0    0    0    0  0.00000000000E+00  0.00000000000E+00  0.45593999997E+02  0.45594000000E+02  0.51100000000E-03 0.  1.
         11   -1    0    0    0    0 -0.00000000000E+00 -0.00000000000E+00 -0.45593999997E+02  0.45594000000E+02  0.51100000000E-03 0. -1.
    9900012    2    1    2    0    0 -0.15207927391E+02  0.37696249589E+02 -0.93784537451E+00  0.50528833229E+02  0.29999919082E+02 0.  0.
        -12    1    1    2    0    0  0.15207927391E+02 -0.37696249589E+02  0.93784537451E+00  0.40659166771E+02  0.00000000000E+00 0.  1.
         11    1    3    3    0    0 -0.23042353710E+01  0.16345014403E+02  0.24868270724E+01  0.16692911838E+02  0.51100000000E-03 0. -1.
        -11    1    3    3    0    0 -0.15745447841E+02  0.18825694688E+02 -0.97889824914E+01  0.26422529906E+02  0.51100000000E-03 0.  1.
        -12    1    3    3    0    0  0.28417558211E+01  0.25255404979E+01  0.63643100445E+01  0.74133914841E+01  0.00000000000E+00 0.  1.
</event>
<event>
 7    1  0.4963616E-011  0.5052886E+02  0.7816164E-02  0.1300439E+00
        -11   -1    0    0    0    0  0.00000000000E+00  0.00000000000E+00  0.45593999997E+02  0.45594000000E+02  0.51100000000E-03 0. -1.
         11   -1    0    0    0    0 -0.00000000000E+00 -0.00000000000E+00 -0.45593999997E+02  0.45594000000E+02  0.51100000000E-03 0.  1.
    9900012    2    1    2    0    0 -0.28829715686E+02  0.16570965941E+02  0.23396924386E+02  0.50528862165E+02  0.30000007036E+02 0.  0.
        -12    1    1    2    0    0  0.28829715686E+02 -0.16570965941E+02 -0.23396924386E+02  0.40659137835E+02  0.00000000000E+00 0.  1.
         11    1    3    3    0    0 -0.17086648811E+02  0.50695816186E+01  0.24457621706E+02  0.30262674785E+02  0.51100000000E-03 0. -1.
        -11    1    3    3    0    0 -0.10439372038E+01  0.89531440713E+01 -0.19824314026E+01  0.92292268460E+01  0.51100000000E-03 0.  1.
         12    1    3    3    0    0 -0.10699129671E+02  0.25482402509E+01  0.92173408270E+00  0.11036960534E+02  0.00000000000E+00 0. -1.
</event>
<event>
 7    1  0.4963616E-011  0.5052881E+02  0.7816164E-02  0.1300439E+00
        -11   -1    0    0    0    0  0.00000000000E+00  0.00000000000E+00  0.45593999997E+02  0.45594000000E+02  0.51100000000E-03 0.  1.
         11   -1    0    0    0    0 -0.00000000000E+00 -0.00000000000E+00 -0.45593999997E+02  0.45594000000E+02  0.51100000000E-03 0. -1.
    9900012    2    1    2    0    0  0.25935360840E+02 -0.21305697595E+01 -0.31240797717E+02  0.50528810247E+02  0.29999849227E+02 0.  0.
        -12    1    1    2    0    0 -0.25935360840E+02  0.21305697595E+01  0.31240797717E+02  0.40659189753E+02  0.00000000000E+00 0.  1.
         11    1    3    3    0    0  0.37665081196E+01 -0.11563130933E+02 -0.34083670014E+01  0.12629708875E+02  0.51100000000E-03 0. -1.
        -11    1    3    3    0    0  0.11424220128E+01  0.27984432501E+01 -0.10300500179E+01  0.31933393149E+01  0.51100000000E-03 0.  1.
         12    1    3    3    0    0  0.21026430707E+02  0.66341179235E+01 -0.26802380697E+02  0.34705762057E+02  0.00000000000E+00 0. -1.
</event>
<event>
 7    1  0.4963616E-011  0.5052892E+02  0.7816164E-02  0.1300439E+00
        -11   -1    0    0    0    0  0.00000000000E+00  0.00000000000E+00  0.45593999997E+02  0.45594000000E+02  0.51100000000E-03 0. -1.
         11   -1    0    0    0    0 -0.00000000000E+00 -0.00000000000E+00 -0.45593999997E+02  0.45594000000E+02  0.51100000000E-03 0.  1.
    9900012    2    1    2    0    0 -0.13772972222E+02  0.33614219988E+02  0.18263360031E+02  0.50528918986E+02  0.30000179750E+02 0.  0.
        -12    1    1    2    0    0  0.13772972222E+02 -0.33614219988E+02 -0.18263360031E+02  0.40659081014E+02  0.00000000000E+00 0.  1.
         11    1    3    3    0    0 -0.11569870873E+02  0.18288294941E+02  0.18540088119E+02  0.28496640356E+02  0.51100000000E-03 0. -1.
        -11    1    3    3    0    0  0.53231131206E+01  0.51040394391E+01  0.43022402702E+01  0.85379168123E+01  0.51100000000E-03 0.  1.
         12    1    3    3    0    0 -0.75262144701E+01  0.10221885609E+02 -0.45789683583E+01  0.13494361818E+02  0.00000000000E+00 0. -1.
</event>
<event>
 7    1  0.4963616E-011  0.5052886E+02  0.7816164E-02  0.1300439E+00
        -11   -1    0    0    0    0  0.00000000000E+00  0.00000000000E+00  0.45593999997E+02  0.45594000000E+02  0.51100000000E-03 0.  1.
         11   -1    0    0    0    0 -0.00000000000E+00 -0.00000000000E+00 -0.45593999997E+02  0.45594000000E+02  0.51100000000E-03 0. -1.
    9900012    2    1    2    0    0 -0.25920630779E+02 -0.54007782593E+01  0.30856412768E+02  0.50528859396E+02  0.29999998619E+02 0.  0.
        -12    1    1    2    0    0  0.25920630779E+02  0.54007782593E+01 -0.30856412768E+02  0.40659140604E+02  0.00000000000E+00 0.  1.
         11    1    3    3    0    0 -0.12015258873E+02 -0.85381026922E+01  0.13826954590E+01  0.14804644216E+02  0.51100000000E-03 0. -1.
        -11    1    3    3    0    0 -0.16794628099E+02  0.25003341943E+01  0.26857433456E+02  0.31774721654E+02  0.51100000000E-03 0.  1.
        -12    1    3    3    0    0  0.28892561927E+01  0.63699023863E+00  0.26162838522E+01  0.39494935253E+01  0.00000000000E+00 0.  1.
</event>
<event>
 7    1  0.4963616E-011  0.5052885E+02  0.7816164E-02  0.1300439E+00
        -11   -1    0    0    0    0  0.00000000000E+00  0.00000000000E+00  0.45593999997E+02  0.45594000000E+02  0.51100000000E-03 0.  1.
         11   -1    0    0    0    0 -0.00000000000E+00 -0.00000000000E+00 -0.45593999997E+02  0.45594000000E+02  0.51100000000E-03 0. -1.
    9900012    2    1    2    0    0 -0.26895155073E+02 -0.30251891805E+02  0.38262178862E+01  0.50528852597E+02  0.29999977954E+02 0.  0.
        -12    1    1    2    0    0  0.26895155073E+02  0.30251891805E+02 -0.38262178862E+01  0.40659147403E+02  0.00000000000E+00 0.  1.
         11    1    3    3    0    0 -0.23099429878E+02 -0.12467702108E+02 -0.76043283129E+01  0.27328612587E+02  0.51100000000E-03 0. -1.
        -11    1    3    3    0    0  0.84090687229E+00 -0.72154554439E+00  0.37721622056E+01  0.39315340907E+01  0.51100000000E-03 0.  1.
         12    1    3    3    0    0 -0.46366320671E+01 -0.17062644153E+02  0.76583839936E+01  0.19268705920E+02  0.00000000000E+00 0. -1.
</event>
<event>
 7    1  0.4963616E-011  0.5052872E+02  0.7816164E-02  0.1300439E+00
        -11   -1    0    0    0    0  0.00000000000E+00  0.00000000000E+00  0.45593999997E+02  0.45594000000E+02  0.51100000000E-03 0.  1.
         11   -1    0    0    0    0 -0.00000000000E+00 -0.00000000000E+00 -0.45593999997E+02  0.45594000000E+02  0.51100000000E-03 0. -1.
    9900012    2    1    2    0    0 -0.17723615156E+02 -0.32920248660E+02 -0.15978340583E+02  0.50528724627E+02  0.29999588973E+02 0.  0.
        -12    1    1    2    0    0  0.17723615156E+02  0.32920248660E+02  0.15978340583E+02  0.40659275373E+02  0.00000000000E+00 0.  1.
         11    1    3    3    0    0 -0.40034000975E+01  0.76779383203E+00 -0.42157638893E+01  0.58642463404E+01  0.51100000000E-03 0. -1.
        -11    1    3    3    0    0  0.45565279850E+01 -0.10177145513E+02  0.28269973492E+01  0.11503397426E+02  0.51100000000E-03 0.  1.
        -12    1    3    3    0    0 -0.18276743044E+02 -0.23510896980E+02 -0.14589574043E+02  0.33161080861E+02  0.00000000000E+00 0.  1.
</event>
<event>
 7    1  0.4963616E-011  0.5052886E+02  0.7816164E-02  0.1300439E+00
        -11   -1    0    0    0    0  0.00000000000E+00  0.00000000000E+00  0.45593999997E+02  0.45594000000E+02  0.51100000000E-03 0.  1.
         11   -1    0    0    0    0 -0.00000000000E+00 -0.00000000000E+00 -0.45593999997E+02  0.45594000000E+02  0.51100000000E-03 0. -1.
    9900012    2    1    2    0    0  0.17563995026E+01 -0.16226673144E+02 -0.37239441023E+02  0.50528857999E+02  0.29999994374E+02 0.  0.
        -12    1    1    2    0    0 -0.17563995026E+01  0.16226673144E+02  0.37239441023E+02  0.40659142001E+02  0.00000000000E+00 0.  1.
         11    1    3    3    0    0 -0.84569088250E+01  0.29501052815E+01 -0.12715251200E+02  0.15553136063E+02  0.51100000000E-03 0. -1.
        -11    1    3    3    0    0  0.67366159337E+01 -0.19894675271E+02 -0.18532543613E+02  0.28011341835E+02  0.51100000000E-03 0.  1.
        -12    1    3    3    0    0  0.34766923939E+01  0.71789684599E+00 -0.59916462104E+01  0.69643801011E+01  0.00000000000E+00 0.  1.
</event>
<event>
 7    1  0.4963616E-011  0.5052888E+02  0.7816164E-02  0.1300439E+00
        -11   -1    0    0    0    0  0.00000000000E+00  0.00000000000E+00  0.45593999997E+02  0.45594000000E+02  0.51100000000E-03 0.  1.
         11   -1    0    0    0    0 -0.00000000000E+00 -0.00000000000E+00 -0.45593999997E+02  0.45594000000E+02  0.51100000000E-03 0. -1.
    9900012    2    1    2    0    0 -0.25623449553E+02 -0.30379334015E+02 -0.85848280985E+01  0.50528875862E+02  0.30000048670E+02 0.  0.
        -12    1    1    2    0    0  0.25623449553E+02  0.30379334015E+02  0.85848280985E+01  0.40659124138E+02  0.00000000000E+00 0.  1.
         11    1    3    3    0    0 -0.21289515759E+02 -0.11092823667E+02  0.11561610724E+01  0.24033953625E+02  0.51100000000E-03 0. -1.
        -11    1    3    3    0    0 -0.63211805795E+01 -0.90739511062E+01 -0.11487290403E+02  0.15945273709E+02  0.51100000000E-03 0.  1.
        -12    1    3    3    0    0  0.19872467855E+01 -0.10212559242E+02  0.17463012325E+01  0.10549648528E+02  0.00000000000E+00 0.  1.
</event>
<event>
 7    1  0.4963616E-011  0.5052886E+02  0.7816164E-02  0.1300439E+00
        -11   -1    0    0    0    0  0.00000000000E+00  0.00000000000E+00  0.45593999997E+02  0.45594000000E+02  0.51100000000E-03 0.  1.
         11   -1    0    0    0    0 -0.00000000000E+00 -0.00000000000E+00 -0.45593999997E+02  0.45594000000E+02  0.51100000000E-03 0. -1.
    9900012    2    1    2    0    0 -0.30239833248E+02 -0.80720627344E+01 -0.25953033721E+02  0.50528859933E+02  0.30000000253E+02 0.  0.
        -12    1    1    2    0    0  0.30239833248E+02  0.80720627344E+01  0.25953033721E+02  0.40659140067E+02  0.00000000000E+00 0.  1.
         11    1    3    3    0    0 -0.32844176247E+02 -0.60729003903E+01 -0.26630116555E+02  0.42717480502E+02  0.51100000000E-03 0. -1.
        -11    1    3    3    0    0 -0.26016395302E-01  0.24843816436E+01  0.80488161631E+00  0.26116400367E+01  0.51100000000E-03 0.  1.
         12    1    3    3    0    0  0.26303593949E+01 -0.44835439877E+01 -0.12779878318E+00  0.51997393939E+01  0.00000000000E+00 0. -1.
</event>
<event>
 7    1  0.4963616E-011  0.5052887E+02  0.7816164E-02  0.1300439E+00
        -11   -1    0    0    0    0  0.00000000000E+00  0.00000000000E+00  0.45593999997E+02  0.45594000000E+02  0.51100000000E-03 0.  1.
         11   -1    0    0    0    0 -0.00000000000E+00 -0.00000000000E+00 -0.45593999997E+02  0.45594000000E+02  0.51100000000E-03 0. -1.
    9900012    2    1    2    0    0  0.31696871799E+02  0.10090663953E+02 -0.23380587252E+02  0.50528867679E+02  0.30000023796E+02 0.  0.
        -12    1    1    2    0    0 -0.31696871799E+02 -0.10090663953E+02  0.23380587252E+02  0.40659132321E+02  0.00000000000E+00 0.  1.
         11    1    3    3    0    0  0.31710588956E+01  0.99536216846E+00 -0.16340527560E+01  0.37035778696E+01  0.51100000000E-03 0. -1.
        -11    1    3    3    0    0  0.17310947255E+02 -0.69311333221E+01 -0.15534231870E+01  0.18711564014E+02  0.51100000000E-03 0.  1.
        -12    1    3    3    0    0  0.11214865648E+02  0.16026435106E+02 -0.20193111309E+02  0.28113725795E+02  0.00000000000E+00 0.  1.
</event>
<event>
 7    1  0.4963616E-011  0.5052886E+02  0.7816164E-02  0.1300439E+00
        -11   -1    0    0    0    0  0.00000000000E+00  0.00000000000E+00  0.45593999997E+02  0.45594000000E+02  0.51100000000E-03 0.  1.
         11   -1    0    0    0    0 -0.00000000000E+00 -0.00000000000E+00 -0.45593999997E+02  0.45594000000E+02  0.51100000000E-03 0. -1.
    9900012    2    1    2    0    0  0.17327888813E+02 -0.81116797767E+01 -0.35876323185E+02  0.50528860255E+02  0.30000001231E+02 0.  0.
        -12    1    1    2    0    0 -0.17327888813E+02  0.81116797767E+01  0.35876323185E+02  0.40659139745E+02  0.00000000000E+00 0.  1.
         11    1    3    3    0    0  0.23849893968E+02 -0.11068456046E+00 -0.27152580672E+02  0.36139899430E+02  0.51100000000E-03 0. -1.
        -11    1    3    3    0    0 -0.13923125878E+01 -0.55780587186E+01 -0.39602407008E+01  0.69811732595E+01  0.51100000000E-03 0.  1.
         12    1    3    3    0    0 -0.51296925671E+01 -0.24229364976E+01 -0.47635018123E+01  0.74077875659E+01  0.00000000000E+00 0. -1.
</event>
<event>
 7    1  0.4963616E-011  0.5052885E+02  0.7816164E-02  0.1300439E+00
        -11   -1    0    0    0    0  0.00000000000E+00  0.00000000000E+00  0.45593999997E+02  0.45594000000E+02  0.51100000000E-03 0.  1.
         11   -1    0    0    0    0 -0.00000000000E+00 -0.00000000000E+00 -0.45593999997E+02  0.45594000000E+02  0.51100000000E-03 0. -1.
    9900012    2    1    2    0    0 -0.31009593165E+01 -0.21638069802E+02 -0.34283292306E+02  0.50528854106E+02  0.29999982542E+02 0.  0.
        -12    1    1    2    0    0  0.31009593165E+01  0.21638069802E+02  0.34283292306E+02  0.40659145894E+02  0.00000000000E+00 0.  1.
         11    1    3    3    0    0 -0.60525575538E+01 -0.23426449271E+02 -0.11409724955E+02  0.26750958903E+02  0.51100000000E-03 0. -1.
        -11    1    3    3    0    0 -0.44030302558E+00  0.28877859875E+01 -0.10907094023E+02  0.11291495691E+02  0.51100000000E-03 0.  1.
         12    1    3    3    0    0  0.33919012628E+01 -0.10994065183E+01 -0.11966473328E+02  0.12486399512E+02  0.00000000000E+00 0. -1.
</event>
<event>
 7    1  0.4963616E-011  0.5052886E+02  0.7816164E-02  0.1300439E+00
        -11   -1    0    0    0    0  0.00000000000E+00  0.00000000000E+00  0.45593999997E+02  0.45594000000E+02  0.51100000000E-03 0. -1.
         11   -1    0    0    0    0 -0.00000000000E+00 -0.00000000000E+00 -0.45593999997E+02  0.45594000000E+02  0.51100000000E-03 0.  1.
    9900012    2    1    2    0    0 -0.58415487737E+01  0.37045181771E+02  0.15706581441E+02  0.50528857300E+02  0.29999992250E+02 0.  0.
        -12    1    1    2    0    0  0.58415487737E+01 -0.37045181771E+02 -0.15706581441E+02  0.40659142700E+02  0.00000000000E+00 0.  1.
         11    1    3    3    0    0  0.34761089112E+01  0.23375095946E+02  0.18093108407E+02  0.29763047823E+02  0.51100000000E-03 0. -1.
        -11    1    3    3    0    0 -0.47817097249E+01 -0.12832018325E+01 -0.12028639964E+01  0.50949226580E+01  0.51100000000E-03 0.  1.
        -12    1    3    3    0    0 -0.45359479600E+01  0.14953287658E+02 -0.11836629696E+01  0.15670886819E+02  0.00000000000E+00 0.  1.
</event>
<event>
 7    1  0.4963616E-011  0.5052887E+02  0.7816164E-02  0.1300439E+00
        -11   -1    0    0    0    0  0.00000000000E+00  0.00000000000E+00  0.45593999997E+02  0.45594000000E+02  0.51100000000E-03 0.  1.
         11   -1    0    0    0    0 -0.00000000000E+00 -0.00000000000E+00 -0.45593999997E+02  0.45594000000E+02  0.51100000000E-03 0. -1.
    9900012    2    1    2    0    0 -0.22310396357E+02 -0.16136928868E+02 -0.29916730393E+02  0.50528867984E+02  0.30000024724E+02 0.  0.
        -12    1    1    2    0    0  0.22310396357E+02  0.16136928868E+02  0.29916730393E+02  0.40659132016E+02  0.00000000000E+00 0.  1.
         11    1    3    3    0    0 -0.25748047837E+02 -0.12096658718E+02 -0.16378944574E+02  0.32826223438E+02  0.51100000000E-03 0. -1.
        -11    1    3    3    0    0  0.41950145668E+01  0.24586151268E+01 -0.56348065810E+01  0.74427132837E+01  0.51100000000E-03 0.  1.
        -12    1    3    3    0    0 -0.75736308709E+00 -0.64988852768E+01 -0.79029792375E+01  0.10259931263E+02  0.00000000000E+00 0.  1.
</event>
<event>
 7    1  0.4963616E-011  0.5052886E+02  0.7816164E-02  0.1300439E+00
        -11   -1    0    0    0    0  0.00000000000E+00  0.00000000000E+00  0.45593999997E+02  0.45594000000E+02  0.51100000000E-03 0.  1.
         11   -1    0    0    0    0 -0.00000000000E+00 -0.00000000000E+00 -0.45593999997E+02  0.45594000000E+02  0.51100000000E-03 0. -1.
    9900012    2    1    2    0    0 -0.71286604435E+01 -0.23749316761E+02 -0.32222944400E+02  0.50528855983E+02  0.29999988247E+02 0.  0.
        -12    1    1    2    0    0  0.71286604435E+01  0.23749316761E+02  0.32222944400E+02  0.40659144017E+02  0.00000000000E+00 0.  1.
         11    1    3    3    0    0  0.14040892533E+01 -0.17544199985E+02 -0.31477002042E+02  0.36063445170E+02  0.51100000000E-03 0. -1.
        -11    1    3    3    0    0 -0.15233328443E+01 -0.77604031542E+00 -0.45177476420E+01  0.48304063539E+01  0.51100000000E-03 0.  1.
         12    1    3    3    0    0 -0.70094168526E+01 -0.54290764609E+01  0.37718052837E+01  0.96350044593E+01  0.00000000000E+00 0. -1.
</event>
<event>
 7    1  0.4963616E-011  0.5052887E+02  0.7816164E-02  0.1300439E+00
        -11   -1    0    0    0    0  0.00000000000E+00  0.00000000000E+00  0.45593999997E+02  0.45594000000E+02  0.51100000000E-03 0.  1.
         11   -1    0    0    0    0 -0.00000000000E+00 -0.00000000000E+00 -0.45593999997E+02  0.45594000000E+02  0.51100000000E-03 0. -1.
    9900012    2    1    2    0    0  0.14784912450E+02  0.17152438307E+02 -0.33769294971E+02  0.50528867461E+02  0.30000023134E+02 0.  0.
        -12    1    1    2    0    0 -0.14784912450E+02 -0.17152438307E+02  0.33769294971E+02  0.40659132539E+02  0.00000000000E+00 0.  1.
         11    1    3    3    0    0 -0.63193121398E+01 -0.93736675736E+00 -0.11482638716E+02  0.13140142865E+02  0.51100000000E-03 0. -1.
        -11    1    3    3    0    0  0.18363296954E+02  0.11492411123E+02 -0.20919505155E+02  0.30114977745E+02  0.51100000000E-03 0.  1.
         12    1    3    3    0    0  0.27409276360E+01  0.65973939413E+01 -0.13671510998E+01  0.72737468510E+01  0.00000000000E+00 0. -1.
</event>
<event>
 7    1  0.4963616E-011  0.5052887E+02  0.7816164E-02  0.1300439E+00
        -11   -1    0    0    0    0  0.00000000000E+00  0.00000000000E+00  0.45593999997E+02  0.45594000000E+02  0.51100000000E-03 0.  1.
         11   -1    0    0    0    0 -0.00000000000E+00 -0.00000000000E+00 -0.45593999997E+02  0.45594000000E+02  0.51100000000E-03 0. -1.
    9900012    2    1    2    0    0  0.59386192046E+01 -0.11783396251E+01 -0.40205833205E+02  0.50528871799E+02  0.30000036320E+02 0.  0.
        -12    1    1    2    0    0 -0.59386192046E+01  0.11783396251E+01  0.40205833205E+02  0.40659128201E+02  0.00000000000E+00 0.  1.
         11    1    3    3    0    0  0.14915891246E+02  0.13800030477E+00 -0.32326119580E+02  0.35601697475E+02  0.51100000000E-03 0. -1.
        -11    1    3    3    0    0 -0.89627212149E+01  0.20574753201E+01 -0.65982981332E+01  0.11318176301E+02  0.51100000000E-03 0.  1.
         12    1    3    3    0    0 -0.14550826205E-01 -0.33738152500E+01 -0.12814154925E+01  0.36089980233E+01  0.00000000000E+00 0. -1.
</event>
<event>
 7    1  0.4963616E-011  0.5052886E+02  0.7816164E-02  0.1300439E+00
        -11   -1    0    0    0    0  0.00000000000E+00  0.00000000000E+00  0.45593999997E+02  0.45594000000E+02  0.51100000000E-03 0. -1.
         11   -1    0    0    0    0 -0.00000000000E+00 -0.00000000000E+00 -0.45593999997E+02  0.45594000000E+02  0.51100000000E-03 0.  1.
    9900012    2    1    2    0    0 -0.37666475850E+02  0.58653061904E+01 -0.14142153721E+02  0.50528859188E+02  0.29999997989E+02 0.  0.
        -12    1    1    2    0    0  0.37666475850E+02 -0.58653061904E+01  0.14142153721E+02  0.40659140812E+02  0.00000000000E+00 0.  1.
         11    1    3    3    0    0 -0.24935033252E+01 -0.20880437324E+01  0.14378186522E+01  0.35559539084E+01  0.51100000000E-03 0. -1.
        -11    1    3    3    0    0 -0.33441898746E+02 -0.26702898973E+01 -0.11615055489E+02  0.35502120418E+02  0.51100000000E-03 0.  1.
        -12    1    3    3    0    0 -0.17310737790E+01  0.10623639820E+02 -0.39649168842E+01  0.11470784862E+02  0.00000000000E+00 0.  1.
</event>
<event>
 7    1  0.4963616E-011  0.5052886E+02  0.7816164E-02  0.1300439E+00
        -11   -1    0    0    0    0  0.00000000000E+00  0.00000000000E+00  0.45593999997E+02  0.45594000000E+02  0.51100000000E-03 0.  1.
         11   -1    0    0    0    0 -0.00000000000E+00 -0.00000000000E+00 -0.45593999997E+02  0.45594000000E+02  0.51100000000E-03 0. -1.
    9900012    2    1    2    0    0  0.26092930626E+02 -0.23235324040E+02 -0.20795301116E+02  0.50528857604E+02  0.29999993172E+02 0.  0.
        -12    1    1    2    0    0 -0.26092930626E+02  0.23235324040E+02  0.20795301116E+02  0.40659142396E+02  0.00000000000E+00 0.  1.
         11    1    3    3    0    0  0.10645970489E+02 -0.24670592983E+01  0.31020626579E+01  0.11359835484E+02  0.51100000000E-03 0. -1.
        -11    1    3    3    0    0  0.96573989192E+01 -0.11607504379E+02 -0.23972784026E+02  0.28331852851E+02  0.51100000000E-03 0.  1.
         12    1    3    3    0    0  0.57895612182E+01 -0.91607603630E+01  0.75420252084E-01  0.10837169268E+02  0.00000000000E+00 0. -1.
</event>
<event>
 7    1  0.4963616E-011  0.5052886E+02  0.7816164E-02  0.1300439E+00
        -11   -1    0    0    0    0  0.00000000000E+00  0.00000000000E+00  0.45593999997E+02  0.45594000000E+02  0.51100000000E-03 0. -1.
         11   -1    0    0    0    0 -0.00000000000E+00 -0.00000000000E+00 -0.45593999997E+02  0.45594000000E+02  0.51100000000E-03 0.  1.
    9900012    2    1    2    0    0 -0.29035367211E+02  0.26317165569E+02  0.10840665174E+02  0.50528858665E+02  0.29999996398E+02 0.  0.
        -12    1    1    2    0    0  0.29035367211E+02 -0.26317165569E+02 -0.10840665174E+02  0.40659141335E+02  0.00000000000E+00 0.  1.
         11    1    3    3    0    0  0.16912232490E+01  0.10338341827E+02  0.95612058010E+01  0.14183025222E+02  0.51100000000E-03 0. -1.
        -11    1    3    3    0    0 -0.10829710784E+02  0.14048209604E+01 -0.29742284672E+01  0.11318223926E+02  0.51100000000E-03 0.  1.
         12    1    3    3    0    0 -0.19896879676E+02  0.14574002782E+02  0.42536878405E+01  0.25027609518E+02  0.00000000000E+00 0. -1.
</event>
<event>
 7    1  0.4963616E-011  0.5052886E+02  0.7816164E-02  0.1300439E+00
        -11   -1    0    0    0    0  0.00000000000E+00  0.00000000000E+00  0.45593999997E+02  0.45594000000E+02  0.51100000000E-03 0.  1.
         11   -1    0    0    0    0 -0.00000000000E+00 -0.00000000000E+00 -0.45593999997E+02  0.45594000000E+02  0.51100000000E-03 0. -1.
    9900012    2    1    2    0    0 -0.21888256984E+02  0.41258541285E+01 -0.34015395138E+02  0.50528861144E+02  0.30000003935E+02 0.  0.
        -12    1    1    2    0    0  0.21888256984E+02 -0.41258541285E+01  0.34015395138E+02  0.40659138856E+02  0.00000000000E+00 0.  1.
         11    1    3    3    0    0 -0.61128272826E+01  0.39375805858E+01 -0.37138971014E+01  0.81648166053E+01  0.51100000000E-03 0. -1.
        -11    1    3    3    0    0 -0.24837104967E+01 -0.94307479200E+01 -0.24763561378E+01  0.10061817139E+02  0.51100000000E-03 0.  1.
        -12    1    3    3    0    0 -0.13291719205E+02  0.96190214628E+01 -0.27825141898E+02  0.32302227400E+02  0.00000000000E+00 0.  1.
</event>
<event>
 7    1  0.4963616E-011  0.5052892E+02  0.7816164E-02  0.1300439E+00
        -11   -1    0    0    0    0  0.00000000000E+00  0.00000000000E+00  0.45593999997E+02  0.45594000000E+02  0.51100000000E-03 0.  1.
         11   -1    0    0    0    0 -0.00000000000E+00 -0.00000000000E+00 -0.45593999997E+02  0.45594000000E+02  0.51100000000E-03 0. -1.
    9900012    2    1    2    0    0  0.27390671253E+02 -0.21849901843E+02 -0.20627507377E+02  0.50528915617E+02  0.30000169510E+02 0.  0.
        -12    1    1    2    0    0 -0.27390671253E+02  0.21849901843E+02  0.20627507377E+02  0.40659084383E+02  0.00000000000E+00 0.  1.
         11    1    3    3    0    0  0.16217341801E+02 -0.49903750404E+01 -0.67958307240E+01  0.18278110778E+02  0.51100000000E-03 0. -1.
        -11    1    3    3    0    0 -0.28086529173E+01 -0.14556052502E+02 -0.54965839877E+01  0.15810744177E+02  0.51100000000E-03 0.  1.
        -12    1    3    3    0    0  0.13981982369E+02 -0.23034743011E+01 -0.83350926655E+01  0.16440060662E+02  0.00000000000E+00 0.  1.
</event>
<event>
 7    1  0.4963616E-011  0.5052886E+02  0.7816164E-02  0.1300439E+00
        -11   -1    0    0    0    0  0.00000000000E+00  0.00000000000E+00  0.45593999997E+02  0.45594000000E+02  0.51100000000E-03 0.  1.
         11   -1    0    0    0    0 -0.00000000000E+00 -0.00000000000E+00 -0.45593999997E+02  0.45594000000E+02  0.51100000000E-03 0. -1.
    9900012    2    1    2    0    0  0.51758545432E+01  0.28218058816E+02 -0.28811761151E+02  0.50528857188E+02  0.29999991909E+02 0.  0.
        -12    1    1    2    0    0 -0.51758545432E+01 -0.28218058816E+02  0.28811761151E+02  0.40659142812E+02  0.00000000000E+00 0.  1.
         11    1    3    3    0    0  0.43454290581E+00  0.21116817186E+02 -0.22478156372E+01  0.21240561928E+02  0.51100000000E-03 0.  1.
        -11    1    3    3    0    0  0.51344219018E+01  0.12334924677E+01 -0.18924693248E+02  0.19647590354E+02  0.51100000000E-03 0. -1.
        -12    1    3    3    0    0 -0.39311026440E+00  0.58677491618E+01 -0.76392522656E+01  0.96407049059E+01  0.00000000000E+00 0.  1.
</event>
<event>
 7    1  0.4963616E-011  0.5052885E+02  0.7816164E-02  0.1300439E+00
        -11   -1    0    0    0    0  0.00000000000E+00  0.00000000000E+00  0.45593999997E+02  0.45594000000E+02  0.51100000000E-03 0. -1.
         11   -1    0    0    0    0 -0.00000000000E+00 -0.00000000000E+00 -0.45593999997E+02  0.45594000000E+02  0.51100000000E-03 0.  1.
    9900012    2    1    2    0    0 -0.24938627246E+02 -0.57917482104E+01  0.31586179285E+02  0.50528853452E+02  0.29999980551E+02 0.  0.
        -12    1    1    2    0    0  0.24938627246E+02  0.57917482104E+01 -0.31586179285E+02  0.40659146548E+02  0.00000000000E+00 0.  1.
         11    1    3    3    0    0 -0.27547589544E+02 -0.87578501701E+01  0.24561587243E+02  0.37932060285E+02  0.51100000000E-03 0.  1.
        -11    1    3    3    0    0  0.32932569915E+01 -0.16409163363E+01  0.70351308298E+01  0.79392199924E+01  0.51100000000E-03 0. -1.
        -12    1    3    3    0    0 -0.68429469329E+00  0.46070182961E+01 -0.10538788208E-01  0.46575731743E+01  0.00000000000E+00 0.  1.
</event>
<event>
 7    1  0.4963616E-011  0.5052885E+02  0.7816164E-02  0.1300439E+00
        -11   -1    0    0    0    0  0.00000000000E+00  0.00000000000E+00  0.45593999997E+02  0.45594000000E+02  0.51100000000E-03 0.  1.
         11   -1    0    0    0    0 -0.00000000000E+00 -0.00000000000E+00 -0.45593999997E+02  0.45594000000E+02  0.51100000000E-03 0. -1.
    9900012    2    1    2    0    0  0.33209258722E+01  0.34419153158E+02 -0.21388312355E+02  0.50528849023E+02  0.29999967091E+02 0.  0.
        -12    1    1    2    0    0 -0.33209258722E+01 -0.34419153158E+02  0.21388312355E+02  0.40659150977E+02  0.00000000000E+00 0.  1.
         11    1    3    3    0    0 -0.31127518812E+01  0.19088295679E+02 -0.56126193440E+01  0.20138365186E+02  0.51100000000E-03 0. -1.
        -11    1    3    3    0    0  0.10671139061E+02  0.12281616286E+02 -0.18388205070E+02  0.24552747166E+02  0.51100000000E-03 0.  1.
        -12    1    3    3    0    0 -0.42374613079E+01  0.30492411928E+01  0.26125120582E+01  0.58377366712E+01  0.00000000000E+00 0.  1.
</event>
<event>
 7    1  0.4963616E-011  0.5052886E+02  0.7816164E-02  0.1300439E+00
        -11   -1    0    0    0    0  0.00000000000E+00  0.00000000000E+00  0.45593999997E+02  0.45594000000E+02  0.51100000000E-03 0. -1.
         11   -1    0    0    0    0 -0.00000000000E+00 -0.00000000000E+00 -0.45593999997E+02  0.45594000000E+02  0.51100000000E-03 0.  1.
    9900012    2    1    2    0    0  0.29493184260E+02 -0.27243763863E+02  0.64105428186E+01  0.50528860235E+02  0.30000001169E+02 0.  0.
        -12    1    1    2    0    0 -0.29493184260E+02  0.27243763863E+02 -0.64105428186E+01  0.40659139765E+02  0.00000000000E+00 0.  1.
         11    1    3    3    0    0 -0.19853060493E+01 -0.11318678123E+02 -0.29358531160E+00  0.11495221057E+02  0.51100000000E-03 0.  1.
        -11    1    3    3    0    0  0.29666983053E+02 -0.18653206653E+02  0.51912186253E+01  0.35426272073E+02  0.51100000000E-03 0. -1.
        -12    1    3    3    0    0  0.18115072565E+01  0.27281209130E+01  0.15129095049E+01  0.36073671044E+01  0.00000000000E+00 0.  1.
</event>
<event>
 7    1  0.4963616E-011  0.5052885E+02  0.7816164E-02  0.1300439E+00
        -11   -1    0    0    0    0  0.00000000000E+00  0.00000000000E+00  0.45593999997E+02  0.45594000000E+02  0.51100000000E-03 0.  1.
         11   -1    0    0    0    0 -0.00000000000E+00 -0.00000000000E+00 -0.45593999997E+02  0.45594000000E+02  0.51100000000E-03 0. -1.
    9900012    2    1    2    0    0 -0.38728408524E+02 -0.87113637504E+01 -0.87970847409E+01  0.50528853610E+02  0.29999981034E+02 0.  0.
        -12    1    1    2    0    0  0.38728408524E+02  0.87113637504E+01  0.87970847409E+01  0.40659146390E+02  0.00000000000E+00 0.  1.
         11    1    3    3    0    0 -0.39808801760E+01  0.32760075344E+01 -0.12076547085E+02  0.13130979480E+02  0.51100000000E-03 0. -1.
        -11    1    3    3    0    0 -0.13965487668E+02 -0.52600132220E+01  0.42996753938E+01  0.15530286335E+02  0.51100000000E-03 0.  1.
         12    1    3    3    0    0 -0.20782040680E+02 -0.67273580629E+01 -0.10202130501E+01  0.21867587796E+02  0.00000000000E+00 0. -1.
</event>
<event>
 7    1  0.4963616E-011  0.5052886E+02  0.7816164E-02  0.1300439E+00
        -11   -1    0    0    0    0  0.00000000000E+00  0.00000000000E+00  0.45593999997E+02  0.45594000000E+02  0.51100000000E-03 0.  1.
         11   -1    0    0    0    0 -0.00000000000E+00 -0.00000000000E+00 -0.45593999997E+02  0.45594000000E+02  0.51100000000E-03 0. -1.
    9900012    2    1    2    0    0  0.20706591460E+01  0.39556777561E+02  0.91727373645E+01  0.50528863376E+02  0.30000010717E+02 0.  0.
        -12    1    1    2    0    0 -0.20706591460E+01 -0.39556777561E+02 -0.91727373645E+01  0.40659136624E+02  0.00000000000E+00 0.  1.
         11    1    3    3    0    0  0.36754056870E+01  0.22667582861E+02 -0.31845376541E+01  0.23183381980E+02  0.51100000000E-03 0. -1.
        -11    1    3    3    0    0 -0.60215549132E+01 -0.32904593065E+00  0.58904379095E+01  0.84299853988E+01  0.51100000000E-03 0.  1.
         12    1    3    3    0    0  0.44168083721E+01  0.17218240631E+02  0.64668371091E+01  0.18915495997E+02  0.00000000000E+00 0. -1.
</event>
<event>
 7    1  0.4963616E-011  0.5052887E+02  0.7816164E-02  0.1300439E+00
        -11   -1    0    0    0    0  0.00000000000E+00  0.00000000000E+00  0.45593999997E+02  0.45594000000E+02  0.51100000000E-03 0.  1.
         11   -1    0    0    0    0 -0.00000000000E+00 -0.00000000000E+00 -0.45593999997E+02  0.45594000000E+02  0.51100000000E-03 0. -1.
    9900012    2    1    2    0    0  0.40176744653E+02 -0.62285566122E+01 -0.44607933372E+00  0.50528871687E+02  0.30000035981E+02 0.  0.
        -12    1    1    2    0    0 -0.40176744653E+02  0.62285566122E+01  0.44607933372E+00  0.40659128313E+02  0.00000000000E+00 0.  1.
         11    1    3    3    0    0  0.14070532792E+02 -0.78690714068E+01 -0.32924509971E+01  0.16454252085E+02  0.51100000000E-03 0. -1.
        -11    1    3    3    0    0 -0.12242355528E+01 -0.56519947541E+00  0.62963520782E+01  0.64391189528E+01  0.51100000000E-03 0.  1.
        -12    1    3    3    0    0  0.27330447414E+02  0.22057142700E+01 -0.34499804148E+01  0.27635500649E+02  0.00000000000E+00 0.  1.
</event>
<event>
 7    1  0.4963616E-011  0.5052885E+02  0.7816164E-02  0.1300439E+00
        -11   -1    0    0    0    0  0.00000000000E+00  0.00000000000E+00  0.45593999997E+02  0.45594000000E+02  0.51100000000E-03 0.  1.
         11   -1    0    0    0    0 -0.00000000000E+00 -0.00000000000E+00 -0.45593999997E+02  0.45594000000E+02  0.51100000000E-03 0. -1.
    9900012    2    1    2    0    0 -0.39415474601E+02  0.15133356956E+01 -0.98639021903E+01  0.50528851099E+02  0.29999973401E+02 0.  0.
        -12    1    1    2    0    0  0.39415474601E+02 -0.15133356956E+01  0.98639021903E+01  0.40659148901E+02  0.00000000000E+00 0.  1.
         11    1    3    3    0    0 -0.84557872952E+01 -0.30247533979E+01 -0.12364202838E+02  0.15281458831E+02  0.51100000000E-03 0. -1.
        -11    1    3    3    0    0 -0.31377700435E+02  0.30382141893E+01  0.53737695485E+01  0.31979184315E+02  0.51100000000E-03 0.  1.
        -12    1    3    3    0    0  0.41801312946E+00  0.14998749042E+01 -0.28734689005E+01  0.32682079534E+01  0.00000000000E+00 0.  1.
</event>
<event>
 7    1  0.4963616E-011  0.5052887E+02  0.7816164E-02  0.1300439E+00
        -11   -1    0    0    0    0  0.00000000000E+00  0.00000000000E+00  0.45593999997E+02  0.45594000000E+02  0.51100000000E-03 0.  1.
         11   -1    0    0    0    0 -0.00000000000E+00 -0.00000000000E+00 -0.45593999997E+02  0.45594000000E+02  0.51100000000E-03 0. -1.
    9900012    2    1    2    0    0 -0.21453475951E+02  0.31764514687E+02 -0.13562042567E+02  0.50528867911E+02  0.30000024502E+02 0.  0.
        -12    1    1    2    0    0  0.21453475951E+02 -0.31764514687E+02  0.13562042567E+02  0.40659132089E+02  0.00000000000E+00 0.  1.
         11    1    3    3    0    0 -0.17265317838E+02  0.17237267982E+02 -0.42528927877E+01  0.24764928929E+02  0.51100000000E-03 0. -1.
        -11    1    3    3    0    0 -0.20305048944E+00  0.86519503401E+01 -0.14557198245E+02  0.16935450841E+02  0.51100000000E-03 0.  1.
         12    1    3    3    0    0 -0.39851076232E+01  0.58752963645E+01  0.52480484661E+01  0.88284881403E+01  0.00000000000E+00 0. -1.
</event>
<event>
 7    1  0.4963616E-011  0.5052886E+02  0.7816164E-02  0.1300439E+00
        -11   -1    0    0    0    0  0.00000000000E+00  0.00000000000E+00  0.45593999997E+02  0.45594000000E+02  0.51100000000E-03 0. -1.
         11   -1    0    0    0    0 -0.00000000000E+00 -0.00000000000E+00 -0.45593999997E+02  0.45594000000E+02  0.51100000000E-03 0.  1.
    9900012    2    1    2    0    0 -0.38747294993E+01 -0.21120690744E+02  0.34526346954E+02  0.50528859082E+02  0.29999997665E+02 0.  0.
        -12    1    1    2    0    0  0.38747294993E+01  0.21120690744E+02 -0.34526346954E+02  0.40659140918E+02  0.00000000000E+00 0.  1.
         11    1    3    3    0    0  0.12065662332E+02 -0.92005008270E+01  0.13140410337E+02  0.20072364262E+02  0.51100000000E-03 0. -1.
        -11    1    3    3    0    0 -0.63453319056E+01 -0.80394675090E+01  0.58686823229E+01  0.11804139413E+02  0.51100000000E-03 0.  1.
         12    1    3    3    0    0 -0.95950599258E+01 -0.38807224082E+01  0.15517254294E+02  0.18652355407E+02  0.00000000000E+00 0. -1.
</event>
<event>
 7    1  0.4963616E-011  0.5052886E+02  0.7816164E-02  0.1300439E+00
        -11   -1    0    0    0    0  0.00000000000E+00  0.00000000000E+00  0.45593999997E+02  0.45594000000E+02  0.51100000000E-03 0.  1.
         11   -1    0    0    0    0 -0.00000000000E+00 -0.00000000000E+00 -0.45593999997E+02  0.45594000000E+02  0.51100000000E-03 0. -1.
    9900012    2    1    2    0    0  0.25505363279E+02 -0.12339884472E+02 -0.29161090288E+02  0.50528862140E+02  0.30000006961E+02 0.  0.
        -12    1    1    2    0    0 -0.25505363279E+02  0.12339884472E+02  0.29161090288E+02  0.40659137860E+02  0.00000000000E+00 0.  1.
         11    1    3    3    0    0  0.12796582244E+02  0.92968591530E+00 -0.29461669857E+02  0.32134200224E+02  0.51100000000E-03 0. -1.
        -11    1    3    3    0    0  0.75482699555E+01 -0.73029548976E+01  0.25022470483E+00  0.10505814686E+02  0.51100000000E-03 0.  1.
         12    1    3    3    0    0  0.51605110790E+01 -0.59666154894E+01  0.50354864596E-01  0.78888472293E+01  0.00000000000E+00 0. -1.
</event>
<event>
 7    1  0.4963616E-011  0.5052882E+02  0.7816164E-02  0.1300439E+00
        -11   -1    0    0    0    0  0.00000000000E+00  0.00000000000E+00  0.45593999997E+02  0.45594000000E+02  0.51100000000E-03 0.  1.
         11   -1    0    0    0    0 -0.00000000000E+00 -0.00000000000E+00 -0.45593999997E+02  0.45594000000E+02  0.51100000000E-03 0. -1.
    9900012    2    1    2    0    0  0.30838804465E+02  0.22832631936E+02 -0.13446497580E+02  0.50528816054E+02  0.29999866878E+02 0.  0.
        -12    1    1    2    0    0 -0.30838804465E+02 -0.22832631936E+02  0.13446497580E+02  0.40659183946E+02  0.00000000000E+00 0.  1.
         11    1    3    3    0    0  0.99566125019E+01  0.11037487630E+02 -0.61359203546E+01  0.16081348966E+02  0.51100000000E-03 0. -1.
        -11    1    3    3    0    0  0.57684398581E+01 -0.56741779295E+01  0.36531012274E+01  0.88778568591E+01  0.51100000000E-03 0.  1.
        -12    1    3    3    0    0  0.15113752105E+02  0.17469322235E+02 -0.10963678452E+02  0.25569610229E+02  0.00000000000E+00 0.  1.
</event>
<event>
 7    1  0.4963616E-011  0.5052886E+02  0.7816164E-02  0.1300439E+00
        -11   -1    0    0    0    0  0.00000000000E+00  0.00000000000E+00  0.45593999997E+02  0.45594000000E+02  0.51100000000E-03 0. -1.
         11   -1    0    0    0    0 -0.00000000000E+00 -0.00000000000E+00 -0.45593999997E+02  0.45594000000E+02  0.51100000000E-03 0.  1.
    9900012    2    1    2    0    0 -0.24863734991E+02 -0.18776575694E+02  0.26122794503E+02  0.50528861972E+02  0.30000006451E+02 0.  0.
        -12    1    1    2    0    0  0.24863734991E+02  0.18776575694E+02 -0.26122794503E+02  0.40659138028E+02  0.00000000000E+00 0.  1.
         11    1    3    3    0    0  0.15289067656E+00 -0.38670325598E+01  0.18047808685E+02  0.18458079937E+02  0.51100000000E-03 0. -1.
        -11    1    3    3    0    0 -0.60195926534E+01  0.20540908836E+00 -0.10917690077E+01  0.61212456603E+01  0.51100000000E-03 0.  1.
         12    1    3    3    0    0 -0.18997033015E+02 -0.15114952222E+02  0.91667548260E+01  0.25949536375E+02  0.00000000000E+00 0. -1.
</event>
<event>
 7    1  0.4963616E-011  0.5052885E+02  0.7816164E-02  0.1300439E+00
        -11   -1    0    0    0    0  0.00000000000E+00  0.00000000000E+00  0.45593999997E+02  0.45594000000E+02  0.51100000000E-03 0. -1.
         11   -1    0    0    0    0 -0.00000000000E+00 -0.00000000000E+00 -0.45593999997E+02  0.45594000000E+02  0.51100000000E-03 0.  1.
    9900012    2    1    2    0    0  0.35243060298E+02 -0.43957393734E+01  0.19793199898E+02  0.50528848681E+02  0.29999966050E+02 0.  0.
        -12    1    1    2    0    0 -0.35243060298E+02  0.43957393734E+01 -0.19793199898E+02  0.40659151319E+02  0.00000000000E+00 0.  1.
         11    1    3    3    0    0  0.99263714964E+01 -0.13172825648E+02  0.53072720707E+01  0.17326953677E+02  0.51100000000E-03 0. -1.
        -11    1    3    3    0    0  0.23270098414E+02  0.86437822807E+01  0.16902927969E+02  0.30032006701E+02  0.51100000000E-03 0.  1.
        -12    1    3    3    0    0  0.20465903874E+01  0.13330399367E+00 -0.24170001416E+01  0.31698883029E+01  0.00000000000E+00 0.  1.
</event>
<event>
 7    1  0.4963616E-011  0.5052898E+02  0.7816164E-02  0.1300438E+00
        -11   -1    0    0    0    0  0.00000000000E+00  0.00000000000E+00  0.45593999997E+02  0.45594000000E+02  0.51100000000E-03 0. -1.
         11   -1    0    0    0    0 -0.00000000000E+00 -0.00000000000E+00 -0.45593999997E+02  0.45594000000E+02  0.51100000000E-03 0.  1.
    9900012    2    1    2    0    0 -0.20405914537E+02 -0.18699216777E+02  0.29784126494E+02  0.50528975821E+02  0.30000352503E+02 0.  0.
        -12    1    1    2    0    0  0.20405914537E+02  0.18699216777E+02 -0.29784126494E+02  0.40659024179E+02  0.00000000000E+00 0.  1.
         11    1    3    3    0    0 -0.64694708453E+01  0.52284081842E+00  0.10357145653E+02  0.12222842627E+02  0.51100000000E-03 0. -1.
        -11    1    3    3    0    0 -0.15095087691E+02 -0.23826917449E+02  0.15790882581E+02  0.32325464273E+02  0.51100000000E-03 0.  1.
        -12    1    3    3    0    0  0.11586439994E+01  0.46048598534E+01  0.36360982605E+01  0.59806689214E+01  0.00000000000E+00 0.  1.
</event>
<event>
 7    1  0.4963616E-011  0.5052886E+02  0.7816164E-02  0.1300439E+00
        -11   -1    0    0    0    0  0.00000000000E+00  0.00000000000E+00  0.45593999997E+02  0.45594000000E+02  0.51100000000E-03 0.  1.
         11   -1    0    0    0    0 -0.00000000000E+00 -0.00000000000E+00 -0.45593999997E+02  0.45594000000E+02  0.51100000000E-03 0. -1.
    9900012    2    1    2    0    0 -0.16646021852E+02 -0.35259234320E+02 -0.11526593390E+02  0.50528855843E+02  0.29999987822E+02 0.  0.
        -12    1    1    2    0    0  0.16646021852E+02  0.35259234320E+02  0.11526593390E+02  0.40659144157E+02  0.00000000000E+00 0.  1.
         11    1    3    3    0    0 -0.32786048511E+01 -0.17829548912E+02  0.70680522582E+01  0.19457631592E+02  0.51100000000E-03 0. -1.
        -11    1    3    3    0    0 -0.77239497919E+01 -0.16462551670E+02 -0.17508718468E+02  0.25243419549E+02  0.51100000000E-03 0.  1.
        -12    1    3    3    0    0 -0.56434672093E+01 -0.96713373851E+00 -0.10859271801E+01  0.58278047026E+01  0.00000000000E+00 0.  1.
</event>
<event>
 7    1  0.4963616E-011  0.5052886E+02  0.7816164E-02  0.1300439E+00
        -11   -1    0    0    0    0  0.00000000000E+00  0.00000000000E+00  0.45593999997E+02  0.45594000000E+02  0.51100000000E-03 0. -1.
         11   -1    0    0    0    0 -0.00000000000E+00 -0.00000000000E+00 -0.45593999997E+02  0.45594000000E+02  0.51100000000E-03 0.  1.
    9900012    2    1    2    0    0 -0.22704821334E+02 -0.32647922824E+02  0.84717003828E+01  0.50528862233E+02  0.30000007244E+02 0.  0.
        -12    1    1    2    0    0  0.22704821334E+02  0.32647922824E+02 -0.84717003828E+01  0.40659137767E+02  0.00000000000E+00 0.  1.
         11    1    3    3    0    0 -0.15448023248E+02 -0.13660978927E+02  0.12274671912E+02  0.23998569506E+02  0.51100000000E-03 0. -1.
        -11    1    3    3    0    0  0.31497067767E+01 -0.28438682025E+01 -0.58366764714E+01  0.72163031827E+01  0.51100000000E-03 0.  1.
        -12    1    3    3    0    0 -0.10406504862E+02 -0.16143075695E+02  0.20337049427E+01  0.19313989545E+02  0.00000000000E+00 0.  1.
</event>
<event>
 7    1  0.4963616E-011  0.5052885E+02  0.7816164E-02  0.1300439E+00
        -11   -1    0    0    0    0  0.00000000000E+00  0.00000000000E+00  0.45593999997E+02  0.45594000000E+02  0.51100000000E-03 0.  1.
         11   -1    0    0    0    0 -0.00000000000E+00 -0.00000000000E+00 -0.45593999997E+02  0.45594000000E+02  0.51100000000E-03 0. -1.
    9900012    2    1    2    0    0  0.37950163286E+02  0.18266550620E+01 -0.14478078729E+02  0.50528851880E+02  0.29999975776E+02 0.  0.
        -12    1    1    2    0    0 -0.37950163286E+02 -0.18266550620E+01  0.14478078729E+02  0.40659148120E+02  0.00000000000E+00 0.  1.
         11    1    3    3    0    0  0.19457223123E+02 -0.94200421919E+01  0.39819097492E+01  0.21981272303E+02  0.51100000000E-03 0. -1.
        -11    1    3    3    0    0  0.76049049713E+01  0.51212219024E+01 -0.92739485662E+01  0.13040997495E+02  0.51100000000E-03 0.  1.
         12    1    3    3    0    0  0.10888035191E+02  0.61254753515E+01 -0.91860399117E+01  0.15506582082E+02  0.00000000000E+00 0. -1.
</event>
<event>
 7    1  0.4963616E-011  0.5052885E+02  0.7816164E-02  0.1300439E+00
        -11   -1    0    0    0    0  0.00000000000E+00  0.00000000000E+00  0.45593999997E+02  0.45594000000E+02  0.51100000000E-03 0.  1.
         11   -1    0    0    0    0 -0.00000000000E+00 -0.00000000000E+00 -0.45593999997E+02  0.45594000000E+02  0.51100000000E-03 0. -1.
    9900012    2    1    2    0    0  0.14440527230E+02 -0.37614861626E+02  0.54552724856E+01  0.50528848021E+02  0.29999964044E+02 0.  0.
        -12    1    1    2    0    0 -0.14440527230E+02  0.37614861626E+02 -0.54552724856E+01  0.40659151979E+02  0.00000000000E+00 0.  1.
         11    1    3    3    0    0 -0.24643056200E+01 -0.25332696790E+02 -0.46148638650E+01  0.25867263048E+02  0.51100000000E-03 0. -1.
        -11    1    3    3    0    0  0.11894640862E+02 -0.90796964595E+01  0.11093862371E+02  0.18627859555E+02  0.51100000000E-03 0.  1.
         12    1    3    3    0    0  0.50101919879E+01 -0.32024683765E+01 -0.10237260202E+01  0.60337254182E+01  0.00000000000E+00 0. -1.
</event>
<event>
 7    1  0.4963616E-011  0.5052886E+02  0.7816164E-02  0.1300439E+00
        -11   -1    0    0    0    0  0.00000000000E+00  0.00000000000E+00  0.45593999997E+02  0.45594000000E+02  0.51100000000E-03 0.  1.
         11   -1    0    0    0    0 -0.00000000000E+00 -0.00000000000E+00 -0.45593999997E+02  0.45594000000E+02  0.51100000000E-03 0. -1.
    9900012    2    1    2    0    0 -0.13214559317E+02 -0.15000610293E+02 -0.35405128742E+02  0.50528855538E+02  0.29999986894E+02 0.  0.
        -12    1    1    2    0    0  0.13214559317E+02  0.15000610293E+02  0.35405128742E+02  0.40659144462E+02  0.00000000000E+00 0.  1.
         11    1    3    3    0    0 -0.34352956611E+01 -0.13894578157E+02 -0.31231469567E+02  0.34354988721E+02  0.51100000000E-03 0. -1.
        -11    1    3    3    0    0 -0.12264851070E+02 -0.24099666547E+01 -0.46316167099E+01  0.13329905650E+02  0.51100000000E-03 0.  1.
        -12    1    3    3    0    0  0.24855874133E+01  0.13039345182E+01  0.45795753505E+00  0.28439611673E+01  0.00000000000E+00 0.  1.
</event>
<event>
 7    1  0.4963616E-011  0.5052886E+02  0.7816164E-02  0.1300439E+00
        -11   -1    0    0    0    0  0.00000000000E+00  0.00000000000E+00  0.45593999997E+02  0.45594000000E+02  0.51100000000E-03 0.  1.
         11   -1    0    0    0    0 -0.00000000000E+00 -0.00000000000E+00 -0.45593999997E+02  0.45594000000E+02  0.51100000000E-03 0. -1.
    9900012    2    1    2    0    0  0.33507024416E+01 -0.44689984106E+00 -0.40518373798E+02  0.50528861524E+02  0.30000005089E+02 0.  0.
        -12    1    1    2    0    0 -0.33507024416E+01  0.44689984106E+00  0.40518373798E+02  0.40659138476E+02  0.00000000000E+00 0.  1.
         11    1    3    3    0    0  0.52965864194E-01  0.10529157463E+01 -0.76031833671E+01  0.76759256463E+01  0.51100000000E-03 0. -1.
        -11    1    3    3    0    0  0.20951318138E+00 -0.12956854486E+02 -0.79278718375E+01  0.15191284543E+02  0.51100000000E-03 0.  1.
        -12    1    3    3    0    0  0.30882233960E+01  0.11457038898E+02 -0.24987318594E+02  0.27661651335E+02  0.00000000000E+00 0.  1.
</event>
<event>
 7    1  0.4963616E-011  0.5052885E+02  0.7816164E-02  0.1300439E+00
        -11   -1    0    0    0    0  0.00000000000E+00  0.00000000000E+00  0.45593999997E+02  0.45594000000E+02  0.51100000000E-03 0. -1.
         11   -1    0    0    0    0 -0.00000000000E+00 -0.00000000000E+00 -0.45593999997E+02  0.45594000000E+02  0.51100000000E-03 0.  1.
    9900012    2    1    2    0    0  0.23278860377E+01 -0.98098423865E+01  0.39389262976E+02  0.50528854671E+02  0.29999984259E+02 0.  0.
        -12    1    1    2    0    0 -0.23278860377E+01  0.98098423865E+01 -0.39389262976E+02  0.40659145329E+02  0.00000000000E+00 0.  1.
         11    1    3    3    0    0  0.10539531560E+02 -0.33909271687E+01  0.21333257378E+02  0.24035140590E+02  0.51100000000E-03 0. -1.
        -11    1    3    3    0    0 -0.65022354304E+01  0.35958848959E+00 -0.63026700288E+00  0.65425993481E+01  0.51100000000E-03 0.  1.
        -12    1    3    3    0    0 -0.17094100914E+01 -0.67785037074E+01  0.18686272601E+02  0.19951114733E+02  0.00000000000E+00 0.  1.
</event>
<event>
 7    1  0.4963616E-011  0.5052886E+02  0.7816164E-02  0.1300439E+00
        -11   -1    0    0    0    0  0.00000000000E+00  0.00000000000E+00  0.45593999997E+02  0.45594000000E+02  0.51100000000E-03 0.  1.
         11   -1    0    0    0    0 -0.00000000000E+00 -0.00000000000E+00 -0.45593999997E+02  0.45594000000E+02  0.51100000000E-03 0. -1.
    9900012    2    1    2    0    0  0.16780148970E+02  0.28469755569E+02 -0.23686812434E+02  0.50528862467E+02  0.30000007955E+02 0.  0.
        -12    1    1    2    0    0 -0.16780148970E+02 -0.28469755569E+02  0.23686812434E+02  0.40659137533E+02  0.00000000000E+00 0.  1.
         11    1    3    3    0    0 -0.22988338066E+01  0.21394890346E+02 -0.17414862177E+02  0.27682185512E+02  0.51100000000E-03 0. -1.
        -11    1    3    3    0    0  0.30759932952E+01 -0.17457326917E+01 -0.20657289912E+01  0.40959191776E+01  0.51100000000E-03 0.  1.
         12    1    3    3    0    0  0.16002989481E+02  0.88205979152E+01 -0.42062212656E+01  0.18750757778E+02  0.00000000000E+00 0. -1.
</event>
<event>
 7    1  0.4963616E-011  0.5052886E+02  0.7816164E-02  0.1300439E+00
        -11   -1    0    0    0    0  0.00000000000E+00  0.00000000000E+00  0.45593999997E+02  0.45594000000E+02  0.51100000000E-03 0. -1.
         11   -1    0    0    0    0 -0.00000000000E+00 -0.00000000000E+00 -0.45593999997E+02  0.45594000000E+02  0.51100000000E-03 0.  1.
    9900012    2    1    2    0    0 -0.32739199847E+02 -0.24059979912E+02 -0.15582441352E+01  0.50528856320E+02  0.29999989270E+02 0.  0.
        -12    1    1    2    0    0  0.32739199847E+02  0.24059979912E+02  0.15582441352E+01  0.40659143680E+02  0.00000000000E+00 0.  1.
         11    1    3    3    0    0 -0.91864492360E+01  0.23699587477E+01  0.94372636907E+01  0.13381685255E+02  0.51100000000E-03 0. -1.
        -11    1    3    3    0    0 -0.38547235146E+01 -0.55232333950E+01 -0.26129633316E+01  0.72244431026E+01  0.51100000000E-03 0.  1.
         12    1    3    3    0    0 -0.19698027097E+02 -0.20906705264E+02 -0.83825444943E+01  0.29922727963E+02  0.00000000000E+00 0. -1.
</event>
<event>
 7    1  0.4963616E-011  0.5052884E+02  0.7816164E-02  0.1300439E+00
        -11   -1    0    0    0    0  0.00000000000E+00  0.00000000000E+00  0.45593999997E+02  0.45594000000E+02  0.51100000000E-03 0. -1.
         11   -1    0    0    0    0 -0.00000000000E+00 -0.00000000000E+00 -0.45593999997E+02  0.45594000000E+02  0.51100000000E-03 0.  1.
    9900012    2    1    2    0    0  0.15618059288E+02  0.37240945531E+02 -0.47281400556E+01  0.50528842257E+02  0.29999946524E+02 0.  0.
        -12    1    1    2    0    0 -0.15618059288E+02 -0.37240945531E+02  0.47281400556E+01  0.40659157743E+02  0.00000000000E+00 0.  1.
         11    1    3    3    0    0  0.52484960760E+01  0.27569667722E+02 -0.58155271476E+01  0.28661012642E+02  0.51100000000E-03 0. -1.
        -11    1    3    3    0    0  0.36026144994E+01  0.55524648566E+01  0.86660881965E+01  0.10904576200E+02  0.51100000000E-03 0.  1.
         12    1    3    3    0    0  0.67669487127E+01  0.41188129522E+01 -0.75787011045E+01  0.10963253415E+02  0.00000000000E+00 0. -1.
</event>
<event>
 7    1  0.4963616E-011  0.5052886E+02  0.7816164E-02  0.1300439E+00
        -11   -1    0    0    0    0  0.00000000000E+00  0.00000000000E+00  0.45593999997E+02  0.45594000000E+02  0.51100000000E-03 0.  1.
         11   -1    0    0    0    0 -0.00000000000E+00 -0.00000000000E+00 -0.45593999997E+02  0.45594000000E+02  0.51100000000E-03 0. -1.
    9900012    2    1    2    0    0  0.17218438848E+02  0.26500348517E+02 -0.25581678669E+02  0.50528863371E+02  0.30000010701E+02 0.  0.
        -12    1    1    2    0    0 -0.17218438848E+02 -0.26500348517E+02  0.25581678669E+02  0.40659136629E+02  0.00000000000E+00 0.  1.
         11    1    3    3    0    0  0.34178621924E+01 -0.49766017886E+01 -0.10412322320E+02  0.12035979548E+02  0.51100000000E-03 0.  1.
        -11    1    3    3    0    0  0.13063957322E+02  0.20778222372E+02 -0.91426873834E+01  0.26191415363E+02  0.51100000000E-03 0. -1.
        -12    1    3    3    0    0  0.73661933408E+00  0.10698727934E+02 -0.60266689660E+01  0.12301468460E+02  0.00000000000E+00 0.  1.
</event>
<event>
 7    1  0.4963616E-011  0.5052884E+02  0.7816164E-02  0.1300439E+00
        -11   -1    0    0    0    0  0.00000000000E+00  0.00000000000E+00  0.45593999997E+02  0.45594000000E+02  0.51100000000E-03 0.  1.
         11   -1    0    0    0    0 -0.00000000000E+00 -0.00000000000E+00 -0.45593999997E+02  0.45594000000E+02  0.51100000000E-03 0. -1.
    9900012    2    1    2    0    0 -0.13152663563E+02 -0.25215510569E+02 -0.29057751787E+02  0.50528837798E+02  0.29999932971E+02 0.  0.
        -12    1    1    2    0    0  0.13152663563E+02  0.25215510569E+02  0.29057751787E+02  0.40659162202E+02  0.00000000000E+00 0.  1.
         11    1    3    3    0    0 -0.16582518846E+02 -0.16785927422E+02 -0.17236344620E+02  0.29220521330E+02  0.51100000000E-03 0. -1.
        -11    1    3    3    0    0  0.51327148899E+01 -0.29718362799E+00 -0.11938743596E+02  0.12998718366E+02  0.51100000000E-03 0.  1.
        -12    1    3    3    0    0 -0.17028596073E+01 -0.81323995191E+01  0.11733642899E+00  0.83095981021E+01  0.00000000000E+00 0.  1.
</event>
<event>
 7    1  0.4963616E-011  0.5052884E+02  0.7816164E-02  0.1300439E+00
        -11   -1    0    0    0    0  0.00000000000E+00  0.00000000000E+00  0.45593999997E+02  0.45594000000E+02  0.51100000000E-03 0. -1.
         11   -1    0    0    0    0 -0.00000000000E+00 -0.00000000000E+00 -0.45593999997E+02  0.45594000000E+02  0.51100000000E-03 0.  1.
    9900012    2    1    2    0    0 -0.37179883412E+02  0.16453910815E+02  0.30453145014E+00  0.50528835583E+02  0.29999926239E+02 0.  0.
        -12    1    1    2    0    0  0.37179883412E+02 -0.16453910815E+02 -0.30453145014E+00  0.40659164417E+02  0.00000000000E+00 0.  1.
         11    1    3    3    0    0 -0.18801454076E+02  0.17392660653E+02 -0.97973992312E+01  0.27422406020E+02  0.51100000000E-03 0. -1.
        -11    1    3    3    0    0 -0.87320120820E+01  0.22277180737E+01  0.92560822590E+01  0.12918429543E+02  0.51100000000E-03 0.  1.
         12    1    3    3    0    0 -0.96464172538E+01 -0.31664679109E+01  0.84584842227E+00  0.10188000021E+02  0.00000000000E+00 0. -1.
</event>
<event>
 7    1  0.4963616E-011  0.5052886E+02  0.7816164E-02  0.1300439E+00
        -11   -1    0    0    0    0  0.00000000000E+00  0.00000000000E+00  0.45593999997E+02  0.45594000000E+02  0.51100000000E-03 0.  1.
         11   -1    0    0    0    0 -0.00000000000E+00 -0.00000000000E+00 -0.45593999997E+02  0.45594000000E+02  0.51100000000E-03 0. -1.
    9900012    2    1    2    0    0  0.21444611654E+02 -0.32605238301E+01 -0.34389875770E+02  0.50528856624E+02  0.29999990193E+02 0.  0.
        -12    1    1    2    0    0 -0.21444611654E+02  0.32605238301E+01  0.34389875770E+02  0.40659143376E+02  0.00000000000E+00 0.  1.
         11    1    3    3    0    0  0.56037114833E+01  0.99214088996E+00 -0.23830631883E+02  0.24500713094E+02  0.51100000000E-03 0. -1.
        -11    1    3    3    0    0  0.30738661222E+01 -0.15626401017E+01  0.47777752222E+01  0.58921671191E+01  0.51100000000E-03 0.  1.
        -12    1    3    3    0    0  0.12767034049E+02 -0.26900246184E+01 -0.15337019109E+02  0.20135976410E+02  0.00000000000E+00 0.  1.
</event>
<event>
 7    1  0.4963616E-011  0.5052887E+02  0.7816164E-02  0.1300439E+00
        -11   -1    0    0    0    0  0.00000000000E+00  0.00000000000E+00  0.45593999997E+02  0.45594000000E+02  0.51100000000E-03 0.  1.
         11   -1    0    0    0    0 -0.00000000000E+00 -0.00000000000E+00 -0.45593999997E+02  0.45594000000E+02  0.51100000000E-03 0. -1.
    9900012    2    1    2    0    0 -0.24514743449E+02 -0.24611910689E+02 -0.21129275811E+02  0.50528867073E+02  0.30000021955E+02 0.  0.
        -12    1    1    2    0    0  0.24514743449E+02  0.24611910689E+02  0.21129275811E+02  0.40659132927E+02  0.00000000000E+00 0.  1.
         11    1    3    3    0    0 -0.11433590673E+02 -0.75470668602E+01 -0.13142869626E+02  0.18984736926E+02  0.51100000000E-03 0. -1.
        -11    1    3    3    0    0 -0.87977031659E+01 -0.12515366786E+02  0.58370957834E+01  0.16373932766E+02  0.51100000000E-03 0.  1.
        -12    1    3    3    0    0 -0.42834496096E+01 -0.45494770427E+01 -0.13823501968E+02  0.15170197381E+02  0.00000000000E+00 0.  1.
</event>
<event>
 7    1  0.4963616E-011  0.5052889E+02  0.7816164E-02  0.1300439E+00
        -11   -1    0    0    0    0  0.00000000000E+00  0.00000000000E+00  0.45593999997E+02  0.45594000000E+02  0.51100000000E-03 0.  1.
         11   -1    0    0    0    0 -0.00000000000E+00 -0.00000000000E+00 -0.45593999997E+02  0.45594000000E+02  0.51100000000E-03 0. -1.
    9900012    2    1    2    0    0 -0.18224557992E+02 -0.30412170801E+02 -0.19902982018E+02  0.50528888597E+02  0.30000087381E+02 0.  0.
        -12    1    1    2    0    0  0.18224557992E+02  0.30412170801E+02  0.19902982018E+02  0.40659111403E+02  0.00000000000E+00 0.  1.
         11    1    3    3    0    0  0.55363567687E+01 -0.58107315648E+01 -0.11946060083E+02  0.14391810149E+02  0.51100000000E-03 0. -1.
        -11    1    3    3    0    0 -0.17487179534E+02 -0.22516094379E+02 -0.76544969594E+01  0.29518930843E+02  0.51100000000E-03 0.  1.
        -12    1    3    3    0    0 -0.62737352261E+01 -0.20853448576E+01 -0.30242497512E+00  0.66181476055E+01  0.00000000000E+00 0.  1.
</event>
<event>
 7    1  0.4963616E-011  0.5052886E+02  0.7816164E-02  0.1300439E+00
        -11   -1    0    0    0    0  0.00000000000E+00  0.00000000000E+00  0.45593999997E+02  0.45594000000E+02  0.51100000000E-03 0.  1.
         11   -1    0    0    0    0 -0.00000000000E+00 -0.00000000000E+00 -0.45593999997E+02  0.45594000000E+02  0.51100000000E-03 0. -1.
    9900012    2    1    2    0    0 -0.10736638096E+02  0.13641366749E+02 -0.36766882156E+02  0.50528857020E+02  0.29999991398E+02 0.  0.
        -12    1    1    2    0    0  0.10736638096E+02 -0.13641366749E+02  0.36766882156E+02  0.40659142980E+02  0.00000000000E+00 0.  1.
         11    1    3    3    0    0 -0.10702249200E+02  0.14519715117E+02 -0.13365498703E+02  0.22449873516E+02  0.51100000000E-03 0. -1.
        -11    1    3    3    0    0  0.27318126943E+01 -0.76005696315E+01 -0.14385439091E+02  0.16497645814E+02  0.51100000000E-03 0.  1.
        -12    1    3    3    0    0 -0.27662015904E+01  0.67222212637E+01 -0.90159443616E+01  0.11581337690E+02  0.00000000000E+00 0.  1.
</event>
<event>
 7    1  0.4963616E-011  0.5052887E+02  0.7816164E-02  0.1300439E+00
        -11   -1    0    0    0    0  0.00000000000E+00  0.00000000000E+00  0.45593999997E+02  0.45594000000E+02  0.51100000000E-03 0.  1.
         11   -1    0    0    0    0 -0.00000000000E+00 -0.00000000000E+00 -0.45593999997E+02  0.45594000000E+02  0.51100000000E-03 0. -1.
    9900012    2    1    2    0    0 -0.20548190981E+02  0.22610979852E+02 -0.26826857472E+02  0.50528870099E+02  0.30000031154E+02 0.  0.
        -12    1    1    2    0    0  0.20548190981E+02 -0.22610979852E+02  0.26826857472E+02  0.40659129901E+02  0.00000000000E+00 0.  1.
         11    1    3    3    0    0 -0.11475000451E+02 -0.38535737398E+01 -0.11263992583E+02  0.16534908378E+02  0.51100000000E-03 0. -1.
        -11    1    3    3    0    0 -0.10130029480E+02  0.20341765484E+02 -0.77458125754E+01  0.24008384639E+02  0.51100000000E-03 0.  1.
         12    1    3    3    0    0  0.10568389499E+01  0.61227881080E+01 -0.78170523141E+01  0.99855770822E+01  0.00000000000E+00 0. -1.
</event>
<event>
 7    1  0.4963616E-011  0.5052885E+02  0.7816164E-02  0.1300439E+00
        -11   -1    0    0    0    0  0.00000000000E+00  0.00000000000E+00  0.45593999997E+02  0.45594000000E+02  0.51100000000E-03 0.  1.
         11   -1    0    0    0    0 -0.00000000000E+00 -0.00000000000E+00 -0.45593999997E+02  0.45594000000E+02  0.51100000000E-03 0. -1.
    9900012    2    1    2    0    0 -0.14443536828E+02  0.11549597376E+02 -0.36209910252E+02  0.50528849048E+02  0.29999967167E+02 0.  0.
        -12    1    1    2    0    0  0.14443536828E+02 -0.11549597376E+02  0.36209910252E+02  0.40659150952E+02  0.00000000000E+00 0.  1.
         11    1    3    3    0    0  0.22480922755E+01  0.11056234876E+02 -0.27555551935E+02  0.29775874315E+02  0.51100000000E-03 0. -1.
        -11    1    3    3    0    0 -0.74147119782E+01 -0.23252662687E+01 -0.21218083180E-01  0.77707958027E+01  0.51100000000E-03 0.  1.
        -12    1    3    3    0    0 -0.92769171253E+01  0.28186287687E+01 -0.86331402336E+01  0.12982178930E+02  0.00000000000E+00 0.  1.
</event>
<event>
 7    1  0.4963616E-011  0.5052888E+02  0.7816164E-02  0.1300439E+00
        -11   -1    0    0    0    0  0.00000000000E+00  0.00000000000E+00  0.45593999997E+02  0.45594000000E+02  0.51100000000E-03 0.  1.
         11   -1    0    0    0    0 -0.00000000000E+00 -0.00000000000E+00 -0.45593999997E+02  0.45594000000E+02  0.51100000000E-03 0. -1.
    9900012    2    1    2    0    0  0.22467121289E+02 -0.21943388200E+02 -0.25824030491E+02  0.50528875864E+02  0.30000048676E+02 0.  0.
        -12    1    1    2    0    0 -0.22467121289E+02  0.21943388200E+02  0.25824030491E+02  0.40659124136E+02  0.00000000000E+00 0.  1.
         11    1    3    3    0    0  0.23075834306E+02 -0.90236030170E+01 -0.10789994803E+02  0.27024868704E+02  0.51100000000E-03 0. -1.
        -11    1    3    3    0    0 -0.39565875679E+01 -0.34703328056E+01  0.20076186019E+00  0.52666973095E+01  0.51100000000E-03 0.  1.
        -12    1    3    3    0    0  0.33478745504E+01 -0.94494523773E+01 -0.15234797549E+02  0.18237309851E+02  0.00000000000E+00 0.  1.
</event>
<event>
 7    1  0.4963616E-011  0.5052885E+02  0.7816164E-02  0.1300439E+00
        -11   -1    0    0    0    0  0.00000000000E+00  0.00000000000E+00  0.45593999997E+02  0.45594000000E+02  0.51100000000E-03 0.  1.
         11   -1    0    0    0    0 -0.00000000000E+00 -0.00000000000E+00 -0.45593999997E+02  0.45594000000E+02  0.51100000000E-03 0. -1.
    9900012    2    1    2    0    0  0.21521009698E+02  0.23219911070E+02  0.25511733585E+02  0.50528847537E+02  0.29999962573E+02 0.  0.
        -12    1    1    2    0    0 -0.21521009698E+02 -0.23219911070E+02 -0.25511733585E+02  0.40659152463E+02  0.00000000000E+00 0.  1.
         11    1    3    3    0    0  0.38439660702E+01 -0.14001505792E+01  0.11803914979E+02  0.12492754135E+02  0.51100000000E-03 0. -1.
        -11    1    3    3    0    0  0.20390536942E+01  0.18231511754E+02  0.49154406621E+01  0.18992296280E+02  0.51100000000E-03 0.  1.
         12    1    3    3    0    0  0.15637989933E+02  0.63885498954E+01  0.87923779443E+01  0.19043797122E+02  0.00000000000E+00 0. -1.
</event>
<event>
 7    1  0.4963616E-011  0.5052889E+02  0.7816164E-02  0.1300439E+00
        -11   -1    0    0    0    0  0.00000000000E+00  0.00000000000E+00  0.45593999997E+02  0.45594000000E+02  0.51100000000E-03 0.  1.
         11   -1    0    0    0    0 -0.00000000000E+00 -0.00000000000E+00 -0.45593999997E+02  0.45594000000E+02  0.51100000000E-03 0. -1.
    9900012    2    1    2    0    0  0.35142957333E+02  0.55748837163E+01 -0.19673744376E+02  0.50528892824E+02  0.30000100228E+02 0.  0.
        -12    1    1    2    0    0 -0.35142957333E+02 -0.55748837163E+01  0.19673744376E+02  0.40659107176E+02  0.00000000000E+00 0.  1.
         11    1    3    3    0    0  0.67101188680E+01  0.13816079492E+02 -0.54847356244E+01  0.16309263407E+02  0.51100000000E-03 0.  1.
        -11    1    3    3    0    0  0.66004868042E+01 -0.40972196785E+01  0.15473061554E+00  0.77703009575E+01  0.51100000000E-03 0. -1.
         12    1    3    3    0    0  0.21832351661E+02 -0.41439760971E+01 -0.14343739367E+02  0.26449328460E+02  0.00000000000E+00 0. -1.
</event>
<event>
 7    1  0.4963616E-011  0.5052886E+02  0.7816164E-02  0.1300439E+00
        -11   -1    0    0    0    0  0.00000000000E+00  0.00000000000E+00  0.45593999997E+02  0.45594000000E+02  0.51100000000E-03 0.  1.
         11   -1    0    0    0    0 -0.00000000000E+00 -0.00000000000E+00 -0.45593999997E+02  0.45594000000E+02  0.51100000000E-03 0. -1.
    9900012    2    1    2    0    0  0.31178986956E+02  0.71799003407E+01 -0.25089555080E+02  0.50528856248E+02  0.29999989053E+02 0.  0.
        -12    1    1    2    0    0 -0.31178986956E+02 -0.71799003407E+01  0.25089555080E+02  0.40659143752E+02  0.00000000000E+00 0.  1.
         11    1    3    3    0    0  0.28823855232E+02  0.99184335380E+01 -0.26999514497E+02  0.40720556696E+02  0.51100000000E-03 0. -1.
        -11    1    3    3    0    0  0.53432376273E+01 -0.34287497989E+01  0.22204432275E+01  0.67258368931E+01  0.51100000000E-03 0.  1.
         12    1    3    3    0    0 -0.29881059040E+01  0.69021660162E+00 -0.31048381124E+00  0.30824626596E+01  0.00000000000E+00 0. -1.
</event>
<event>
 7    1  0.4963616E-011  0.5052887E+02  0.7816164E-02  0.1300439E+00
        -11   -1    0    0    0    0  0.00000000000E+00  0.00000000000E+00  0.45593999997E+02  0.45594000000E+02  0.51100000000E-03 0.  1.
         11   -1    0    0    0    0 -0.00000000000E+00 -0.00000000000E+00 -0.45593999997E+02  0.45594000000E+02  0.51100000000E-03 0. -1.
    9900012    2    1    2    0    0 -0.37559039358E+01 -0.29737220599E+02 -0.27472825233E+02  0.50528865361E+02  0.30000016750E+02 0.  0.
        -12    1    1    2    0    0  0.37559039358E+01  0.29737220599E+02  0.27472825233E+02  0.40659134639E+02  0.00000000000E+00 0.  1.
         11    1    3    3    0    0 -0.66668586800E+00 -0.16309450726E+01 -0.23137651512E+00  0.17770726573E+01  0.51100000000E-03 0.  1.
        -11    1    3    3    0    0 -0.69124774772E+01 -0.24340330040E+02 -0.32533511784E+02  0.41214844420E+02  0.51100000000E-03 0. -1.
        -12    1    3    3    0    0  0.38232594094E+01 -0.37659454870E+01  0.52920630665E+01  0.75369482832E+01  0.00000000000E+00 0.  1.
</event>
<event>
 7    1  0.4963616E-011  0.5052886E+02  0.7816164E-02  0.1300439E+00
        -11   -1    0    0    0    0  0.00000000000E+00  0.00000000000E+00  0.45593999997E+02  0.45594000000E+02  0.51100000000E-03 0.  1.
         11   -1    0    0    0    0 -0.00000000000E+00 -0.00000000000E+00 -0.45593999997E+02  0.45594000000E+02  0.51100000000E-03 0. -1.
    9900012    2    1    2    0    0 -0.37373693506E+02  0.11123902561E+02 -0.11516572978E+02  0.50528860466E+02  0.30000001872E+02 0.  0.
        -12    1    1    2    0    0  0.37373693506E+02 -0.11123902561E+02  0.11516572978E+02  0.40659139534E+02  0.00000000000E+00 0.  1.
         11    1    3    3    0    0 -0.66874155927E+01  0.13191591519E+02 -0.10758506263E+02  0.18288933030E+02  0.51100000000E-03 0. -1.
        -11    1    3    3    0    0 -0.12199681699E+02  0.38144096604E+00  0.42612650860E+01  0.12928113209E+02  0.51100000000E-03 0.  1.
         12    1    3    3    0    0 -0.18486596215E+02 -0.24491299236E+01 -0.50193318018E+01  0.19311814226E+02  0.00000000000E+00 0. -1.
</event>
<event>
 7    1  0.4963616E-011  0.5052885E+02  0.7816164E-02  0.1300439E+00
        -11   -1    0    0    0    0  0.00000000000E+00  0.00000000000E+00  0.45593999997E+02  0.45594000000E+02  0.51100000000E-03 0. -1.
         11   -1    0    0    0    0 -0.00000000000E+00 -0.00000000000E+00 -0.45593999997E+02  0.45594000000E+02  0.51100000000E-03 0.  1.
    9900012    2    1    2    0    0 -0.26425005711E+02  0.15094523541E+02  0.26963694332E+02  0.50528851217E+02  0.29999973758E+02 0.  0.
        -12    1    1    2    0    0  0.26425005711E+02 -0.15094523541E+02 -0.26963694332E+02  0.40659148783E+02  0.00000000000E+00 0.  1.
         11    1    3    3    0    0  0.81584255167E+00 -0.12427306236E+01  0.13051408697E+02  0.13135800231E+02  0.51100000000E-03 0.  1.
        -11    1    3    3    0    0 -0.24356321395E+02  0.16510511965E+02  0.16305754735E+02  0.33640823934E+02  0.51100000000E-03 0. -1.
        -12    1    3    3    0    0 -0.28845268678E+01 -0.17325780088E+00 -0.23934690994E+01  0.37522270515E+01  0.00000000000E+00 0.  1.
</event>
<event>
 7    1  0.4963616E-011  0.5052892E+02  0.7816164E-02  0.1300439E+00
        -11   -1    0    0    0    0  0.00000000000E+00  0.00000000000E+00  0.45593999997E+02  0.45594000000E+02  0.51100000000E-03 0. -1.
         11   -1    0    0    0    0 -0.00000000000E+00 -0.00000000000E+00 -0.45593999997E+02  0.45594000000E+02  0.51100000000E-03 0.  1.
    9900012    2    1    2    0    0  0.19343278788E+02 -0.35662184043E+02  0.26846522982E+01  0.50528915370E+02  0.30000168758E+02 0.  0.
        -12    1    1    2    0    0 -0.19343278788E+02  0.35662184043E+02 -0.26846522982E+01  0.40659084630E+02  0.00000000000E+00 0.  1.
         11    1    3    3    0    0 -0.60983027115E+01 -0.22877825847E+01  0.27964091277E+01  0.70882402179E+01  0.51100000000E-03 0.  1.
        -11    1    3    3    0    0  0.12501723163E+02 -0.11951572078E+02 -0.48630191418E+01  0.17966137944E+02  0.51100000000E-03 0. -1.
         12    1    3    3    0    0  0.12939858337E+02 -0.21422829380E+02  0.47512623123E+01  0.25474537208E+02  0.00000000000E+00 0. -1.
</event>
<event>
 7    1  0.4963616E-011  0.5052886E+02  0.7816164E-02  0.1300439E+00
        -11   -1    0    0    0    0  0.00000000000E+00  0.00000000000E+00  0.45593999997E+02  0.45594000000E+02  0.51100000000E-03 0.  1.
         11   -1    0    0    0    0 -0.00000000000E+00 -0.00000000000E+00 -0.45593999997E+02  0.45594000000E+02  0.51100000000E-03 0. -1.
    9900012    2    1    2    0    0  0.26947953934E+02  0.12559401304E+02 -0.27735080627E+02  0.50528862284E+02  0.30000007400E+02 0.  0.
        -12    1    1    2    0    0 -0.26947953934E+02 -0.12559401304E+02  0.27735080627E+02  0.40659137716E+02  0.00000000000E+00 0.  1.
         11    1    3    3    0    0 -0.36526502939E+01  0.10049220915E+02 -0.86628011777E+01  0.13761279725E+02  0.51100000000E-03 0. -1.
        -11    1    3    3    0    0  0.23275090040E+02  0.51809326669E+00 -0.17208812026E+02  0.28950672680E+02  0.51100000000E-03 0.  1.
         12    1    3    3    0    0  0.73255141885E+01  0.19920871230E+01 -0.18634674237E+01  0.78169098799E+01  0.00000000000E+00 0. -1.
</event>
<event>
 7    1  0.4963616E-011  0.5052886E+02  0.7816164E-02  0.1300439E+00
        -11   -1    0    0    0    0  0.00000000000E+00  0.00000000000E+00  0.45593999997E+02  0.45594000000E+02  0.51100000000E-03 0. -1.
         11   -1    0    0    0    0 -0.00000000000E+00 -0.00000000000E+00 -0.45593999997E+02  0.45594000000E+02  0.51100000000E-03 0.  1.
    9900012    2    1    2    0    0  0.30398787282E+01 -0.49782066442E+01  0.40238563014E+02  0.50528863788E+02  0.30000011969E+02 0.  0.
        -12    1    1    2    0    0 -0.30398787282E+01  0.49782066442E+01 -0.40238563014E+02  0.40659136212E+02  0.00000000000E+00 0.  1.
         11    1    3    3    0    0 -0.34507874683E+01  0.64757684438E+01  0.38188192739E+01  0.82720548836E+01  0.51100000000E-03 0. -1.
        -11    1    3    3    0    0  0.10223693267E+02 -0.18367035861E+01  0.23721644629E+02  0.25896212238E+02  0.51100000000E-03 0.  1.
         12    1    3    3    0    0 -0.37330270703E+01 -0.96172715019E+01  0.12698099111E+02  0.16360596666E+02  0.00000000000E+00 0. -1.
</event>
<event>
 7    1  0.4963616E-011  0.5052888E+02  0.7816164E-02  0.1300439E+00
        -11   -1    0    0    0    0  0.00000000000E+00  0.00000000000E+00  0.45593999997E+02  0.45594000000E+02  0.51100000000E-03 0.  1.
         11   -1    0    0    0    0 -0.00000000000E+00 -0.00000000000E+00 -0.45593999997E+02  0.45594000000E+02  0.51100000000E-03 0. -1.
    9900012    2    1    2    0    0  0.14120548863E+02  0.31663726317E+00 -0.38127076809E+02  0.50528878694E+02  0.30000057278E+02 0.  0.
        -12    1    1    2    0    0 -0.14120548863E+02 -0.31663726317E+00  0.38127076809E+02  0.40659121306E+02  0.00000000000E+00 0.  1.
         11    1    3    3    0    0  0.11794248022E+02  0.11248980778E+02 -0.13630656437E+02  0.21247085685E+02  0.51100000000E-03 0. -1.
        -11    1    3    3    0    0  0.56828251790E+01 -0.86450742907E+01 -0.10632619301E+02  0.14835241992E+02  0.51100000000E-03 0.  1.
        -12    1    3    3    0    0 -0.33565243381E+01 -0.22872692238E+01 -0.13863801071E+02  0.14446551017E+02  0.00000000000E+00 0.  1.
</event>
<event>
 7    1  0.4963616E-011  0.5052887E+02  0.7816164E-02  0.1300439E+00
        -11   -1    0    0    0    0  0.00000000000E+00  0.00000000000E+00  0.45593999997E+02  0.45594000000E+02  0.51100000000E-03 0.  1.
         11   -1    0    0    0    0 -0.00000000000E+00 -0.00000000000E+00 -0.45593999997E+02  0.45594000000E+02  0.51100000000E-03 0. -1.
    9900012    2    1    2    0    0  0.23862640436E+02  0.56414792889E+01 -0.32433212801E+02  0.50528865851E+02  0.30000018241E+02 0.  0.
        -12    1    1    2    0    0 -0.23862640436E+02 -0.56414792889E+01  0.32433212801E+02  0.40659134149E+02  0.00000000000E+00 0.  1.
         11    1    3    3    0    0  0.23995648229E+02 -0.11847570450E+01 -0.13411212418E+02  0.27514639775E+02  0.51100000000E-03 0. -1.
        -11    1    3    3    0    0 -0.14151191624E+01  0.84744073946E+01 -0.78148892519E+01  0.11614242860E+02  0.51100000000E-03 0.  1.
         12    1    3    3    0    0  0.12821113693E+01 -0.16481710607E+01 -0.11207111132E+02  0.11399983216E+02  0.00000000000E+00 0. -1.
</event>
<event>
 7    1  0.4963616E-011  0.5052883E+02  0.7816164E-02  0.1300439E+00
        -11   -1    0    0    0    0  0.00000000000E+00  0.00000000000E+00  0.45593999997E+02  0.45594000000E+02  0.51100000000E-03 0.  1.
         11   -1    0    0    0    0 -0.00000000000E+00 -0.00000000000E+00 -0.45593999997E+02  0.45594000000E+02  0.51100000000E-03 0. -1.
    9900012    2    1    2    0    0  0.10374724755E+02 -0.10511187703E+02 -0.37882029213E+02  0.50528829842E+02  0.29999908788E+02 0.  0.
        -12    1    1    2    0    0 -0.10374724755E+02  0.10511187703E+02  0.37882029213E+02  0.40659170158E+02  0.00000000000E+00 0.  1.
         11    1    3    3    0    0  0.74233080870E+00  0.59036342120E+01 -0.23030428335E+02  0.23786647126E+02  0.51100000000E-03 0. -1.
        -11    1    3    3    0    0  0.60681810549E+01 -0.66732218011E+01 -0.49904822924E+00  0.90334799450E+01  0.51100000000E-03 0.  1.
        -12    1    3    3    0    0  0.35642128911E+01 -0.97416001135E+01 -0.14352552648E+02  0.17708702771E+02  0.00000000000E+00 0.  1.
</event>
<event>
 7    1  0.4963616E-011  0.5052887E+02  0.7816164E-02  0.1300439E+00
        -11   -1    0    0    0    0  0.00000000000E+00  0.00000000000E+00  0.45593999997E+02  0.45594000000E+02  0.51100000000E-03 0.  1.
         11   -1    0    0    0    0 -0.00000000000E+00 -0.00000000000E+00 -0.45593999997E+02  0.45594000000E+02  0.51100000000E-03 0. -1.
    9900012    2    1    2    0    0 -0.27593680380E+02  0.25801103724E+02 -0.15035189767E+02  0.50528867181E+02  0.30000022282E+02 0.  0.
        -12    1    1    2    0    0  0.27593680380E+02 -0.25801103724E+02  0.15035189767E+02  0.40659132819E+02  0.00000000000E+00 0.  1.
         11    1    3    3    0    0 -0.32805981925E+01  0.15426196000E+02 -0.66360653332E+01  0.17110441575E+02  0.51100000000E-03 0. -1.
        -11    1    3    3    0    0 -0.25179534789E+02  0.35131498747E+01 -0.63371466692E+01  0.26201347721E+02  0.51100000000E-03 0.  1.
        -12    1    3    3    0    0  0.86645260089E+00  0.68617578492E+01 -0.20619777647E+01  0.72170778846E+01  0.00000000000E+00 0.  1.
</event>
<event>
 7    1  0.4963616E-011  0.5052886E+02  0.7816164E-02  0.1300439E+00
        -11   -1    0    0    0    0  0.00000000000E+00  0.00000000000E+00  0.45593999997E+02  0.45594000000E+02  0.51100000000E-03 0. -1.
         11   -1    0    0    0    0 -0.00000000000E+00 -0.00000000000E+00 -0.45593999997E+02  0.45594000000E+02  0.51100000000E-03 0.  1.
    9900012    2    1    2    0    0  0.17636491345E+02 -0.23722889566E+02  0.27916740880E+02  0.50528859113E+02  0.29999997758E+02 0.  0.
        -12    1    1    2    0    0 -0.17636491345E+02  0.23722889566E+02 -0.27916740880E+02  0.40659140887E+02  0.00000000000E+00 0.  1.
         11    1    3    3    0    0  0.10926409777E+02 -0.19691511835E+02  0.26769415086E+02  0.34982047585E+02  0.51100000000E-03 0. -1.
        -11    1    3    3    0    0  0.85583680485E+00 -0.76685832226E+01 -0.19983323962E+01  0.79707564199E+01  0.51100000000E-03 0.  1.
         12    1    3    3    0    0  0.58542447635E+01  0.36372054914E+01  0.31456581908E+01  0.75760551074E+01  0.00000000000E+00 0. -1.
</event>
<event>
 7    1  0.4963616E-011  0.5052886E+02  0.7816164E-02  0.1300439E+00
        -11   -1    0    0    0    0  0.00000000000E+00  0.00000000000E+00  0.45593999997E+02  0.45594000000E+02  0.51100000000E-03 0.  1.
         11   -1    0    0    0    0 -0.00000000000E+00 -0.00000000000E+00 -0.45593999997E+02  0.45594000000E+02  0.51100000000E-03 0. -1.
    9900012    2    1    2    0    0  0.34146899036E+02  0.10662181454E+01 -0.22045817182E+02  0.50528860928E+02  0.30000003276E+02 0.  0.
        -12    1    1    2    0    0 -0.34146899036E+02 -0.10662181454E+01  0.22045817182E+02  0.40659139072E+02  0.00000000000E+00 0.  1.
         11    1    3    3    0    0  0.21881503956E+02  0.19801810768E+01 -0.16858261829E+02  0.27693362465E+02  0.51100000000E-03 0. -1.
        -11    1    3    3    0    0  0.30973124384E+01 -0.78951774883E+01  0.26661402908E+01  0.88901898868E+01  0.51100000000E-03 0.  1.
         12    1    3    3    0    0  0.91680826417E+01  0.69812145569E+01 -0.78536956433E+01  0.13945308576E+02  0.00000000000E+00 0. -1.
</event>
<event>
 7    1  0.4963616E-011  0.5052887E+02  0.7816164E-02  0.1300439E+00
        -11   -1    0    0    0    0  0.00000000000E+00  0.00000000000E+00  0.45593999997E+02  0.45594000000E+02  0.51100000000E-03 0.  1.
         11   -1    0    0    0    0 -0.00000000000E+00 -0.00000000000E+00 -0.45593999997E+02  0.45594000000E+02  0.51100000000E-03 0. -1.
    9900012    2    1    2    0    0  0.12707408188E+02  0.33201024470E+01 -0.38479395013E+02  0.50528866418E+02  0.30000019963E+02 0.  0.
        -12    1    1    2    0    0 -0.12707408188E+02 -0.33201024470E+01  0.38479395013E+02  0.40659133582E+02  0.00000000000E+00 0.  1.
         11    1    3    3    0    0  0.85096610733E+01  0.14368748311E+02 -0.22130809747E+02  0.27724501798E+02  0.51100000000E-03 0.  1.
        -11    1    3    3    0    0 -0.26668046634E+01 -0.75306577728E+01 -0.10099177199E+02  0.12876957481E+02  0.51100000000E-03 0. -1.
         12    1    3    3    0    0  0.68645517779E+01 -0.35179880915E+01 -0.62494080665E+01  0.99274071390E+01  0.00000000000E+00 0. -1.
</event>
<event>
 7    1  0.4963616E-011  0.5052887E+02  0.7816164E-02  0.1300439E+00
        -11   -1    0    0    0    0  0.00000000000E+00  0.00000000000E+00  0.45593999997E+02  0.45594000000E+02  0.51100000000E-03 0.  1.
         11   -1    0    0    0    0 -0.00000000000E+00 -0.00000000000E+00 -0.45593999997E+02  0.45594000000E+02  0.51100000000E-03 0. -1.
    9900012    2    1    2    0    0 -0.30962118192E+02  0.15237757195E+02 -0.21501696145E+02  0.50528868868E+02  0.30000027412E+02 0.  0.
        -12    1    1    2    0    0  0.30962118192E+02 -0.15237757195E+02  0.21501696145E+02  0.40659131132E+02  0.00000000000E+00 0.  1.
         11    1    3    3    0    0 -0.60701373287E+01  0.92334958900E+00 -0.22183907304E+00  0.61439689524E+01  0.51100000000E-03 0. -1.
        -11    1    3    3    0    0 -0.23079756061E+01  0.12917926711E+02 -0.16801616140E+02  0.21318862237E+02  0.51100000000E-03 0.  1.
        -12    1    3    3    0    0 -0.22584005258E+02  0.13964808951E+01 -0.44782409320E+01  0.23066037679E+02  0.00000000000E+00 0.  1.
</event>
<event>
 7    1  0.4963616E-011  0.5052888E+02  0.7816164E-02  0.1300439E+00
        -11   -1    0    0    0    0  0.00000000000E+00  0.00000000000E+00  0.45593999997E+02  0.45594000000E+02  0.51100000000E-03 0.  1.
         11   -1    0    0    0    0 -0.00000000000E+00 -0.00000000000E+00 -0.45593999997E+02  0.45594000000E+02  0.51100000000E-03 0. -1.
    9900012    2    1    2    0    0  0.11437755148E+02  0.80372942501E+01 -0.38180405751E+02  0.50528883864E+02  0.30000072993E+02 0.  0.
        -12    1    1    2    0    0 -0.11437755148E+02 -0.80372942501E+01  0.38180405751E+02  0.40659116136E+02  0.00000000000E+00 0.  1.
         11    1    3    3    0    0  0.12987204702E+02 -0.27263596756E+01 -0.14463456516E+02  0.19628858798E+02  0.51100000000E-03 0. -1.
        -11    1    3    3    0    0 -0.66844478384E+01  0.55268564033E+00 -0.15300478884E+02  0.16706045572E+02  0.51100000000E-03 0.  1.
        -12    1    3    3    0    0  0.51349982844E+01  0.10210968285E+02 -0.84164703503E+01  0.14193979494E+02  0.00000000000E+00 0.  1.
</event>
<event>
 7    1  0.4963616E-011  0.5052886E+02  0.7816164E-02  0.1300439E+00
        -11   -1    0    0    0    0  0.00000000000E+00  0.00000000000E+00  0.45593999997E+02  0.45594000000E+02  0.51100000000E-03 0.  1.
         11   -1    0    0    0    0 -0.00000000000E+00 -0.00000000000E+00 -0.45593999997E+02  0.45594000000E+02  0.51100000000E-03 0. -1.
    9900012    2    1    2    0    0 -0.40808601747E+01  0.11283917242E+02 -0.38848237853E+02  0.50528858440E+02  0.29999995714E+02 0.  0.
        -12    1    1    2    0    0  0.40808601747E+01 -0.11283917242E+02  0.38848237853E+02  0.40659141560E+02  0.00000000000E+00 0.  1.
         11    1    3    3    0    0 -0.25950668452E+01  0.34268631815E+01  0.32803121808E+01  0.54072369525E+01  0.51100000000E-03 0.  1.
        -11    1    3    3    0    0 -0.60583356083E+01 -0.29954340600E+00 -0.23602167966E+02  0.24369150366E+02  0.51100000000E-03 0. -1.
         12    1    3    3    0    0  0.45725422789E+01  0.81565974665E+01 -0.18526382068E+02  0.20752471122E+02  0.00000000000E+00 0. -1.
</event>
<event>
 7    1  0.4963616E-011  0.5052886E+02  0.7816164E-02  0.1300439E+00
        -11   -1    0    0    0    0  0.00000000000E+00  0.00000000000E+00  0.45593999997E+02  0.45594000000E+02  0.51100000000E-03 0.  1.
         11   -1    0    0    0    0 -0.00000000000E+00 -0.00000000000E+00 -0.45593999997E+02  0.45594000000E+02  0.51100000000E-03 0. -1.
    9900012    2    1    2    0    0  0.22917545701E+02 -0.29574225837E+01 -0.33454530058E+02  0.50528857969E+02  0.29999994282E+02 0.  0.
        -12    1    1    2    0    0 -0.22917545701E+02  0.29574225837E+01  0.33454530058E+02  0.40659142031E+02  0.00000000000E+00 0.  1.
         11    1    3    3    0    0  0.12993258380E+02 -0.12187955778E+02 -0.31476206237E+02  0.36167977393E+02  0.51100000000E-03 0. -1.
        -11    1    3    3    0    0  0.10208900130E+02  0.83683475859E+01 -0.13773915631E+01  0.13272079376E+02  0.51100000000E-03 0.  1.
         12    1    3    3    0    0 -0.28461280828E+00  0.86218560847E+00 -0.60093225780E+00  0.10888011997E+01  0.00000000000E+00 0. -1.
</event>
<event>
 7    1  0.4963616E-011  0.5052886E+02  0.7816164E-02  0.1300439E+00
        -11   -1    0    0    0    0  0.00000000000E+00  0.00000000000E+00  0.45593999997E+02  0.45594000000E+02  0.51100000000E-03 0. -1.
         11   -1    0    0    0    0 -0.00000000000E+00 -0.00000000000E+00 -0.45593999997E+02  0.45594000000E+02  0.51100000000E-03 0.  1.
    9900012    2    1    2    0    0  0.39828726603E+02 -0.75309712259E+01 -0.31815763799E+01  0.50528863035E+02  0.30000009683E+02 0.  0.
        -12    1    1    2    0    0 -0.39828726603E+02  0.75309712259E+01  0.31815763799E+01  0.40659136965E+02  0.00000000000E+00 0.  1.
         11    1    3    3    0    0  0.15166836011E+02  0.64848696687E+01  0.79219888396E+01  0.18298752871E+02  0.51100000000E-03 0. -1.
        -11    1    3    3    0    0  0.21573509434E+02 -0.10471072679E+02 -0.49497779745E+01  0.24485913799E+02  0.51100000000E-03 0.  1.
         12    1    3    3    0    0  0.30883811589E+01 -0.35447682158E+01 -0.61537872450E+01  0.77441963653E+01  0.00000000000E+00 0. -1.
</event>
<event>
 7    1  0.4963616E-011  0.5052886E+02  0.7816164E-02  0.1300439E+00
        -11   -1    0    0    0    0  0.00000000000E+00  0.00000000000E+00  0.45593999997E+02  0.45594000000E+02  0.51100000000E-03 0. -1.
         11   -1    0    0    0    0 -0.00000000000E+00 -0.00000000000E+00 -0.45593999997E+02  0.45594000000E+02  0.51100000000E-03 0.  1.
    9900012    2    1    2    0    0  0.28524407259E+02 -0.11271477763E+02  0.26692275075E+02  0.50528861186E+02  0.30000004060E+02 0.  0.
        -12    1    1    2    0    0 -0.28524407259E+02  0.11271477763E+02 -0.26692275075E+02  0.40659138814E+02  0.00000000000E+00 0.  1.
         11    1    3    3    0    0  0.40391595751E+01  0.73971042548E+01  0.43454065045E+01  0.94823266860E+01  0.51100000000E-03 0. -1.
        -11    1    3    3    0    0  0.91171817564E+01 -0.13485656233E+02  0.17972121759E+02  0.24248362584E+02  0.51100000000E-03 0.  1.
        -12    1    3    3    0    0  0.15368065928E+02 -0.51829257849E+01  0.43747468117E+01  0.16798171916E+02  0.00000000000E+00 0.  1.
</event>
<event>
 7    1  0.4963616E-011  0.5052886E+02  0.7816164E-02  0.1300439E+00
        -11   -1    0    0    0    0  0.00000000000E+00  0.00000000000E+00  0.45593999997E+02  0.45594000000E+02  0.51100000000E-03 0.  1.
         11   -1    0    0    0    0 -0.00000000000E+00 -0.00000000000E+00 -0.45593999997E+02  0.45594000000E+02  0.51100000000E-03 0. -1.
    9900012    2    1    2    0    0  0.10829012552E+02 -0.38630487949E+02 -0.66018067101E+01  0.50528856332E+02  0.29999989306E+02 0.  0.
        -12    1    1    2    0    0 -0.10829012552E+02  0.38630487949E+02  0.66018067101E+01  0.40659143668E+02  0.00000000000E+00 0.  1.
         11    1    3    3    0    0  0.27756243433E+00 -0.21336326349E+02  0.94592984148E+00  0.21359088148E+02  0.51100000000E-03 0. -1.
        -11    1    3    3    0    0  0.11045860863E+02 -0.33149555031E+01 -0.96339883656E+01  0.15027098998E+02  0.51100000000E-03 0.  1.
        -12    1    3    3    0    0 -0.49441074574E+00 -0.13979206097E+02  0.20862518140E+01  0.14142669186E+02  0.00000000000E+00 0.  1.
</event>
<event>
 7    1  0.4963616E-011  0.5052886E+02  0.7816164E-02  0.1300439E+00
        -11   -1    0    0    0    0  0.00000000000E+00  0.00000000000E+00  0.45593999997E+02  0.45594000000E+02  0.51100000000E-03 0.  1.
         11   -1    0    0    0    0 -0.00000000000E+00 -0.00000000000E+00 -0.45593999997E+02  0.45594000000E+02  0.51100000000E-03 0. -1.
    9900012    2    1    2    0    0 -0.10941215154E+02  0.28799293979E+02 -0.26534058190E+02  0.50528858755E+02  0.29999996671E+02 0.  0.
        -12    1    1    2    0    0  0.10941215154E+02 -0.28799293979E+02  0.26534058190E+02  0.40659141245E+02  0.00000000000E+00 0.  1.
         11    1    3    3    0    0 -0.10243660371E+02  0.93221320505E+01 -0.86882656670E+00  0.13877664920E+02  0.51100000000E-03 0. -1.
        -11    1    3    3    0    0 -0.40623377798E+00  0.20213681823E+02 -0.27799914298E+02  0.34374310087E+02  0.51100000000E-03 0.  1.
        -12    1    3    3    0    0 -0.29132100434E+00 -0.73651989434E+00  0.21346826740E+01  0.22768837478E+01  0.00000000000E+00 0.  1.
</event>
<event>
 7    1  0.4963616E-011  0.5052885E+02  0.7816164E-02  0.1300439E+00
        -11   -1    0    0    0    0  0.00000000000E+00  0.00000000000E+00  0.45593999997E+02  0.45594000000E+02  0.51100000000E-03 0. -1.
         11   -1    0    0    0    0 -0.00000000000E+00 -0.00000000000E+00 -0.45593999997E+02  0.45594000000E+02  0.51100000000E-03 0.  1.
    9900012    2    1    2    0    0  0.33976740050E+01 -0.28179710757E+02  0.29112306300E+02  0.50528847708E+02  0.29999963093E+02 0.  0.
        -12    1    1    2    0    0 -0.33976740050E+01  0.28179710757E+02 -0.29112306300E+02  0.40659152292E+02  0.00000000000E+00 0.  1.
         11    1    3    3    0    0  0.13093054086E+02 -0.16969304104E+02  0.14792060857E+02  0.26042089235E+02  0.51100000000E-03 0. -1.
        -11    1    3    3    0    0 -0.84651042636E+01 -0.12625573644E+02  0.15927522972E+02  0.22017018152E+02  0.51100000000E-03 0.  1.
        -12    1    3    3    0    0 -0.12302758173E+01  0.14151669915E+01 -0.16072775278E+01  0.24697403207E+01  0.00000000000E+00 0.  1.
</event>
<event>
 7    1  0.4963616E-011  0.5052885E+02  0.7816164E-02  0.1300439E+00
        -11   -1    0    0    0    0  0.00000000000E+00  0.00000000000E+00  0.45593999997E+02  0.45594000000E+02  0.51100000000E-03 0.  1.
         11   -1    0    0    0    0 -0.00000000000E+00 -0.00000000000E+00 -0.45593999997E+02  0.45594000000E+02  0.51100000000E-03 0. -1.
    9900012    2    1    2    0    0  0.28930847934E+01 -0.65566109672E+00 -0.40550788671E+02  0.50528852285E+02  0.29999977006E+02 0.  0.
        -12    1    1    2    0    0 -0.28930847934E+01  0.65566109672E+00  0.40550788671E+02  0.40659147715E+02  0.00000000000E+00 0.  1.
         11    1    3    3    0    0  0.34484102959E+00 -0.13894796488E+01  0.25413960936E+01  0.29168927639E+01  0.51100000000E-03 0.  1.
        -11    1    3    3    0    0  0.22070928374E+01  0.99154502926E+01 -0.29548598616E+02  0.31245913232E+02  0.51100000000E-03 0. -1.
         12    1    3    3    0    0  0.34115092644E+00 -0.91816317406E+01 -0.13543586149E+02  0.16366046289E+02  0.00000000000E+00 0. -1.
</event>
<event>
 7    1  0.4963616E-011  0.5052885E+02  0.7816164E-02  0.1300439E+00
        -11   -1    0    0    0    0  0.00000000000E+00  0.00000000000E+00  0.45593999997E+02  0.45594000000E+02  0.51100000000E-03 0.  1.
         11   -1    0    0    0    0 -0.00000000000E+00 -0.00000000000E+00 -0.45593999997E+02  0.45594000000E+02  0.51100000000E-03 0. -1.
    9900012    2    1    2    0    0  0.38861076189E+02  0.79960666328E+01 -0.88907736438E+01  0.50528853672E+02  0.29999981221E+02 0.  0.
        -12    1    1    2    0    0 -0.38861076189E+02 -0.79960666328E+01  0.88907736438E+01  0.40659146328E+02  0.00000000000E+00 0.  1.
         11    1    3    3    0    0  0.33015771650E+02  0.35178307106E+01  0.42736694837E+01  0.33476567352E+02  0.51100000000E-03 0. -1.
        -11    1    3    3    0    0 -0.10632028419E+01  0.14887773479E+01 -0.72553754268E+01  0.74824682505E+01  0.51100000000E-03 0.  1.
         12    1    3    3    0    0  0.69085073808E+01  0.29894585744E+01 -0.59090677007E+01  0.95698180698E+01  0.00000000000E+00 0. -1.
</event>
<event>
 7    1  0.4963616E-011  0.5052886E+02  0.7816164E-02  0.1300439E+00
        -11   -1    0    0    0    0  0.00000000000E+00  0.00000000000E+00  0.45593999997E+02  0.45594000000E+02  0.51100000000E-03 0.  1.
         11   -1    0    0    0    0 -0.00000000000E+00 -0.00000000000E+00 -0.45593999997E+02  0.45594000000E+02  0.51100000000E-03 0. -1.
    9900012    2    1    2    0    0 -0.13013179830E+01 -0.14907989822E+02 -0.37805077272E+02  0.50528862569E+02  0.30000008266E+02 0.  0.
        -12    1    1    2    0    0  0.13013179830E+01  0.14907989822E+02  0.37805077272E+02  0.40659137431E+02  0.00000000000E+00 0.  1.
         11    1    3    3    0    0 -0.10834429879E+02 -0.66094022140E+01 -0.10197205383E+02  0.16280419722E+02  0.51100000000E-03 0. -1.
        -11    1    3    3    0    0  0.30987123784E+01  0.39485318092E+01 -0.13876203183E+02  0.14756081353E+02  0.51100000000E-03 0.  1.
         12    1    3    3    0    0  0.64343995180E+01 -0.12247119417E+02 -0.13731668707E+02  0.19492361495E+02  0.00000000000E+00 0. -1.
</event>
<event>
 7    1  0.4963616E-011  0.5052886E+02  0.7816164E-02  0.1300439E+00
        -11   -1    0    0    0    0  0.00000000000E+00  0.00000000000E+00  0.45593999997E+02  0.45594000000E+02  0.51100000000E-03 0. -1.
         11   -1    0    0    0    0 -0.00000000000E+00 -0.00000000000E+00 -0.45593999997E+02  0.45594000000E+02  0.51100000000E-03 0.  1.
    9900012    2    1    2    0    0 -0.19507643850E+02  0.30110493166E+02  0.19130492924E+02  0.50528859246E+02  0.29999998165E+02 0.  0.
        -12    1    1    2    0    0  0.19507643850E+02 -0.30110493166E+02 -0.19130492924E+02  0.40659140754E+02  0.00000000000E+00 0.  1.
         11    1    3    3    0    0 -0.69898343391E+01  0.69412074938E+01 -0.56266421799E+01  0.11344480951E+02  0.51100000000E-03 0.  1.
        -11    1    3    3    0    0 -0.86724278525E+01  0.24738894226E+02  0.21141029698E+02  0.33677396416E+02  0.51100000000E-03 0. -1.
         12    1    3    3    0    0 -0.38453816586E+01 -0.15696085539E+01  0.36161054067E+01  0.55069818799E+01  0.00000000000E+00 0. -1.
</event>
<event>
 7    1  0.4963616E-011  0.5052890E+02  0.7816164E-02  0.1300439E+00
        -11   -1    0    0    0    0  0.00000000000E+00  0.00000000000E+00  0.45593999997E+02  0.45594000000E+02  0.51100000000E-03 0.  1.
         11   -1    0    0    0    0 -0.00000000000E+00 -0.00000000000E+00 -0.45593999997E+02  0.45594000000E+02  0.51100000000E-03 0. -1.
    9900012    2    1    2    0    0  0.15765703712E+02 -0.31444156002E+02 -0.20392889383E+02  0.50528901417E+02  0.30000126347E+02 0.  0.
        -12    1    1    2    0    0 -0.15765703712E+02  0.31444156002E+02  0.20392889383E+02  0.40659098583E+02  0.00000000000E+00 0.  1.
         11    1    3    3    0    0  0.14263489206E+02 -0.19278522365E+02 -0.13394533943E+02  0.27468565466E+02  0.51100000000E-03 0. -1.
        -11    1    3    3    0    0 -0.61084104314E+01 -0.56152747856E+01 -0.95986956592E+01  0.12687747930E+02  0.51100000000E-03 0.  1.
        -12    1    3    3    0    0  0.76106249373E+01 -0.65503588506E+01  0.26003402190E+01  0.10372588021E+02  0.00000000000E+00 0.  1.
</event>
<event>
 7    1  0.4963616E-011  0.5052886E+02  0.7816164E-02  0.1300439E+00
        -11   -1    0    0    0    0  0.00000000000E+00  0.00000000000E+00  0.45593999997E+02  0.45594000000E+02  0.51100000000E-03 0. -1.
         11   -1    0    0    0    0 -0.00000000000E+00 -0.00000000000E+00 -0.45593999997E+02  0.45594000000E+02  0.51100000000E-03 0.  1.
    9900012    2    1    2    0    0 -0.24363671437E+02  0.22021821474E+02 -0.23971157899E+02  0.50528861814E+02  0.30000005971E+02 0.  0.
        -12    1    1    2    0    0  0.24363671437E+02 -0.22021821474E+02  0.23971157899E+02  0.40659138186E+02  0.00000000000E+00 0.  1.
         11    1    3    3    0    0  0.37484968474E+01 -0.16309714026E+01 -0.92330561658E+01  0.10097555286E+02  0.51100000000E-03 0. -1.
        -11    1    3    3    0    0 -0.90874070998E+01  0.12055446437E+02 -0.83525549722E+01  0.17253403473E+02  0.51100000000E-03 0.  1.
         12    1    3    3    0    0 -0.19024761185E+02  0.11597346440E+02 -0.63855467614E+01  0.23177903055E+02  0.00000000000E+00 0. -1.
</event>
<event>
 7    1  0.4963616E-011  0.5052886E+02  0.7816164E-02  0.1300439E+00
        -11   -1    0    0    0    0  0.00000000000E+00  0.00000000000E+00  0.45593999997E+02  0.45594000000E+02  0.51100000000E-03 0.  1.
         11   -1    0    0    0    0 -0.00000000000E+00 -0.00000000000E+00 -0.45593999997E+02  0.45594000000E+02  0.51100000000E-03 0. -1.
    9900012    2    1    2    0    0  0.90823855546E+01  0.57898482904E+01 -0.39206545520E+02  0.50528864714E+02  0.30000014784E+02 0.  0.
        -12    1    1    2    0    0 -0.90823855546E+01 -0.57898482904E+01  0.39206545520E+02  0.40659135286E+02  0.00000000000E+00 0.  1.
         11    1    3    3    0    0  0.10762067370E+02  0.12496969992E+02 -0.12238828770E+02  0.20537411789E+02  0.51100000000E-03 0. -1.
        -11    1    3    3    0    0 -0.13394779234E+01 -0.95071089782E+01 -0.24220780930E+02  0.26054280865E+02  0.51100000000E-03 0.  1.
        -12    1    3    3    0    0 -0.34020389208E+00  0.27999872768E+01 -0.27469358193E+01  0.39371720605E+01  0.00000000000E+00 0.  1.
</event>
<event>
 7    1  0.4963616E-011  0.5052886E+02  0.7816164E-02  0.1300439E+00
        -11   -1    0    0    0    0  0.00000000000E+00  0.00000000000E+00  0.45593999997E+02  0.45594000000E+02  0.51100000000E-03 0.  1.
         11   -1    0    0    0    0 -0.00000000000E+00 -0.00000000000E+00 -0.45593999997E+02  0.45594000000E+02  0.51100000000E-03 0. -1.
    9900012    2    1    2    0    0 -0.11031322353E+02 -0.91965523515E+01 -0.38038120598E+02  0.50528864906E+02  0.30000015367E+02 0.  0.
        -12    1    1    2    0    0  0.11031322353E+02  0.91965523515E+01  0.38038120598E+02  0.40659135094E+02  0.00000000000E+00 0.  1.
         11    1    3    3    0    0 -0.15108765894E+02  0.42203619475E-01 -0.36350514855E+02  0.39365422879E+02  0.51100000000E-03 0. -1.
        -11    1    3    3    0    0  0.51274389234E+00 -0.42181440404E+01  0.11227269124E+01  0.43950155205E+01  0.51100000000E-03 0.  1.
         12    1    3    3    0    0  0.35646996479E+01 -0.50206119306E+01 -0.28103326552E+01  0.67684265062E+01  0.00000000000E+00 0. -1.
</event>
<event>
 7    1  0.4963616E-011  0.5052887E+02  0.7816164E-02  0.1300439E+00
        -11   -1    0    0    0    0  0.00000000000E+00  0.00000000000E+00  0.45593999997E+02  0.45594000000E+02  0.51100000000E-03 0. -1.
         11   -1    0    0    0    0 -0.00000000000E+00 -0.00000000000E+00 -0.45593999997E+02  0.45594000000E+02  0.51100000000E-03 0.  1.
    9900012    2    1    2    0    0  0.34479348493E+02  0.18298616383E+02 -0.11379789951E+02  0.50528874907E+02  0.30000045767E+02 0.  0.
        -12    1    1    2    0    0 -0.34479348493E+02 -0.18298616383E+02  0.11379789951E+02  0.40659125093E+02  0.00000000000E+00 0.  1.
         11    1    3    3    0    0  0.22128883272E+02  0.12128812766E+02 -0.38370523736E+01  0.25524861315E+02  0.51100000000E-03 0. -1.
        -11    1    3    3    0    0  0.11870859909E+02 -0.48278009755E+01 -0.45154066540E+01  0.13587268848E+02  0.51100000000E-03 0.  1.
        -12    1    3    3    0    0  0.47960531171E+00  0.10997604592E+02 -0.30273309237E+01  0.11416744743E+02  0.00000000000E+00 0.  1.
</event>
<event>
 7    1  0.4963616E-011  0.5052885E+02  0.7816164E-02  0.1300439E+00
        -11   -1    0    0    0    0  0.00000000000E+00  0.00000000000E+00  0.45593999997E+02  0.45594000000E+02  0.51100000000E-03 0.  1.
         11   -1    0    0    0    0 -0.00000000000E+00 -0.00000000000E+00 -0.45593999997E+02  0.45594000000E+02  0.51100000000E-03 0. -1.
    9900012    2    1    2    0    0 -0.16271740083E+02  0.28684401060E+02 -0.23782383217E+02  0.50528854153E+02  0.29999982684E+02 0.  0.
        -12    1    1    2    0    0  0.16271740083E+02 -0.28684401060E+02  0.23782383217E+02  0.40659145847E+02  0.00000000000E+00 0.  1.
         11    1    3    3    0    0  0.77682836464E+01  0.93146505050E+01 -0.12886635055E+02  0.17696731567E+02  0.51100000000E-03 0. -1.
        -11    1    3    3    0    0 -0.83281066279E+01  0.65749502246E+01 -0.49965265606E+01  0.11728282414E+02  0.51100000000E-03 0.  1.
         12    1    3    3    0    0 -0.15711917102E+02  0.12794800330E+02 -0.58992216018E+01  0.21103840172E+02  0.00000000000E+00 0. -1.
</event>
<event>
 7    1  0.4963616E-011  0.5052888E+02  0.7816164E-02  0.1300439E+00
        -11   -1    0    0    0    0  0.00000000000E+00  0.00000000000E+00  0.45593999997E+02  0.45594000000E+02  0.51100000000E-03 0. -1.
         11   -1    0    0    0    0 -0.00000000000E+00 -0.00000000000E+00 -0.45593999997E+02  0.45594000000E+02  0.51100000000E-03 0.  1.
    9900012    2    1    2    0    0  0.94359705136E+01 -0.32413559995E+02  0.22660273698E+02  0.50528875376E+02  0.30000047193E+02 0.  0.
        -12    1    1    2    0    0 -0.94359705136E+01  0.32413559995E+02 -0.22660273698E+02  0.40659124624E+02  0.00000000000E+00 0.  1.
         11    1    3    3    0    0  0.52340147601E+00 -0.95491851068E+01  0.23394884571E+02  0.25274127277E+02  0.51100000000E-03 0. -1.
        -11    1    3    3    0    0  0.29488351809E+01 -0.34481905957E+01 -0.18796096841E+01  0.49110671075E+01  0.51100000000E-03 0.  1.
         12    1    3    3    0    0  0.59637338567E+01 -0.19416184292E+02  0.11449988121E+01  0.20343680991E+02  0.00000000000E+00 0. -1.
</event>
<event>
 7    1  0.4963616E-011  0.5052887E+02  0.7816164E-02  0.1300439E+00
        -11   -1    0    0    0    0  0.00000000000E+00  0.00000000000E+00  0.45593999997E+02  0.45594000000E+02  0.51100000000E-03 0. -1.
         11   -1    0    0    0    0 -0.00000000000E+00 -0.00000000000E+00 -0.45593999997E+02  0.45594000000E+02  0.51100000000E-03 0.  1.
    9900012    2    1    2    0    0 -0.26442964563E+02 -0.23914976253E+02  0.19545044499E+02  0.50528865374E+02  0.30000016791E+02 0.  0.
        -12    1    1    2    0    0  0.26442964563E+02  0.23914976253E+02 -0.19545044499E+02  0.40659134626E+02  0.00000000000E+00 0.  1.
         11    1    3    3    0    0 -0.22955686107E+02 -0.15739981663E+02  0.21359427353E+02  0.35084693023E+02  0.51100000000E-03 0. -1.
        -11    1    3    3    0    0 -0.43429133598E+01 -0.11030267821E+02 -0.30132162950E+01  0.12231401284E+02  0.51100000000E-03 0.  1.
         12    1    3    3    0    0  0.85563490352E+00  0.28552732313E+01  0.11988334412E+01  0.32127710677E+01  0.00000000000E+00 0. -1.
</event>
<event>
 7    1  0.4963616E-011  0.5052886E+02  0.7816164E-02  0.1300439E+00
        -11   -1    0    0    0    0  0.00000000000E+00  0.00000000000E+00  0.45593999997E+02  0.45594000000E+02  0.51100000000E-03 0.  1.
         11   -1    0    0    0    0 -0.00000000000E+00 -0.00000000000E+00 -0.45593999997E+02  0.45594000000E+02  0.51100000000E-03 0. -1.
    9900012    2    1    2    0    0  0.92018187795E+01  0.10024013338E+02 -0.38314631257E+02  0.50528864734E+02  0.30000014844E+02 0.  0.
        -12    1    1    2    0    0 -0.92018187795E+01 -0.10024013338E+02  0.38314631257E+02  0.40659135266E+02  0.00000000000E+00 0.  1.
         11    1    3    3    0    0  0.61774030440E+01 -0.26914081752E+01 -0.31740145877E+02  0.32447509101E+02  0.51100000000E-03 0. -1.
        -11    1    3    3    0    0 -0.37347698332E+01  0.70055330825E+01 -0.38506026109E+01  0.88234426504E+01  0.51100000000E-03 0.  1.
         12    1    3    3    0    0  0.67591855687E+01  0.57098884303E+01 -0.27238827692E+01  0.92579129818E+01  0.00000000000E+00 0. -1.
</event>
<event>
 7    1  0.4963616E-011  0.5052886E+02  0.7816164E-02  0.1300439E+00
        -11   -1    0    0    0    0  0.00000000000E+00  0.00000000000E+00  0.45593999997E+02  0.45594000000E+02  0.51100000000E-03 0.  1.
         11   -1    0    0    0    0 -0.00000000000E+00 -0.00000000000E+00 -0.45593999997E+02  0.45594000000E+02  0.51100000000E-03 0. -1.
    9900012    2    1    2    0    0  0.49484052427E+01 -0.38469266454E+02 -0.12198144692E+02  0.50528856995E+02  0.29999991321E+02 0.  0.
        -12    1    1    2    0    0 -0.49484052427E+01  0.38469266454E+02  0.12198144692E+02  0.40659143005E+02  0.00000000000E+00 0.  1.
         11    1    3    3    0    0 -0.89099635686E+01 -0.18163724078E+02  0.25177530074E+00  0.20232936372E+02  0.51100000000E-03 0. -1.
        -11    1    3    3    0    0  0.14165121749E+02 -0.10534493281E+02 -0.62844185663E+01  0.18738200015E+02  0.51100000000E-03 0.  1.
         12    1    3    3    0    0 -0.30675293725E+00 -0.97710490961E+01 -0.61655014269E+01  0.11557720608E+02  0.00000000000E+00 0. -1.
</event>
<event>
 7    1  0.4963616E-011  0.5052883E+02  0.7816164E-02  0.1300439E+00
        -11   -1    0    0    0    0  0.00000000000E+00  0.00000000000E+00  0.45593999997E+02  0.45594000000E+02  0.51100000000E-03 0.  1.
         11   -1    0    0    0    0 -0.00000000000E+00 -0.00000000000E+00 -0.45593999997E+02  0.45594000000E+02  0.51100000000E-03 0. -1.
    9900012    2    1    2    0    0  0.25630333124E+02 -0.22876138062E+02 -0.21747098854E+02  0.50528831572E+02  0.29999914047E+02 0.  0.
        -12    1    1    2    0    0 -0.25630333124E+02  0.22876138062E+02  0.21747098854E+02  0.40659168428E+02  0.00000000000E+00 0.  1.
         11    1    3    3    0    0  0.17486077718E+01 -0.61741151614E+01 -0.81658416973E+01  0.10385484969E+02  0.51100000000E-03 0. -1.
        -11    1    3    3    0    0  0.11891222157E+02 -0.93875978908E+01  0.57875140543E+01  0.16217998574E+02  0.51100000000E-03 0.  1.
        -12    1    3    3    0    0  0.11990503195E+02 -0.73144250095E+01 -0.19368771211E+02  0.23925348029E+02  0.00000000000E+00 0.  1.
</event>
<event>
 7    1  0.4963616E-011  0.5052886E+02  0.7816164E-02  0.1300439E+00
        -11   -1    0    0    0    0  0.00000000000E+00  0.00000000000E+00  0.45593999997E+02  0.45594000000E+02  0.51100000000E-03 0.  1.
         11   -1    0    0    0    0 -0.00000000000E+00 -0.00000000000E+00 -0.45593999997E+02  0.45594000000E+02  0.51100000000E-03 0. -1.
    9900012    2    1    2    0    0  0.23590536018E+02  0.21304969685E+02 -0.25352530067E+02  0.50528857072E+02  0.29999991555E+02 0.  0.
        -12    1    1    2    0    0 -0.23590536018E+02 -0.21304969685E+02  0.25352530067E+02  0.40659142928E+02  0.00000000000E+00 0.  1.
         11    1    3    3    0    0  0.24129276906E+02  0.24118236995E+02 -0.12513917248E+02  0.36338815128E+02  0.51100000000E-03 0. -1.
        -11    1    3    3    0    0 -0.16229159379E+00 -0.40115726841E+01 -0.58860428483E+01  0.71249248862E+01  0.51100000000E-03 0.  1.
         12    1    3    3    0    0 -0.37644929414E+00  0.11983053737E+01 -0.69525699706E+01  0.70651170575E+01  0.00000000000E+00 0. -1.
</event>
<event>
 7    1  0.4963616E-011  0.5052886E+02  0.7816164E-02  0.1300439E+00
        -11   -1    0    0    0    0  0.00000000000E+00  0.00000000000E+00  0.45593999997E+02  0.45594000000E+02  0.51100000000E-03 0. -1.
         11   -1    0    0    0    0 -0.00000000000E+00 -0.00000000000E+00 -0.45593999997E+02  0.45594000000E+02  0.51100000000E-03 0.  1.
    9900012    2    1    2    0    0 -0.20808384981E+02 -0.32071299743E+02  0.13842281011E+02  0.50528857162E+02  0.29999991831E+02 0.  0.
        -12    1    1    2    0    0  0.20808384981E+02  0.32071299743E+02 -0.13842281011E+02  0.40659142838E+02  0.00000000000E+00 0.  1.
         11    1    3    3    0    0 -0.14286295468E+01 -0.13631456524E+02  0.14819851584E+02  0.20186272330E+02  0.51100000000E-03 0. -1.
        -11    1    3    3    0    0 -0.46484067304E+00  0.14748031114E+01 -0.23831845620E+01  0.28408959831E+01  0.51100000000E-03 0.  1.
         12    1    3    3    0    0 -0.18914914761E+02 -0.19914646330E+02  0.14056139889E+01  0.27501688849E+02  0.00000000000E+00 0. -1.
</event>
<event>
 7    1  0.4963616E-011  0.5052886E+02  0.7816164E-02  0.1300439E+00
        -11   -1    0    0    0    0  0.00000000000E+00  0.00000000000E+00  0.45593999997E+02  0.45594000000E+02  0.51100000000E-03 0. -1.
         11   -1    0    0    0    0 -0.00000000000E+00 -0.00000000000E+00 -0.45593999997E+02  0.45594000000E+02  0.51100000000E-03 0.  1.
    9900012    2    1    2    0    0 -0.61719248050E+01  0.30058624022E+02  0.26674927250E+02  0.50528864769E+02  0.30000014952E+02 0.  0.
        -12    1    1    2    0    0  0.61719248050E+01 -0.30058624022E+02 -0.26674927250E+02  0.40659135231E+02  0.00000000000E+00 0.  1.
         11    1    3    3    0    0 -0.99920062682E+01  0.22882953457E+02  0.78864252957E+01  0.26185214385E+02  0.51100000000E-03 0. -1.
        -11    1    3    3    0    0  0.51156893047E+00 -0.10732073469E+01  0.14368478272E+02  0.14417581105E+02  0.51100000000E-03 0.  1.
         12    1    3    3    0    0  0.33085125327E+01  0.82488779120E+01  0.44200236824E+01  0.99260692793E+01  0.00000000000E+00 0. -1.
</event>
<event>
 7    1  0.4963616E-011  0.5052887E+02  0.7816164E-02  0.1300439E+00
        -11   -1    0    0    0    0  0.00000000000E+00  0.00000000000E+00  0.45593999997E+02  0.45594000000E+02  0.51100000000E-03 0.  1.
         11   -1    0    0    0    0 -0.00000000000E+00 -0.00000000000E+00 -0.45593999997E+02  0.45594000000E+02  0.51100000000E-03 0. -1.
    9900012    2    1    2    0    0  0.13598941744E+02  0.24955291857E+02 -0.29076921406E+02  0.50528866135E+02  0.30000019103E+02 0.  0.
        -12    1    1    2    0    0 -0.13598941744E+02 -0.24955291857E+02  0.29076921406E+02  0.40659133865E+02  0.00000000000E+00 0.  1.
         11    1    3    3    0    0  0.80309413879E+01  0.22896359734E+02 -0.11158364251E+02  0.26706710799E+02  0.51100000000E-03 0. -1.
        -11    1    3    3    0    0  0.82581556017E+01 -0.38837615622E+01 -0.95153031363E+01  0.13184146990E+02  0.51100000000E-03 0.  1.
        -12    1    3    3    0    0 -0.26901552453E+01  0.59426936850E+01 -0.84032540184E+01  0.10638008346E+02  0.00000000000E+00 0.  1.
</event>
<event>
 7    1  0.4963616E-011  0.5052885E+02  0.7816164E-02  0.1300439E+00
        -11   -1    0    0    0    0  0.00000000000E+00  0.00000000000E+00  0.45593999997E+02  0.45594000000E+02  0.51100000000E-03 0.  1.
         11   -1    0    0    0    0 -0.00000000000E+00 -0.00000000000E+00 -0.45593999997E+02  0.45594000000E+02  0.51100000000E-03 0. -1.
    9900012    2    1    2    0    0  0.27161454362E+02 -0.18393950937E+02 -0.24022584597E+02  0.50528848449E+02  0.29999965346E+02 0.  0.
        -12    1    1    2    0    0 -0.27161454362E+02  0.18393950937E+02  0.24022584597E+02  0.40659151551E+02  0.00000000000E+00 0.  1.
         11    1    3    3    0    0  0.25324323449E+02 -0.10956210037E+02 -0.20446152598E+02  0.34342467192E+02  0.51100000000E-03 0. -1.
        -11    1    3    3    0    0  0.30641302072E+01  0.76397848695E+00  0.39017641127E+01  0.50195936596E+01  0.51100000000E-03 0.  1.
         12    1    3    3    0    0 -0.12269992939E+01 -0.82017193869E+01 -0.74781961114E+01  0.11166787598E+02  0.00000000000E+00 0. -1.
</event>
<event>
 7    1  0.4963616E-011  0.5052893E+02  0.7816164E-02  0.1300439E+00
        -11   -1    0    0    0    0  0.00000000000E+00  0.00000000000E+00  0.45593999997E+02  0.45594000000E+02  0.51100000000E-03 0.  1.
         11   -1    0    0    0    0 -0.00000000000E+00 -0.00000000000E+00 -0.45593999997E+02  0.45594000000E+02  0.51100000000E-03 0. -1.
    9900012    2    1    2    0    0  0.99128842518E+00  0.14824665368E+02 -0.37847153210E+02  0.50528925218E+02  0.30000198693E+02 0.  0.
        -12    1    1    2    0    0 -0.99128842518E+00 -0.14824665368E+02  0.37847153210E+02  0.40659074782E+02  0.00000000000E+00 0.  1.
         11    1    3    3    0    0 -0.10511240494E+02  0.37600100281E+00 -0.18086849319E+02  0.20922754887E+02  0.51100000000E-03 0.  1.
        -11    1    3    3    0    0  0.10817534516E+02  0.10538781139E+02 -0.20605809189E+02  0.25547687439E+02  0.51100000000E-03 0. -1.
        -12    1    3    3    0    0  0.68499440321E+00  0.39098832265E+01  0.84550529901E+00  0.40584828924E+01  0.00000000000E+00 0.  1.
</event>
<event>
 7    1  0.4963616E-011  0.5052885E+02  0.7816164E-02  0.1300439E+00
        -11   -1    0    0    0    0  0.00000000000E+00  0.00000000000E+00  0.45593999997E+02  0.45594000000E+02  0.51100000000E-03 0.  1.
         11   -1    0    0    0    0 -0.00000000000E+00 -0.00000000000E+00 -0.45593999997E+02  0.45594000000E+02  0.51100000000E-03 0. -1.
    9900012    2    1    2    0    0 -0.38072022787E+02  0.54666050977E+01 -0.13183464346E+02  0.50528850691E+02  0.29999972160E+02 0.  0.
        -12    1    1    2    0    0  0.38072022787E+02 -0.54666050977E+01  0.13183464346E+02  0.40659149309E+02  0.00000000000E+00 0.  1.
         11    1    3    3    0    0 -0.24121694538E+02 -0.10697614463E+02 -0.96989134539E+01  0.28113413614E+02  0.51100000000E-03 0. -1.
        -11    1    3    3    0    0 -0.76878336661E+01  0.68422875064E+01 -0.43038566719E+01  0.11155396331E+02  0.51100000000E-03 0.  1.
         12    1    3    3    0    0 -0.62624945826E+01  0.93219320546E+01  0.81930577973E+00  0.11260040745E+02  0.00000000000E+00 0. -1.
</event>
<event>
 7    1  0.4963616E-011  0.5052886E+02  0.7816164E-02  0.1300439E+00
        -11   -1    0    0    0    0  0.00000000000E+00  0.00000000000E+00  0.45593999997E+02  0.45594000000E+02  0.51100000000E-03 0.  1.
         11   -1    0    0    0    0 -0.00000000000E+00 -0.00000000000E+00 -0.45593999997E+02  0.45594000000E+02  0.51100000000E-03 0. -1.
    9900012    2    1    2    0    0  0.31598265651E+02  0.50407222615E+01 -0.25085983211E+02  0.50528858018E+02  0.29999994431E+02 0.  0.
        -12    1    1    2    0    0 -0.31598265651E+02 -0.50407222615E+01  0.25085983211E+02  0.40659141982E+02  0.00000000000E+00 0.  1.
         11    1    3    3    0    0  0.46616476124E+01 -0.17596365144E+01 -0.15853385382E+02  0.16617975432E+02  0.51100000000E-03 0. -1.
        -11    1    3    3    0    0  0.26429687604E+02  0.10896402226E+01 -0.96623656422E+01  0.28161623048E+02  0.51100000000E-03 0.  1.
         12    1    3    3    0    0  0.50693043450E+00  0.57107185533E+01  0.42976781264E+00  0.57492595378E+01  0.00000000000E+00 0. -1.
</event>
<event>
 7    1  0.4963616E-011  0.5052885E+02  0.7816164E-02  0.1300439E+00
        -11   -1    0    0    0    0  0.00000000000E+00  0.00000000000E+00  0.45593999997E+02  0.45594000000E+02  0.51100000000E-03 0. -1.
         11   -1    0    0    0    0 -0.00000000000E+00 -0.00000000000E+00 -0.45593999997E+02  0.45594000000E+02  0.51100000000E-03 0.  1.
    9900012    2    1    2    0    0 -0.48339082981E+01  0.11175574085E+01  0.40355306548E+02  0.50528851330E+02  0.29999974102E+02 0.  0.
        -12    1    1    2    0    0  0.48339082981E+01 -0.11175574085E+01 -0.40355306548E+02  0.40659148670E+02  0.00000000000E+00 0.  1.
         11    1    3    3    0    0 -0.79430189055E+01  0.24068567702E+01  0.80912576816E+01  0.11591072426E+02  0.51100000000E-03 0.  1.
        -11    1    3    3    0    0  0.69092139500E+01 -0.72240075332E+00  0.34013799084E+02  0.34715956398E+02  0.51100000000E-03 0. -1.
        -12    1    3    3    0    0 -0.38001033426E+01 -0.56689860840E+00 -0.17497502177E+01  0.42218225059E+01  0.00000000000E+00 0.  1.
</event>
<event>
 7    1  0.4963616E-011  0.5052885E+02  0.7816164E-02  0.1300439E+00
        -11   -1    0    0    0    0  0.00000000000E+00  0.00000000000E+00  0.45593999997E+02  0.45594000000E+02  0.51100000000E-03 0.  1.
         11   -1    0    0    0    0 -0.00000000000E+00 -0.00000000000E+00 -0.45593999997E+02  0.45594000000E+02  0.51100000000E-03 0. -1.
    9900012    2    1    2    0    0 -0.19106042080E+02  0.31819833544E+01 -0.35749137708E+02  0.50528847170E+02  0.29999961457E+02 0.  0.
        -12    1    1    2    0    0  0.19106042080E+02 -0.31819833544E+01  0.35749137708E+02  0.40659152830E+02  0.00000000000E+00 0.  1.
         11    1    3    3    0    0 -0.72848101672E+01  0.12262954676E+02 -0.57658081753E+01  0.15384832164E+02  0.51100000000E-03 0. -1.
        -11    1    3    3    0    0 -0.33665273699E+01 -0.61789263992E+01 -0.50622159884E+01  0.86682563964E+01  0.51100000000E-03 0.  1.
         12    1    3    3    0    0 -0.84547045430E+01 -0.29020449220E+01 -0.24921113544E+02  0.26475758609E+02  0.00000000000E+00 0. -1.
</event>
<event>
 7    1  0.4963616E-011  0.5052884E+02  0.7816164E-02  0.1300439E+00
        -11   -1    0    0    0    0  0.00000000000E+00  0.00000000000E+00  0.45593999997E+02  0.45594000000E+02  0.51100000000E-03 0. -1.
         11   -1    0    0    0    0 -0.00000000000E+00 -0.00000000000E+00 -0.45593999997E+02  0.45594000000E+02  0.51100000000E-03 0.  1.
    9900012    2    1    2    0    0 -0.17742490627E+02 -0.23397916333E+02  0.28123103002E+02  0.50528838857E+02  0.29999936190E+02 0.  0.
        -12    1    1    2    0    0  0.17742490627E+02  0.23397916333E+02 -0.28123103002E+02  0.40659161143E+02  0.00000000000E+00 0.  1.
         11    1    3    3    0    0 -0.82894215112E+01 -0.18725479809E+02  0.32658945781E+02  0.38548214522E+02  0.51100000000E-03 0. -1.
        -11    1    3    3    0    0 -0.85704403412E+01 -0.44487860746E+01 -0.28558580725E+01  0.10069760214E+02  0.51100000000E-03 0.  1.
        -12    1    3    3    0    0 -0.88262877463E+00 -0.22365044968E+00 -0.16799847060E+01  0.19108641213E+01  0.00000000000E+00 0.  1.
</event>
<event>
 7    1  0.4963616E-011  0.5052879E+02  0.7816164E-02  0.1300439E+00
        -11   -1    0    0    0    0  0.00000000000E+00  0.00000000000E+00  0.45593999997E+02  0.45594000000E+02  0.51100000000E-03 0.  1.
         11   -1    0    0    0    0 -0.00000000000E+00 -0.00000000000E+00 -0.45593999997E+02  0.45594000000E+02  0.51100000000E-03 0. -1.
    9900012    2    1    2    0    0  0.15473535158E+02  0.12156092307E+02 -0.35580475518E+02  0.50528793066E+02  0.29999797001E+02 0.  0.
        -12    1    1    2    0    0 -0.15473535158E+02 -0.12156092307E+02  0.35580475518E+02  0.40659206934E+02  0.00000000000E+00 0.  1.
         11    1    3    3    0    0  0.16152965293E+02 -0.49380080209E+01 -0.21147544705E+02  0.27065122543E+02  0.51100000000E-03 0. -1.
        -11    1    3    3    0    0 -0.82886300146E+00  0.65044465700E+01 -0.14616008797E+01  0.67179696672E+01  0.51100000000E-03 0.  1.
         12    1    3    3    0    0  0.14943286642E+00  0.10589653758E+02 -0.12971329934E+02  0.16745700855E+02  0.00000000000E+00 0. -1.
</event>
<event>
 7    1  0.4963616E-011  0.5052888E+02  0.7816164E-02  0.1300439E+00
        -11   -1    0    0    0    0  0.00000000000E+00  0.00000000000E+00  0.45593999997E+02  0.45594000000E+02  0.51100000000E-03 0. -1.
         11   -1    0    0    0    0 -0.00000000000E+00 -0.00000000000E+00 -0.45593999997E+02  0.45594000000E+02  0.51100000000E-03 0.  1.
    9900012    2    1    2    0    0 -0.36851435232E+02  0.15707219459E+01  0.17107568510E+02  0.50528876222E+02  0.30000049763E+02 0.  0.
        -12    1    1    2    0    0  0.36851435232E+02 -0.15707219459E+01 -0.17107568510E+02  0.40659123778E+02  0.00000000000E+00 0.  1.
         11    1    3    3    0    0 -0.11843255920E+02 -0.70401609269E+01 -0.16642005421E+01  0.13877901151E+02  0.51100000000E-03 0. -1.
        -11    1    3    3    0    0 -0.21908879163E+02  0.12765077655E+02  0.11810206376E+02  0.27971899625E+02  0.51100000000E-03 0.  1.
         12    1    3    3    0    0 -0.30993001496E+01 -0.41541947819E+01  0.69615626756E+01  0.86790754455E+01  0.00000000000E+00 0. -1.
</event>
<event>
 7    1  0.4963616E-011  0.5052886E+02  0.7816164E-02  0.1300439E+00
        -11   -1    0    0    0    0  0.00000000000E+00  0.00000000000E+00  0.45593999997E+02  0.45594000000E+02  0.51100000000E-03 0. -1.
         11   -1    0    0    0    0 -0.00000000000E+00 -0.00000000000E+00 -0.45593999997E+02  0.45594000000E+02  0.51100000000E-03 0.  1.
    9900012    2    1    2    0    0 -0.18038617164E+02 -0.36394700083E+02 -0.17887843647E+01  0.50528860156E+02  0.30000000931E+02 0.  0.
        -12    1    1    2    0    0  0.18038617164E+02  0.36394700083E+02  0.17887843647E+01  0.40659139844E+02  0.00000000000E+00 0.  1.
         11    1    3    3    0    0 -0.14122600242E+02 -0.16531888655E+02  0.29464390364E+01  0.21941574313E+02  0.51100000000E-03 0. -1.
        -11    1    3    3    0    0  0.73750410598E+01 -0.12519605101E+02 -0.78709987356E+00  0.14551675814E+02  0.51100000000E-03 0.  1.
         12    1    3    3    0    0 -0.11291057981E+02 -0.73432063274E+01 -0.39481235275E+01  0.14035610029E+02  0.00000000000E+00 0. -1.
</event>
<event>
 7    1  0.4963616E-011  0.5052886E+02  0.7816164E-02  0.1300439E+00
        -11   -1    0    0    0    0  0.00000000000E+00  0.00000000000E+00  0.45593999997E+02  0.45594000000E+02  0.51100000000E-03 0. -1.
         11   -1    0    0    0    0 -0.00000000000E+00 -0.00000000000E+00 -0.45593999997E+02  0.45594000000E+02  0.51100000000E-03 0.  1.
    9900012    2    1    2    0    0  0.29262789966E+02 -0.28003406628E+02 -0.35586179583E+01  0.50528863006E+02  0.30000009592E+02 0.  0.
        -12    1    1    2    0    0 -0.29262789966E+02  0.28003406628E+02  0.35586179583E+01  0.40659136994E+02  0.00000000000E+00 0.  1.
         11    1    3    3    0    0  0.25238576772E+02 -0.26992055142E+02  0.23381947757E+01  0.37027340619E+02  0.51100000000E-03 0. -1.
        -11    1    3    3    0    0  0.68628859636E+01  0.12125986045E+01 -0.46894831171E+00  0.69849489551E+01  0.51100000000E-03 0.  1.
         12    1    3    3    0    0 -0.28386727697E+01 -0.22239500904E+01 -0.54278644223E+01  0.65165734312E+01  0.00000000000E+00 0. -1.
</event>
<event>
 7    1  0.4963616E-011  0.5052885E+02  0.7816164E-02  0.1300439E+00
        -11   -1    0    0    0    0  0.00000000000E+00  0.00000000000E+00  0.45593999997E+02  0.45594000000E+02  0.51100000000E-03 0.  1.
         11   -1    0    0    0    0 -0.00000000000E+00 -0.00000000000E+00 -0.45593999997E+02  0.45594000000E+02  0.51100000000E-03 0. -1.
    9900012    2    1    2    0    0 -0.23937117851E+02  0.32717837289E+02  0.31182835536E+01  0.50528853671E+02  0.29999981220E+02 0.  0.
        -12    1    1    2    0    0  0.23937117851E+02 -0.32717837289E+02 -0.31182835536E+01  0.40659146329E+02  0.00000000000E+00 0.  1.
         11    1    3    3    0    0 -0.18584395658E+02  0.15663851051E+02 -0.50228706766E+01  0.24818646656E+02  0.51100000000E-03 0. -1.
        -11    1    3    3    0    0  0.90236131758E+00  0.12462382003E+01  0.85674761133E+01  0.87045397818E+01  0.51100000000E-03 0.  1.
         12    1    3    3    0    0 -0.62550835105E+01  0.15807748037E+02 -0.42632188314E+00  0.17005667234E+02  0.00000000000E+00 0. -1.
</event>
<event>
 7    1  0.4963616E-011  0.5052886E+02  0.7816164E-02  0.1300439E+00
        -11   -1    0    0    0    0  0.00000000000E+00  0.00000000000E+00  0.45593999997E+02  0.45594000000E+02  0.51100000000E-03 0. -1.
         11   -1    0    0    0    0 -0.00000000000E+00 -0.00000000000E+00 -0.45593999997E+02  0.45594000000E+02  0.51100000000E-03 0.  1.
    9900012    2    1    2    0    0  0.10048012011E+02 -0.24572829803E+02  0.30795760208E+02  0.50528863798E+02  0.30000012001E+02 0.  0.
        -12    1    1    2    0    0 -0.10048012011E+02  0.24572829803E+02 -0.30795760208E+02  0.40659136202E+02  0.00000000000E+00 0.  1.
         11    1    3    3    0    0  0.64019956408E+01 -0.21283716682E+02  0.95914663253E+01  0.24206990117E+02  0.51100000000E-03 0. -1.
        -11    1    3    3    0    0  0.42688093477E+01  0.49907860429E+01  0.13417811700E+02  0.14938820223E+02  0.51100000000E-03 0.  1.
         12    1    3    3    0    0 -0.62279297744E+00 -0.82798991637E+01  0.77864821829E+01  0.11383053459E+02  0.00000000000E+00 0. -1.
</event>
<event>
 7    1  0.4963616E-011  0.5052886E+02  0.7816164E-02  0.1300439E+00
        -11   -1    0    0    0    0  0.00000000000E+00  0.00000000000E+00  0.45593999997E+02  0.45594000000E+02  0.51100000000E-03 0.  1.
         11   -1    0    0    0    0 -0.00000000000E+00 -0.00000000000E+00 -0.45593999997E+02  0.45594000000E+02  0.51100000000E-03 0. -1.
    9900012    2    1    2    0    0 -0.27052423632E+01  0.23233426179E+02 -0.33257409470E+02  0.50528859418E+02  0.29999998687E+02 0.  0.
        -12    1    1    2    0    0  0.27052423632E+01 -0.23233426179E+02  0.33257409470E+02  0.40659140582E+02  0.00000000000E+00 0.  1.
         11    1    3    3    0    0  0.97260297705E+01  0.12530992340E+02 -0.25421456013E+02  0.29964509844E+02  0.51100000000E-03 0. -1.
        -11    1    3    3    0    0 -0.71292550989E+01  0.74435393397E+01  0.31183146340E+00  0.10311633978E+02  0.51100000000E-03 0.  1.
         12    1    3    3    0    0 -0.53020170348E+01  0.32588944990E+01 -0.81477849199E+01  0.10252715596E+02  0.00000000000E+00 0. -1.
</event>
<event>
 7    1  0.4963616E-011  0.5052888E+02  0.7816164E-02  0.1300439E+00
        -11   -1    0    0    0    0  0.00000000000E+00  0.00000000000E+00  0.45593999997E+02  0.45594000000E+02  0.51100000000E-03 0.  1.
         11   -1    0    0    0    0 -0.00000000000E+00 -0.00000000000E+00 -0.45593999997E+02  0.45594000000E+02  0.51100000000E-03 0. -1.
    9900012    2    1    2    0    0 -0.90452352442E+01  0.26602233845E+01 -0.39550862374E+02  0.50528883143E+02  0.30000070801E+02 0.  0.
        -12    1    1    2    0    0  0.90452352442E+01 -0.26602233845E+01  0.39550862374E+02  0.40659116857E+02  0.00000000000E+00 0.  1.
         11    1    3    3    0    0 -0.12582477430E+02 -0.26609116771E+01 -0.36800825215E+02  0.38983328821E+02  0.51100000000E-03 0. -1.
        -11    1    3    3    0    0  0.55666631741E+01  0.32678303490E+01  0.12874510597E+01  0.65820957586E+01  0.51100000000E-03 0.  1.
        -12    1    3    3    0    0 -0.20294209879E+01  0.20533047126E+01 -0.40374882191E+01  0.49634585631E+01  0.00000000000E+00 0.  1.
</event>
<event>
 7    1  0.4963616E-011  0.5052886E+02  0.7816164E-02  0.1300439E+00
        -11   -1    0    0    0    0  0.00000000000E+00  0.00000000000E+00  0.45593999997E+02  0.45594000000E+02  0.51100000000E-03 0.  1.
         11   -1    0    0    0    0 -0.00000000000E+00 -0.00000000000E+00 -0.45593999997E+02  0.45594000000E+02  0.51100000000E-03 0. -1.
    9900012    2    1    2    0    0 -0.22663857584E+02  0.15288412998E+02 -0.30096175433E+02  0.50528858490E+02  0.29999995866E+02 0.  0.
        -12    1    1    2    0    0  0.22663857584E+02 -0.15288412998E+02  0.30096175433E+02  0.40659141510E+02  0.00000000000E+00 0.  1.
         11    1    3    3    0    0 -0.15092159240E+02  0.83765615875E+01 -0.51202559264E+00  0.17268532799E+02  0.51100000000E-03 0. -1.
        -11    1    3    3    0    0 -0.83234590051E+01  0.68096735293E+00 -0.21213497872E+02  0.22798161736E+02  0.51100000000E-03 0.  1.
        -12    1    3    3    0    0  0.75176066075E+00  0.62308840574E+01 -0.83706519693E+01  0.10462163955E+02  0.00000000000E+00 0.  1.
</event>
<event>
 7    1  0.4963616E-011  0.5052886E+02  0.7816164E-02  0.1300439E+00
        -11   -1    0    0    0    0  0.00000000000E+00  0.00000000000E+00  0.45593999997E+02  0.45594000000E+02  0.51100000000E-03 0.  1.
         11   -1    0    0    0    0 -0.00000000000E+00 -0.00000000000E+00 -0.45593999997E+02  0.45594000000E+02  0.51100000000E-03 0. -1.
    9900012    2    1    2    0    0 -0.28586704225E+02  0.28000428085E+02 -0.72070809122E+01  0.50528860232E+02  0.30000001161E+02 0.  0.
        -12    1    1    2    0    0  0.28586704225E+02 -0.28000428085E+02  0.72070809122E+01  0.40659139768E+02  0.00000000000E+00 0.  1.
         11    1    3    3    0    0 -0.95916878443E+00  0.17555504350E+02 -0.78962539169E+01  0.19273467875E+02  0.51100000000E-03 0. -1.
        -11    1    3    3    0    0 -0.13623037587E+02  0.76910787470E+01  0.48670953980E+01  0.16383786597E+02  0.51100000000E-03 0.  1.
         12    1    3    3    0    0 -0.14004497854E+02  0.27538449880E+01 -0.41779223933E+01  0.14871605760E+02  0.00000000000E+00 0. -1.
</event>
<event>
 7    1  0.4963616E-011  0.5052879E+02  0.7816164E-02  0.1300439E+00
        -11   -1    0    0    0    0  0.00000000000E+00  0.00000000000E+00  0.45593999997E+02  0.45594000000E+02  0.51100000000E-03 0.  1.
         11   -1    0    0    0    0 -0.00000000000E+00 -0.00000000000E+00 -0.45593999997E+02  0.45594000000E+02  0.51100000000E-03 0. -1.
    9900012    2    1    2    0    0  0.39160038835E+02 -0.10733597179E+02  0.21100558461E+01  0.50528793347E+02  0.29999797857E+02 0.  0.
        -12    1    1    2    0    0 -0.39160038835E+02  0.10733597179E+02 -0.21100558461E+01  0.40659206653E+02  0.00000000000E+00 0.  1.
         11    1    3    3    0    0  0.36939858680E+01 -0.49971070255E+01 -0.44174221707E+01  0.76243182720E+01  0.51100000000E-03 0. -1.
        -11    1    3    3    0    0  0.15118882694E+02  0.87122240403E+01  0.26289333193E+01  0.17646380714E+02  0.51100000000E-03 0.  1.
        -12    1    3    3    0    0  0.20347170274E+02 -0.14448714194E+02  0.38985446975E+01  0.25258094361E+02  0.00000000000E+00 0.  1.
</event>
<event>
 7    1  0.4963616E-011  0.5052886E+02  0.7816164E-02  0.1300439E+00
        -11   -1    0    0    0    0  0.00000000000E+00  0.00000000000E+00  0.45593999997E+02  0.45594000000E+02  0.51100000000E-03 0. -1.
         11   -1    0    0    0    0 -0.00000000000E+00 -0.00000000000E+00 -0.45593999997E+02  0.45594000000E+02  0.51100000000E-03 0.  1.
    9900012    2    1    2    0    0 -0.10065217199E+02  0.24934675053E+02  0.30497859200E+02  0.50528855480E+02  0.29999986718E+02 0.  0.
        -12    1    1    2    0    0  0.10065217199E+02 -0.24934675053E+02 -0.30497859200E+02  0.40659144520E+02  0.00000000000E+00 0.  1.
         11    1    3    3    0    0 -0.92306054219E+01  0.20824608590E+02  0.11155240507E+02  0.25363512974E+02  0.51100000000E-03 0. -1.
        -11    1    3    3    0    0 -0.63722373356E+01 -0.85308540344E+00  0.27692504872E+01  0.70001365622E+01  0.51100000000E-03 0.  1.
         12    1    3    3    0    0  0.55376255589E+01  0.49631518670E+01  0.16573368206E+02  0.18165205944E+02  0.00000000000E+00 0. -1.
</event>
<event>
 7    1  0.4963616E-011  0.5052886E+02  0.7816164E-02  0.1300439E+00
        -11   -1    0    0    0    0  0.00000000000E+00  0.00000000000E+00  0.45593999997E+02  0.45594000000E+02  0.51100000000E-03 0. -1.
         11   -1    0    0    0    0 -0.00000000000E+00 -0.00000000000E+00 -0.45593999997E+02  0.45594000000E+02  0.51100000000E-03 0.  1.
    9900012    2    1    2    0    0 -0.18392657829E+01  0.35120603108E+02  0.20404064505E+02  0.50528861918E+02  0.30000006285E+02 0.  0.
        -12    1    1    2    0    0  0.18392657829E+01 -0.35120603108E+02 -0.20404064505E+02  0.40659138082E+02  0.00000000000E+00 0.  1.
         11    1    3    3    0    0  0.19419943762E+01  0.23403566651E+02  0.20229117066E+02  0.30995410171E+02  0.51100000000E-03 0. -1.
        -11    1    3    3    0    0 -0.70497898636E+01  0.13909339779E+02  0.27961767909E+00  0.15596392420E+02  0.51100000000E-03 0.  1.
         12    1    3    3    0    0  0.32685297045E+01 -0.21923033221E+01 -0.10467024008E+00  0.39370593270E+01  0.00000000000E+00 0. -1.
</event>
<event>
 7    1  0.4963616E-011  0.5052886E+02  0.7816164E-02  0.1300439E+00
        -11   -1    0    0    0    0  0.00000000000E+00  0.00000000000E+00  0.45593999997E+02  0.45594000000E+02  0.51100000000E-03 0.  1.
         11   -1    0    0    0    0 -0.00000000000E+00 -0.00000000000E+00 -0.45593999997E+02  0.45594000000E+02  0.51100000000E-03 0. -1.
    9900012    2    1    2    0    0  0.37231603771E+02 -0.88191732530E+01 -0.13754844127E+02  0.50528857447E+02  0.29999992695E+02 0.  0.
        -12    1    1    2    0    0 -0.37231603771E+02  0.88191732530E+01  0.13754844127E+02  0.40659142553E+02  0.00000000000E+00 0.  1.
         11    1    3    3    0    0  0.39537024144E+01  0.50924976513E+00  0.38569361442E+01  0.55468058184E+01  0.51100000000E-03 0.  1.
        -11    1    3    3    0    0  0.34245054993E+02 -0.30557849230E+01 -0.11724765226E+02  0.36325359363E+02  0.51100000000E-03 0. -1.
        -12    1    3    3    0    0 -0.96715363694E+00 -0.62726380952E+01 -0.58870150456E+01  0.86566922654E+01  0.00000000000E+00 0.  1.
</event>
<event>
 7    1  0.4963616E-011  0.5052886E+02  0.7816164E-02  0.1300439E+00
        -11   -1    0    0    0    0  0.00000000000E+00  0.00000000000E+00  0.45593999997E+02  0.45594000000E+02  0.51100000000E-03 0.  1.
         11   -1    0    0    0    0 -0.00000000000E+00 -0.00000000000E+00 -0.45593999997E+02  0.45594000000E+02  0.51100000000E-03 0. -1.
    9900012    2    1    2    0    0 -0.13889721435E+02  0.15804422555E+02 -0.34791693512E+02  0.50528855011E+02  0.29999985292E+02 0.  0.
        -12    1    1    2    0    0  0.13889721435E+02 -0.15804422555E+02  0.34791693512E+02  0.40659144989E+02  0.00000000000E+00 0.  1.
         11    1    3    3    0    0  0.56296301801E+01  0.12550020937E+02 -0.23274080136E+02  0.27034765912E+02  0.51100000000E-03 0. -1.
        -11    1    3    3    0    0 -0.64197602243E+01 -0.13137181742E+01 -0.29300639284E+01  0.71780534732E+01  0.51100000000E-03 0.  1.
         12    1    3    3    0    0 -0.13099591391E+02  0.45681197922E+01 -0.85875494474E+01  0.16316035626E+02  0.00000000000E+00 0. -1.
</event>
<event>
 7    1  0.4963616E-011  0.5052886E+02  0.7816164E-02  0.1300439E+00
        -11   -1    0    0    0    0  0.00000000000E+00  0.00000000000E+00  0.45593999997E+02  0.45594000000E+02  0.51100000000E-03 0. -1.
         11   -1    0    0    0    0 -0.00000000000E+00 -0.00000000000E+00 -0.45593999997E+02  0.45594000000E+02  0.51100000000E-03 0.  1.
    9900012    2    1    2    0    0  0.26587268842E+02  0.10815104621E+02  0.28797850701E+02  0.50528861330E+02  0.30000004498E+02 0.  0.
        -12    1    1    2    0    0 -0.26587268842E+02 -0.10815104621E+02 -0.28797850701E+02  0.40659138670E+02  0.00000000000E+00 0.  1.
         11    1    3    3    0    0 -0.17809795776E+00 -0.49982720584E+00  0.23078053953E+01  0.23680186067E+01  0.51100000000E-03 0. -1.
        -11    1    3    3    0    0  0.69474436754E+01 -0.87449699266E+01  0.12227823624E+02  0.16560831606E+02  0.51100000000E-03 0.  1.
        -12    1    3    3    0    0  0.19817923124E+02  0.20059901753E+02  0.14262221681E+02  0.31600011117E+02  0.00000000000E+00 0.  1.
</event>
<event>
 7    1  0.4963616E-011  0.5052885E+02  0.7816164E-02  0.1300439E+00
        -11   -1    0    0    0    0  0.00000000000E+00  0.00000000000E+00  0.45593999997E+02  0.45594000000E+02  0.51100000000E-03 0.  1.
         11   -1    0    0    0    0 -0.00000000000E+00 -0.00000000000E+00 -0.45593999997E+02  0.45594000000E+02  0.51100000000E-03 0. -1.
    9900012    2    1    2    0    0  0.17632317899E+02 -0.19073651121E+02 -0.31280400371E+02  0.50528852825E+02  0.29999978647E+02 0.  0.
        -12    1    1    2    0    0 -0.17632317899E+02  0.19073651121E+02  0.31280400371E+02  0.40659147175E+02  0.00000000000E+00 0.  1.
         11    1    3    3    0    0  0.30252844445E+01 -0.14433460889E+02 -0.11637988112E+02  0.18786162641E+02  0.51100000000E-03 0. -1.
        -11    1    3    3    0    0 -0.31812332582E+00  0.60880548158E+01 -0.77072173764E+01  0.98268414986E+01  0.51100000000E-03 0.  1.
        -12    1    3    3    0    0  0.14925156780E+02 -0.10728245048E+02 -0.11935194883E+02  0.21915848686E+02  0.00000000000E+00 0.  1.
</event>
<event>
 7    1  0.4963616E-011  0.5052887E+02  0.7816164E-02  0.1300439E+00
        -11   -1    0    0    0    0  0.00000000000E+00  0.00000000000E+00  0.45593999997E+02  0.45594000000E+02  0.51100000000E-03 0.  1.
         11   -1    0    0    0    0 -0.00000000000E+00 -0.00000000000E+00 -0.45593999997E+02  0.45594000000E+02  0.51100000000E-03 0. -1.
    9900012    2    1    2    0    0 -0.27033390435E+00 -0.23590692741E+02 -0.33114517844E+02  0.50528866260E+02  0.30000019484E+02 0.  0.
        -12    1    1    2    0    0  0.27033390435E+00  0.23590692741E+02  0.33114517844E+02  0.40659133740E+02  0.00000000000E+00 0.  1.
         11    1    3    3    0    0  0.81585853642E+01 -0.84578902946E+01 -0.17283151259E+02  0.20899898111E+02  0.51100000000E-03 0. -1.
        -11    1    3    3    0    0 -0.77634226643E+01  0.17181057587E+01 -0.69945681955E+01  0.10589929337E+02  0.51100000000E-03 0.  1.
        -12    1    3    3    0    0 -0.66549660426E+00 -0.16850908205E+02 -0.88367983904E+01  0.19039038811E+02  0.00000000000E+00 0.  1.
</event>
<event>
 7    1  0.4963616E-011  0.5052884E+02  0.7816164E-02  0.1300439E+00
        -11   -1    0    0    0    0  0.00000000000E+00  0.00000000000E+00  0.45593999997E+02  0.45594000000E+02  0.51100000000E-03 0. -1.
         11   -1    0    0    0    0 -0.00000000000E+00 -0.00000000000E+00 -0.45593999997E+02  0.45594000000E+02  0.51100000000E-03 0.  1.
    9900012    2    1    2    0    0  0.14877944482E+02  0.27620242534E+02  0.25863804925E+02  0.50528838242E+02  0.29999934321E+02 0.  0.
        -12    1    1    2    0    0 -0.14877944482E+02 -0.27620242534E+02 -0.25863804925E+02  0.40659161758E+02  0.00000000000E+00 0.  1.
         11    1    3    3    0    0 -0.79925528006E+01  0.54779400564E+01  0.91222025641E+01  0.13308016660E+02  0.51100000000E-03 0. -1.
        -11    1    3    3    0    0  0.17865639869E+02  0.16911261245E+02  0.79951783952E+01  0.25866865342E+02  0.51100000000E-03 0.  1.
        -12    1    3    3    0    0  0.50048574137E+01  0.52310412330E+01  0.87464239658E+01  0.11353956240E+02  0.00000000000E+00 0.  1.
</event>
<event>
 7    1  0.4963616E-011  0.5052890E+02  0.7816164E-02  0.1300439E+00
        -11   -1    0    0    0    0  0.00000000000E+00  0.00000000000E+00  0.45593999997E+02  0.45594000000E+02  0.51100000000E-03 0.  1.
         11   -1    0    0    0    0 -0.00000000000E+00 -0.00000000000E+00 -0.45593999997E+02  0.45594000000E+02  0.51100000000E-03 0. -1.
    9900012    2    1    2    0    0 -0.68666284777E+01 -0.24249006094E+02 -0.31906079421E+02  0.50528895396E+02  0.30000108047E+02 0.  0.
        -12    1    1    2    0    0  0.68666284777E+01  0.24249006094E+02  0.31906079421E+02  0.40659104604E+02  0.00000000000E+00 0.  1.
         11    1    3    3    0    0 -0.66154245868E+01 -0.20715270589E+02 -0.31540687081E+02  0.38310588873E+02  0.51100000000E-03 0. -1.
        -11    1    3    3    0    0 -0.86292255546E+00 -0.49510512351E-01  0.53920720743E+01  0.54609090949E+01  0.51100000000E-03 0.  1.
        -12    1    3    3    0    0  0.61171866456E+00 -0.34842249927E+01 -0.57574644139E+01  0.67573974281E+01  0.00000000000E+00 0.  1.
</event>
<event>
 7    1  0.4963616E-011  0.5052886E+02  0.7816164E-02  0.1300439E+00
        -11   -1    0    0    0    0  0.00000000000E+00  0.00000000000E+00  0.45593999997E+02  0.45594000000E+02  0.51100000000E-03 0.  1.
         11   -1    0    0    0    0 -0.00000000000E+00 -0.00000000000E+00 -0.45593999997E+02  0.45594000000E+02  0.51100000000E-03 0. -1.
    9900012    2    1    2    0    0 -0.37257546022E+02 -0.15743070742E+02 -0.41468595851E+01  0.50528862572E+02  0.30000008273E+02 0.  0.
        -12    1    1    2    0    0  0.37257546022E+02  0.15743070742E+02  0.41468595851E+01  0.40659137428E+02  0.00000000000E+00 0.  1.
         11    1    3    3    0    0  0.18779934821E+01 -0.70915644576E+01 -0.17198472502E+01  0.75349200925E+01  0.51100000000E-03 0. -1.
        -11    1    3    3    0    0 -0.27687462647E+02  0.12483101379E+01 -0.27822366266E+01  0.27854886590E+02  0.51100000000E-03 0.  1.
        -12    1    3    3    0    0 -0.11448076857E+02 -0.98998164221E+01  0.35522429165E+00  0.15139055889E+02  0.00000000000E+00 0.  1.
</event>
<event>
 7    1  0.4963616E-011  0.5052886E+02  0.7816164E-02  0.1300439E+00
        -11   -1    0    0    0    0  0.00000000000E+00  0.00000000000E+00  0.45593999997E+02  0.45594000000E+02  0.51100000000E-03 0. -1.
         11   -1    0    0    0    0 -0.00000000000E+00 -0.00000000000E+00 -0.45593999997E+02  0.45594000000E+02  0.51100000000E-03 0.  1.
    9900012    2    1    2    0    0 -0.21621843929E+02 -0.11508828330E+02  0.32453169840E+02  0.50528862072E+02  0.30000006753E+02 0.  0.
        -12    1    1    2    0    0  0.21621843929E+02  0.11508828330E+02 -0.32453169840E+02  0.40659137928E+02  0.00000000000E+00 0.  1.
         11    1    3    3    0    0 -0.10709092799E+02  0.11301953027E+00  0.27496751601E+02  0.29508791755E+02  0.51100000000E-03 0. -1.
        -11    1    3    3    0    0 -0.76982265853E+01 -0.14164759270E+02  0.51289324249E+01  0.16917713965E+02  0.51100000000E-03 0.  1.
         12    1    3    3    0    0 -0.32145245449E+01  0.25429114098E+01 -0.17251418586E+00  0.41023563512E+01  0.00000000000E+00 0. -1.
</event>
<event>
 7    1  0.5343601E-011  0.5052886E+02  0.7816164E-02  0.1300439E+00
        -11   -1    0    0    0    0  0.00000000000E+00  0.00000000000E+00  0.45593999997E+02  0.45594000000E+02  0.51100000000E-03 0. -1.
         11   -1    0    0    0    0 -0.00000000000E+00 -0.00000000000E+00 -0.45593999997E+02  0.45594000000E+02  0.51100000000E-03 0.  1.
    9900012    2    1    2    0    0  0.39348526907E+02  0.10217032742E+02  0.68676464303E+00  0.50528856213E+02  0.29999988945E+02 0.  0.
        -12    1    1    2    0    0 -0.39348526907E+02 -0.10217032742E+02 -0.68676464303E+00  0.40659143787E+02  0.00000000000E+00 0.  1.
         11    1    3    3    0    0  0.22883060030E+02 -0.41329077594E+01  0.24657390402E+01  0.23383653097E+02  0.51100000000E-03 0. -1.
        -11    1    3    3    0    0  0.47517787446E+01  0.11567488385E+02  0.48360754793E+01  0.13407975801E+02  0.51100000000E-03 0.  1.
        -12    1    3    3    0    0  0.11713688133E+02  0.27824521159E+01 -0.66150498765E+01  0.13737227316E+02  0.00000000000E+00 0.  1.
</event>
<event>
 7    1  0.4963616E-011  0.5052885E+02  0.7816164E-02  0.1300439E+00
        -11   -1    0    0    0    0  0.00000000000E+00  0.00000000000E+00  0.45593999997E+02  0.45594000000E+02  0.51100000000E-03 0.  1.
         11   -1    0    0    0    0 -0.00000000000E+00 -0.00000000000E+00 -0.45593999997E+02  0.45594000000E+02  0.51100000000E-03 0. -1.
    9900012    2    1    2    0    0 -0.37947632908E+02 -0.16225933456E+01 -0.14508989399E+02  0.50528850650E+02  0.29999972034E+02 0.  0.
        -12    1    1    2    0    0  0.37947632908E+02  0.16225933456E+01  0.14508989399E+02  0.40659149350E+02  0.00000000000E+00 0.  1.
         11    1    3    3    0    0 -0.36022352151E+01 -0.86718014849E+01 -0.96310309059E+01  0.13451133637E+02  0.51100000000E-03 0. -1.
        -11    1    3    3    0    0 -0.85705487774E+01  0.68331724968E+01 -0.91744879473E+00  0.10999466590E+02  0.51100000000E-03 0.  1.
         12    1    3    3    0    0 -0.25774848916E+02  0.21603564252E+00 -0.39605096987E+01  0.26078250423E+02  0.00000000000E+00 0. -1.
</event>
<event>
 7    1  0.4963616E-011  0.5052885E+02  0.7816164E-02  0.1300439E+00
        -11   -1    0    0    0    0  0.00000000000E+00  0.00000000000E+00  0.45593999997E+02  0.45594000000E+02  0.51100000000E-03 0.  1.
         11   -1    0    0    0    0 -0.00000000000E+00 -0.00000000000E+00 -0.45593999997E+02  0.45594000000E+02  0.51100000000E-03 0. -1.
    9900012    2    1    2    0    0 -0.16163870389E+02 -0.15296647461E+02 -0.34028051071E+02  0.50528851101E+02  0.29999973407E+02 0.  0.
        -12    1    1    2    0    0  0.16163870389E+02  0.15296647461E+02  0.34028051071E+02  0.40659148899E+02  0.00000000000E+00 0.  1.
         11    1    3    3    0    0 -0.13304657854E+02 -0.76356934482E+01 -0.18238206147E+02  0.23831699452E+02  0.51100000000E-03 0. -1.
        -11    1    3    3    0    0  0.17951286086E+01 -0.65802241168E+01  0.28960211982E+01  0.74100455593E+01  0.51100000000E-03 0.  1.
        -12    1    3    3    0    0 -0.46543411440E+01 -0.10807298957E+01 -0.18685866122E+02  0.19287106090E+02  0.00000000000E+00 0.  1.
</event>
<event>
 7    1  0.4963616E-011  0.5052887E+02  0.7816164E-02  0.1300439E+00
        -11   -1    0    0    0    0  0.00000000000E+00  0.00000000000E+00  0.45593999997E+02  0.45594000000E+02  0.51100000000E-03 0. -1.
         11   -1    0    0    0    0 -0.00000000000E+00 -0.00000000000E+00 -0.45593999997E+02  0.45594000000E+02  0.51100000000E-03 0.  1.
    9900012    2    1    2    0    0 -0.21050869936E+02  0.28241226520E+02  0.20309082958E+02  0.50528870016E+02  0.30000030901E+02 0.  0.
        -12    1    1    2    0    0  0.21050869936E+02 -0.28241226520E+02 -0.20309082958E+02  0.40659129984E+02  0.00000000000E+00 0.  1.
         11    1    3    3    0    0 -0.19280426987E+02  0.30843573305E+02  0.23930590931E+02  0.43540028268E+02  0.51100000000E-03 0. -1.
        -11    1    3    3    0    0 -0.18653428714E+01 -0.40055252787E+01 -0.20228005560E+01  0.48595739666E+01  0.51100000000E-03 0.  1.
         12    1    3    3    0    0  0.94899922490E-01  0.14031784937E+01 -0.15987074167E+01  0.21292677814E+01  0.00000000000E+00 0. -1.
</event>
<event>
 7    1  0.4963616E-011  0.5052887E+02  0.7816164E-02  0.1300439E+00
        -11   -1    0    0    0    0  0.00000000000E+00  0.00000000000E+00  0.45593999997E+02  0.45594000000E+02  0.51100000000E-03 0.  1.
         11   -1    0    0    0    0 -0.00000000000E+00 -0.00000000000E+00 -0.45593999997E+02  0.45594000000E+02  0.51100000000E-03 0. -1.
    9900012    2    1    2    0    0  0.31042132220E+02 -0.25025315111E+02 -0.79551719040E+01  0.50528866595E+02  0.30000020503E+02 0.  0.
        -12    1    1    2    0    0 -0.31042132220E+02  0.25025315111E+02  0.79551719040E+01  0.40659133405E+02  0.00000000000E+00 0.  1.
         11    1    3    3    0    0  0.88954541426E+01 -0.22727121713E+02 -0.22312876802E+01  0.24507750013E+02  0.51100000000E-03 0.  1.
        -11    1    3    3    0    0  0.15166248476E+02 -0.45622558452E+01 -0.87375882282E+01  0.18087971681E+02  0.51100000000E-03 0. -1.
        -12    1    3    3    0    0  0.69804296016E+01  0.22640624471E+01  0.30137040044E+01  0.79331449006E+01  0.00000000000E+00 0.  1.
</event>
<event>
 7    1  0.4963616E-011  0.5052887E+02  0.7816164E-02  0.1300439E+00
        -11   -1    0    0    0    0  0.00000000000E+00  0.00000000000E+00  0.45593999997E+02  0.45594000000E+02  0.51100000000E-03 0.  1.
         11   -1    0    0    0    0 -0.00000000000E+00 -0.00000000000E+00 -0.45593999997E+02  0.45594000000E+02  0.51100000000E-03 0. -1.
    9900012    2    1    2    0    0  0.36004923095E+02  0.32199064523E+01 -0.18612973351E+02  0.50528867427E+02  0.30000023031E+02 0.  0.
        -12    1    1    2    0    0 -0.36004923095E+02 -0.32199064523E+01  0.18612973351E+02  0.40659132573E+02  0.00000000000E+00 0.  1.
         11    1    3    3    0    0  0.80896436571E+01 -0.40580552811E+01 -0.14687635868E+02  0.17252153338E+02  0.51100000000E-03 0. -1.
        -11    1    3    3    0    0  0.14737700580E+02  0.10488736242E+02  0.25135190201E+01  0.18262836156E+02  0.51100000000E-03 0.  1.
        -12    1    3    3    0    0  0.13177578858E+02 -0.32107745089E+01 -0.64388565028E+01  0.15013877933E+02  0.00000000000E+00 0.  1.
</event>
<event>
 7    1  0.4963616E-011  0.5052886E+02  0.7816164E-02  0.1300439E+00
        -11   -1    0    0    0    0  0.00000000000E+00  0.00000000000E+00  0.45593999997E+02  0.45594000000E+02  0.51100000000E-03 0.  1.
         11   -1    0    0    0    0 -0.00000000000E+00 -0.00000000000E+00 -0.45593999997E+02  0.45594000000E+02  0.51100000000E-03 0. -1.
    9900012    2    1    2    0    0 -0.71464853785E+01  0.36476443819E+02 -0.16479163817E+02  0.50528855308E+02  0.29999986195E+02 0.  0.
        -12    1    1    2    0    0  0.71464853785E+01 -0.36476443819E+02  0.16479163817E+02  0.40659144692E+02  0.00000000000E+00 0.  1.
         11    1    3    3    0    0 -0.12927661934E+02  0.24305604385E+02 -0.68911433555E+01  0.28379124451E+02  0.51100000000E-03 0. -1.
        -11    1    3    3    0    0 -0.36977226066E+01 -0.68279007387E+00 -0.32401735001E+01  0.49636759898E+01  0.51100000000E-03 0.  1.
         12    1    3    3    0    0  0.94788991623E+01  0.12853629508E+02 -0.63478469615E+01  0.17186054867E+02  0.00000000000E+00 0. -1.
</event>
<event>
 7    1  0.4963616E-011  0.5052887E+02  0.7816164E-02  0.1300439E+00
        -11   -1    0    0    0    0  0.00000000000E+00  0.00000000000E+00  0.45593999997E+02  0.45594000000E+02  0.51100000000E-03 0. -1.
         11   -1    0    0    0    0 -0.00000000000E+00 -0.00000000000E+00 -0.45593999997E+02  0.45594000000E+02  0.51100000000E-03 0.  1.
    9900012    2    1    2    0    0  0.21791998611E+01  0.27690480304E+02  0.29692650256E+02  0.50528867069E+02  0.30000021943E+02 0.  0.
        -12    1    1    2    0    0 -0.21791998611E+01 -0.27690480304E+02 -0.29692650256E+02  0.40659132931E+02  0.00000000000E+00 0.  1.
         11    1    3    3    0    0  0.58820752460E+01  0.27533685175E+02  0.21436546302E+02  0.35386835774E+02  0.51100000000E-03 0. -1.
        -11    1    3    3    0    0  0.97752798451E+00 -0.31618889461E+01 -0.16471308471E+01  0.36967746694E+01  0.51100000000E-03 0.  1.
         12    1    3    3    0    0 -0.46804033694E+01  0.33186840751E+01  0.99032348016E+01  0.11445256626E+02  0.00000000000E+00 0. -1.
</event>
<event>
 7    1  0.4963616E-011  0.5052886E+02  0.7816164E-02  0.1300439E+00
        -11   -1    0    0    0    0  0.00000000000E+00  0.00000000000E+00  0.45593999997E+02  0.45594000000E+02  0.51100000000E-03 0.  1.
         11   -1    0    0    0    0 -0.00000000000E+00 -0.00000000000E+00 -0.45593999997E+02  0.45594000000E+02  0.51100000000E-03 0. -1.
    9900012    2    1    2    0    0  0.20508458029E+02 -0.24466413603E+02 -0.25178634944E+02  0.50528857081E+02  0.29999991582E+02 0.  0.
        -12    1    1    2    0    0 -0.20508458029E+02  0.24466413603E+02  0.25178634944E+02  0.40659142919E+02  0.00000000000E+00 0.  1.
         11    1    3    3    0    0 -0.13913999191E+01 -0.16243075191E+02 -0.11388874314E+02  0.19886677546E+02  0.51100000000E-03 0. -1.
        -11    1    3    3    0    0  0.15781706029E+02  0.10603364943E+01 -0.10720283192E+02  0.19107878759E+02  0.51100000000E-03 0.  1.
         12    1    3    3    0    0  0.61181519187E+01 -0.92836749058E+01 -0.30694774377E+01  0.11534300776E+02  0.00000000000E+00 0. -1.
</event>
<event>
 7    1  0.4963616E-011  0.5052886E+02  0.7816164E-02  0.1300439E+00
        -11   -1    0    0    0    0  0.00000000000E+00  0.00000000000E+00  0.45593999997E+02  0.45594000000E+02  0.51100000000E-03 0. -1.
         11   -1    0    0    0    0 -0.00000000000E+00 -0.00000000000E+00 -0.45593999997E+02  0.45594000000E+02  0.51100000000E-03 0.  1.
    9900012    2    1    2    0    0  0.31491476503E+02  0.21383212397E+02  0.14290236965E+02  0.50528859118E+02  0.29999997776E+02 0.  0.
        -12    1    1    2    0    0 -0.31491476503E+02 -0.21383212397E+02 -0.14290236965E+02  0.40659140882E+02  0.00000000000E+00 0.  1.
         11    1    3    3    0    0  0.18215707041E+02  0.13947435206E+02  0.90331560052E+01  0.24656456345E+02  0.51100000000E-03 0. -1.
        -11    1    3    3    0    0 -0.19938572976E+01  0.37055223869E+01 -0.54264384773E+01  0.68667749266E+01  0.51100000000E-03 0.  1.
        -12    1    3    3    0    0  0.15269626759E+02  0.37302548039E+01  0.10683519437E+02  0.19005627846E+02  0.00000000000E+00 0.  1.
</event>
<event>
 7    1  0.4963616E-011  0.5052888E+02  0.7816164E-02  0.1300439E+00
        -11   -1    0    0    0    0  0.00000000000E+00  0.00000000000E+00  0.45593999997E+02  0.45594000000E+02  0.51100000000E-03 0. -1.
         11   -1    0    0    0    0 -0.00000000000E+00 -0.00000000000E+00 -0.45593999997E+02  0.45594000000E+02  0.51100000000E-03 0.  1.
    9900012    2    1    2    0    0  0.10427182036E+02  0.31725530065E+02  0.23193291325E+02  0.50528878692E+02  0.30000057271E+02 0.  0.
        -12    1    1    2    0    0 -0.10427182036E+02 -0.31725530065E+02 -0.23193291325E+02  0.40659121308E+02  0.00000000000E+00 0.  1.
         11    1    3    3    0    0  0.12849487504E+02  0.13322367021E+02  0.20966896970E+02  0.27967938089E+02  0.51100000000E-03 0. -1.
        -11    1    3    3    0    0 -0.74417307171E+01  0.84954893456E+01  0.18770627917E+01  0.11448845368E+02  0.51100000000E-03 0.  1.
        -12    1    3    3    0    0  0.50194252486E+01  0.99076736985E+01  0.34933156290E+00  0.11112095234E+02  0.00000000000E+00 0.  1.
</event>
<event>
 7    1  0.4963616E-011  0.5052886E+02  0.7816164E-02  0.1300439E+00
        -11   -1    0    0    0    0  0.00000000000E+00  0.00000000000E+00  0.45593999997E+02  0.45594000000E+02  0.51100000000E-03 0. -1.
         11   -1    0    0    0    0 -0.00000000000E+00 -0.00000000000E+00 -0.45593999997E+02  0.45594000000E+02  0.51100000000E-03 0.  1.
    9900012    2    1    2    0    0 -0.16537472052E+02  0.35451582428E+02  0.11084358453E+02  0.50528859812E+02  0.29999999886E+02 0.  0.
        -12    1    1    2    0    0  0.16537472052E+02 -0.35451582428E+02 -0.11084358453E+02  0.40659140188E+02  0.00000000000E+00 0.  1.
         11    1    3    3    0    0 -0.19775574156E+02  0.35163606165E+02  0.14325497191E+02  0.42810891158E+02  0.51100000000E-03 0. -1.
        -11    1    3    3    0    0  0.23382163466E+00 -0.22551300151E+01 -0.30190626228E+01  0.37755825145E+01  0.51100000000E-03 0.  1.
         12    1    3    3    0    0  0.30042804690E+01  0.25431062773E+01 -0.22207611532E+00  0.39423861398E+01  0.00000000000E+00 0. -1.
</event>
<event>
 7    1  0.4963616E-011  0.5052886E+02  0.7816164E-02  0.1300439E+00
        -11   -1    0    0    0    0  0.00000000000E+00  0.00000000000E+00  0.45593999997E+02  0.45594000000E+02  0.51100000000E-03 0. -1.
         11   -1    0    0    0    0 -0.00000000000E+00 -0.00000000000E+00 -0.45593999997E+02  0.45594000000E+02  0.51100000000E-03 0.  1.
    9900012    2    1    2    0    0  0.58833336190E+01  0.26761081867E+02  0.30039918847E+02  0.50528857836E+02  0.29999993878E+02 0.  0.
        -12    1    1    2    0    0 -0.58833336190E+01 -0.26761081867E+02 -0.30039918847E+02  0.40659142164E+02  0.00000000000E+00 0.  1.
         11    1    3    3    0    0 -0.11232516029E+02  0.71960554652E+01  0.12077546867E+02  0.17994992892E+02  0.51100000000E-03 0. -1.
        -11    1    3    3    0    0  0.12371378823E+02  0.18153232331E+02  0.13007923353E+02  0.25530313909E+02  0.51100000000E-03 0.  1.
         12    1    3    3    0    0  0.47444708246E+01  0.14117940708E+01  0.49544486272E+01  0.70035510353E+01  0.00000000000E+00 0. -1.
</event>
<event>
 7    1  0.4963616E-011  0.5052886E+02  0.7816164E-02  0.1300439E+00
        -11   -1    0    0    0    0  0.00000000000E+00  0.00000000000E+00  0.45593999997E+02  0.45594000000E+02  0.51100000000E-03 0.  1.
         11   -1    0    0    0    0 -0.00000000000E+00 -0.00000000000E+00 -0.45593999997E+02  0.45594000000E+02  0.51100000000E-03 0. -1.
    9900012    2    1    2    0    0 -0.24359666303E+02  0.99957341674E+00 -0.32538788872E+02  0.50528864856E+02  0.30000015217E+02 0.  0.
        -12    1    1    2    0    0  0.24359666303E+02 -0.99957341674E+00  0.32538788872E+02  0.40659135144E+02  0.00000000000E+00 0.  1.
         11    1    3    3    0    0 -0.30447782480E+01 -0.10712549485E+01 -0.56748102770E+01  0.65285322765E+01  0.51100000000E-03 0. -1.
        -11    1    3    3    0    0  0.56406707498E+01 -0.35774923015E+01 -0.88638659028E+01  0.11098816904E+02  0.51100000000E-03 0.  1.
        -12    1    3    3    0    0 -0.26955558805E+02  0.56483206668E+01 -0.18000112692E+02  0.32901515675E+02  0.00000000000E+00 0.  1.
</event>
<event>
 7    1  0.4963616E-011  0.5052887E+02  0.7816164E-02  0.1300439E+00
        -11   -1    0    0    0    0  0.00000000000E+00  0.00000000000E+00  0.45593999997E+02  0.45594000000E+02  0.51100000000E-03 0.  1.
         11   -1    0    0    0    0 -0.00000000000E+00 -0.00000000000E+00 -0.45593999997E+02  0.45594000000E+02  0.51100000000E-03 0. -1.
    9900012    2    1    2    0    0 -0.18894490284E+02  0.15454949218E+02 -0.32516272447E+02  0.50528865820E+02  0.30000018146E+02 0.  0.
        -12    1    1    2    0    0  0.18894490284E+02 -0.15454949218E+02  0.32516272447E+02  0.40659134180E+02  0.00000000000E+00 0.  1.
         11    1    3    3    0    0 -0.17493727890E+02  0.16770685257E+01 -0.26689103753E+02  0.31955458590E+02  0.51100000000E-03 0. -1.
        -11    1    3    3    0    0 -0.22846983463E+01  0.79574918607E+01 -0.87112405676E+01  0.12017788305E+02  0.51100000000E-03 0.  1.
         12    1    3    3    0    0  0.88393595248E+00  0.58203888316E+01  0.28840718732E+01  0.65556189249E+01  0.00000000000E+00 0. -1.
</event>
<event>
 7    1  0.4963616E-011  0.5052886E+02  0.7816164E-02  0.1300439E+00
        -11   -1    0    0    0    0  0.00000000000E+00  0.00000000000E+00  0.45593999997E+02  0.45594000000E+02  0.51100000000E-03 0.  1.
         11   -1    0    0    0    0 -0.00000000000E+00 -0.00000000000E+00 -0.45593999997E+02  0.45594000000E+02  0.51100000000E-03 0. -1.
    9900012    2    1    2    0    0 -0.29017678105E+02  0.23140670426E+02 -0.16602701374E+02  0.50528856339E+02  0.29999989327E+02 0.  0.
        -12    1    1    2    0    0  0.29017678105E+02 -0.23140670426E+02  0.16602701374E+02  0.40659143661E+02  0.00000000000E+00 0.  1.
         11    1    3    3    0    0 -0.64206082702E+01  0.66668143733E+00 -0.45813106837E+01  0.79156226881E+01  0.51100000000E-03 0. -1.
        -11    1    3    3    0    0  0.17987615678E+01  0.97078881711E+01  0.41180710948E+01  0.10697529889E+02  0.51100000000E-03 0.  1.
        -12    1    3    3    0    0 -0.24395831403E+02  0.12766100817E+02 -0.16139461785E+02  0.31915703762E+02  0.00000000000E+00 0.  1.
</event>
<event>
 7    1  0.4963616E-011  0.5052889E+02  0.7816164E-02  0.1300439E+00
        -11   -1    0    0    0    0  0.00000000000E+00  0.00000000000E+00  0.45593999997E+02  0.45594000000E+02  0.51100000000E-03 0. -1.
         11   -1    0    0    0    0 -0.00000000000E+00 -0.00000000000E+00 -0.45593999997E+02  0.45594000000E+02  0.51100000000E-03 0.  1.
    9900012    2    1    2    0    0  0.19370051174E+02 -0.18555422830E+02  0.30555860637E+02  0.50528890096E+02  0.30000091937E+02 0.  0.
        -12    1    1    2    0    0 -0.19370051174E+02  0.18555422830E+02 -0.30555860637E+02  0.40659109904E+02  0.00000000000E+00 0.  1.
         11    1    3    3    0    0  0.22047558437E+02 -0.22688154876E+02  0.30338010273E+02  0.43831975455E+02  0.51100000000E-03 0. -1.
        -11    1    3    3    0    0 -0.14672134021E+01  0.11340645490E+01 -0.20370148218E+01  0.27546773339E+01  0.51100000000E-03 0.  1.
         12    1    3    3    0    0 -0.12102938607E+01  0.29986674965E+01  0.22548651853E+01  0.39422373074E+01  0.00000000000E+00 0. -1.
</event>
<event>
 7    1  0.4963616E-011  0.5052885E+02  0.7816164E-02  0.1300439E+00
        -11   -1    0    0    0    0  0.00000000000E+00  0.00000000000E+00  0.45593999997E+02  0.45594000000E+02  0.51100000000E-03 0.  1.
         11   -1    0    0    0    0 -0.00000000000E+00 -0.00000000000E+00 -0.45593999997E+02  0.45594000000E+02  0.51100000000E-03 0. -1.
    9900012    2    1    2    0    0  0.23231258941E+01  0.26677337664E+01 -0.40504972197E+02  0.50528849861E+02  0.29999969637E+02 0.  0.
        -12    1    1    2    0    0 -0.23231258941E+01 -0.26677337664E+01  0.40504972197E+02  0.40659150139E+02  0.00000000000E+00 0.  1.
         11    1    3    3    0    0 -0.10269698283E+02 -0.43786354183E+01 -0.12641339100E+02  0.16865426335E+02  0.51100000000E-03 0.  1.
        -11    1    3    3    0    0  0.11174986445E+02  0.95996027665E+01 -0.26748827454E+02  0.30537394547E+02  0.51100000000E-03 0. -1.
         12    1    3    3    0    0  0.14178377320E+01 -0.25532335818E+01 -0.11148056434E+01  0.31260289794E+01  0.00000000000E+00 0. -1.
</event>
<event>
 7    1  0.4963616E-011  0.5052872E+02  0.7816164E-02  0.1300439E+00
        -11   -1    0    0    0    0  0.00000000000E+00  0.00000000000E+00  0.45593999997E+02  0.45594000000E+02  0.51100000000E-03 0.  1.
         11   -1    0    0    0    0 -0.00000000000E+00 -0.00000000000E+00 -0.45593999997E+02  0.45594000000E+02  0.51100000000E-03 0. -1.
    9900012    2    1    2    0    0  0.21731561181E+02 -0.24251705201E+02 -0.24346884942E+02  0.50528723531E+02  0.29999585643E+02 0.  0.
        -12    1    1    2    0    0 -0.21731561181E+02  0.24251705201E+02  0.24346884942E+02  0.40659276469E+02  0.00000000000E+00 0.  1.
         11    1    3    3    0    0  0.46820681534E+01 -0.74151952083E+01  0.71616818336E-01  0.87699493385E+01  0.51100000000E-03 0. -1.
        -11    1    3    3    0    0  0.19329110341E+02 -0.16082060395E+02 -0.27881339956E+02  0.37544857053E+02  0.51100000000E-03 0.  1.
        -12    1    3    3    0    0 -0.22796173134E+01 -0.75444959832E+00  0.34628381955E+01  0.42139171397E+01  0.00000000000E+00 0.  1.
</event>
<event>
 7    1  0.4963616E-011  0.5052884E+02  0.7816164E-02  0.1300439E+00
        -11   -1    0    0    0    0  0.00000000000E+00  0.00000000000E+00  0.45593999997E+02  0.45594000000E+02  0.51100000000E-03 0. -1.
         11   -1    0    0    0    0 -0.00000000000E+00 -0.00000000000E+00 -0.45593999997E+02  0.45594000000E+02  0.51100000000E-03 0.  1.
    9900012    2    1    2    0    0 -0.29560169232E+02 -0.27067881609E+02  0.68332655075E+01  0.50528839441E+02  0.29999937966E+02 0.  0.
        -12    1    1    2    0    0  0.29560169232E+02  0.27067881609E+02 -0.68332655075E+01  0.40659160559E+02  0.00000000000E+00 0.  1.
         11    1    3    3    0    0  0.39047609525E+01 -0.53114780095E+01 -0.43567597429E+01  0.79019182772E+01  0.51100000000E-03 0. -1.
        -11    1    3    3    0    0 -0.83156922825E+01 -0.22401014800E+01  0.56893359153E+01  0.10321692506E+02  0.51100000000E-03 0.  1.
         12    1    3    3    0    0 -0.25149237902E+02 -0.19516302120E+02  0.55006893351E+01  0.32305228658E+02  0.00000000000E+00 0. -1.
</event>
<event>
 7    1  0.4963616E-011  0.5052886E+02  0.7816164E-02  0.1300439E+00
        -11   -1    0    0    0    0  0.00000000000E+00  0.00000000000E+00  0.45593999997E+02  0.45594000000E+02  0.51100000000E-03 0. -1.
         11   -1    0    0    0    0 -0.00000000000E+00 -0.00000000000E+00 -0.45593999997E+02  0.45594000000E+02  0.51100000000E-03 0.  1.
    9900012    2    1    2    0    0  0.38246422495E+02  0.84112491421E+01  0.10937439866E+02  0.50528861586E+02  0.30000005276E+02 0.  0.
        -12    1    1    2    0    0 -0.38246422495E+02 -0.84112491421E+01 -0.10937439866E+02  0.40659138414E+02  0.00000000000E+00 0.  1.
         11    1    3    3    0    0  0.65309725541E+01  0.76749064981E+01 -0.60279799382E+01  0.11742841847E+02  0.51100000000E-03 0. -1.
        -11    1    3    3    0    0  0.16515610420E+02  0.54805418587E+01  0.14546244416E+02  0.22680276751E+02  0.51100000000E-03 0.  1.
         12    1    3    3    0    0  0.15199839520E+02 -0.47441992147E+01  0.24191753888E+01  0.16105742988E+02  0.00000000000E+00 0. -1.
</event>
<event>
 7    1  0.4963616E-011  0.5052886E+02  0.7816164E-02  0.1300439E+00
        -11   -1    0    0    0    0  0.00000000000E+00  0.00000000000E+00  0.45593999997E+02  0.45594000000E+02  0.51100000000E-03 0.  1.
         11   -1    0    0    0    0 -0.00000000000E+00 -0.00000000000E+00 -0.45593999997E+02  0.45594000000E+02  0.51100000000E-03 0. -1.
    9900012    2    1    2    0    0 -0.27400147887E+02 -0.12158093605E+02 -0.27469591171E+02  0.50528858550E+02  0.29999996050E+02 0.  0.
        -12    1    1    2    0    0  0.27400147887E+02  0.12158093605E+02  0.27469591171E+02  0.40659141450E+02  0.00000000000E+00 0.  1.
         11    1    3    3    0    0 -0.77672526392E+01 -0.95006771010E+01 -0.27462680790E+02  0.30079759230E+02  0.51100000000E-03 0. -1.
        -11    1    3    3    0    0 -0.18676811290E+02 -0.32386166457E+01  0.94644982101E+00  0.18979138159E+02  0.51100000000E-03 0.  1.
         12    1    3    3    0    0 -0.95608395790E+00  0.58120014203E+00 -0.95336020200E+00  0.14699611608E+01  0.00000000000E+00 0. -1.
</event>
<event>
 7    1  0.4963616E-011  0.5052887E+02  0.7816164E-02  0.1300439E+00
        -11   -1    0    0    0    0  0.00000000000E+00  0.00000000000E+00  0.45593999997E+02  0.45594000000E+02  0.51100000000E-03 0. -1.
         11   -1    0    0    0    0 -0.00000000000E+00 -0.00000000000E+00 -0.45593999997E+02  0.45594000000E+02  0.51100000000E-03 0.  1.
    9900012    2    1    2    0    0  0.10436219144E+02  0.34524753053E+02  0.18769426680E+02  0.50528872842E+02  0.30000039490E+02 0.  0.
        -12    1    1    2    0    0 -0.10436219144E+02 -0.34524753053E+02 -0.18769426680E+02  0.40659127158E+02  0.00000000000E+00 0.  1.
         11    1    3    3    0    0  0.79065652775E+01  0.80450856083E+01  0.15635094709E+02  0.19279350709E+02  0.51100000000E-03 0. -1.
        -11    1    3    3    0    0 -0.56160199560E+01  0.15183870452E+02  0.55519950876E+01  0.17114737853E+02  0.51100000000E-03 0.  1.
         12    1    3    3    0    0  0.81456738222E+01  0.11295796992E+02 -0.24176631167E+01  0.14134784280E+02  0.00000000000E+00 0. -1.
</event>
<event>
 7    1  0.4963616E-011  0.5052887E+02  0.7816164E-02  0.1300439E+00
        -11   -1    0    0    0    0  0.00000000000E+00  0.00000000000E+00  0.45593999997E+02  0.45594000000E+02  0.51100000000E-03 0.  1.
         11   -1    0    0    0    0 -0.00000000000E+00 -0.00000000000E+00 -0.45593999997E+02  0.45594000000E+02  0.51100000000E-03 0. -1.
    9900012    2    1    2    0    0 -0.13657466661E+02 -0.25826831396E+02 -0.28277431063E+02  0.50528871590E+02  0.30000035685E+02 0.  0.
        -12    1    1    2    0    0  0.13657466661E+02  0.25826831396E+02  0.28277431063E+02  0.40659128410E+02  0.00000000000E+00 0.  1.
         11    1    3    3    0    0 -0.13406485622E+02 -0.45669907524E+01 -0.22231368291E+02  0.26359533335E+02  0.51100000000E-03 0. -1.
        -11    1    3    3    0    0  0.19013575328E+01 -0.12160510269E+02 -0.79155842281E+01  0.14633852685E+02  0.51100000000E-03 0.  1.
         12    1    3    3    0    0 -0.21523385720E+01 -0.90993303743E+01  0.18695214566E+01  0.95354855705E+01  0.00000000000E+00 0. -1.
</event>
<event>
 7    1  0.4963616E-011  0.5052883E+02  0.7816164E-02  0.1300439E+00
        -11   -1    0    0    0    0  0.00000000000E+00  0.00000000000E+00  0.45593999997E+02  0.45594000000E+02  0.51100000000E-03 0. -1.
         11   -1    0    0    0    0 -0.00000000000E+00 -0.00000000000E+00 -0.45593999997E+02  0.45594000000E+02  0.51100000000E-03 0.  1.
    9900012    2    1    2    0    0 -0.56099938040E+01  0.40269263789E+02  0.28710726823E+00  0.50528830467E+02  0.29999910686E+02 0.  0.
        -12    1    1    2    0    0  0.56099938040E+01 -0.40269263789E+02 -0.28710726823E+00  0.40659169533E+02  0.00000000000E+00 0.  1.
         11    1    3    3    0    0 -0.77638059631E+01  0.21297215304E+02 -0.85351326216E+01  0.24221819747E+02  0.51100000000E-03 0. -1.
        -11    1    3    3    0    0 -0.16862152208E+00 -0.24686587832E+01  0.31533228961E+01  0.40082608390E+01  0.51100000000E-03 0.  1.
         12    1    3    3    0    0  0.23224336812E+01  0.21440707268E+02  0.56689169938E+01  0.22298749880E+02  0.00000000000E+00 0. -1.
</event>
<event>
 7    1  0.4963616E-011  0.5052886E+02  0.7816164E-02  0.1300439E+00
        -11   -1    0    0    0    0  0.00000000000E+00  0.00000000000E+00  0.45593999997E+02  0.45594000000E+02  0.51100000000E-03 0.  1.
         11   -1    0    0    0    0 -0.00000000000E+00 -0.00000000000E+00 -0.45593999997E+02  0.45594000000E+02  0.51100000000E-03 0. -1.
    9900012    2    1    2    0    0 -0.70681652830E+01 -0.31167235129E+02 -0.25135834906E+02  0.50528859546E+02  0.29999999075E+02 0.  0.
        -12    1    1    2    0    0  0.70681652830E+01  0.31167235129E+02  0.25135834906E+02  0.40659140454E+02  0.00000000000E+00 0.  1.
         11    1    3    3    0    0 -0.10340042583E+02 -0.33830199323E+02 -0.14496757321E+02  0.38230286946E+02  0.51100000000E-03 0. -1.
        -11    1    3    3    0    0  0.97782557471E+00  0.28230146910E+01 -0.89772708533E+01  0.94613396005E+01  0.51100000000E-03 0.  1.
         12    1    3    3    0    0  0.22940517252E+01 -0.16005049689E+00 -0.16618067317E+01  0.28372329994E+01  0.00000000000E+00 0. -1.
</event>
<event>
 7    1  0.4963616E-011  0.5052886E+02  0.7816164E-02  0.1300439E+00
        -11   -1    0    0    0    0  0.00000000000E+00  0.00000000000E+00  0.45593999997E+02  0.45594000000E+02  0.51100000000E-03 0.  1.
         11   -1    0    0    0    0 -0.00000000000E+00 -0.00000000000E+00 -0.45593999997E+02  0.45594000000E+02  0.51100000000E-03 0. -1.
    9900012    2    1    2    0    0 -0.46379016159E+01 -0.28687880734E+01 -0.40291758245E+02  0.50528857622E+02  0.29999993229E+02 0.  0.
        -12    1    1    2    0    0  0.46379016159E+01  0.28687880734E+01  0.40291758245E+02  0.40659142378E+02  0.00000000000E+00 0.  1.
         11    1    3    3    0    0  0.49617502433E+01 -0.51318018616E+01 -0.31832538689E+02  0.32623072747E+02  0.51100000000E-03 0. -1.
        -11    1    3    3    0    0 -0.11580045730E+01  0.55389708798E+01 -0.21950223854E+00  0.56629810605E+01  0.51100000000E-03 0.  1.
         12    1    3    3    0    0 -0.84416472863E+01 -0.32759570916E+01 -0.82397173179E+01  0.12242803815E+02  0.00000000000E+00 0. -1.
</event>
<event>
 7    1  0.4963616E-011  0.5052888E+02  0.7816164E-02  0.1300439E+00
        -11   -1    0    0    0    0  0.00000000000E+00  0.00000000000E+00  0.45593999997E+02  0.45594000000E+02  0.51100000000E-03 0. -1.
         11   -1    0    0    0    0 -0.00000000000E+00 -0.00000000000E+00 -0.45593999997E+02  0.45594000000E+02  0.51100000000E-03 0.  1.
    9900012    2    1    2    0    0  0.26299379657E+02  0.27619331369E+02 -0.14095364466E+02  0.50528878821E+02  0.30000057665E+02 0.  0.
        -12    1    1    2    0    0 -0.26299379657E+02 -0.27619331369E+02  0.14095364466E+02  0.40659121179E+02  0.00000000000E+00 0.  1.
         11    1    3    3    0    0  0.16027036996E+02  0.25252065259E+02 -0.13880588534E+02  0.32972768356E+02  0.51100000000E-03 0. -1.
        -11    1    3    3    0    0  0.13407526318E+02 -0.33604608820E+00 -0.30950491018E+00  0.13415307768E+02  0.51100000000E-03 0.  1.
        -12    1    3    3    0    0 -0.31351836576E+01  0.27033121974E+01  0.94728977825E-01  0.41408026979E+01  0.00000000000E+00 0.  1.
</event>
<event>
 7    1  0.4963616E-011  0.5052886E+02  0.7816164E-02  0.1300439E+00
        -11   -1    0    0    0    0  0.00000000000E+00  0.00000000000E+00  0.45593999997E+02  0.45594000000E+02  0.51100000000E-03 0.  1.
         11   -1    0    0    0    0 -0.00000000000E+00 -0.00000000000E+00 -0.45593999997E+02  0.45594000000E+02  0.51100000000E-03 0. -1.
    9900012    2    1    2    0    0  0.12135790353E+02  0.13417917905E+02 -0.36412196615E+02  0.50528856002E+02  0.29999988302E+02 0.  0.
        -12    1    1    2    0    0 -0.12135790353E+02 -0.13417917905E+02  0.36412196615E+02  0.40659143998E+02  0.00000000000E+00 0.  1.
         11    1    3    3    0    0  0.16227589232E+02  0.78250699370E+01 -0.14549776182E+02  0.23157339204E+02  0.51100000000E-03 0. -1.
        -11    1    3    3    0    0 -0.58547133051E+01  0.97526557989E+01 -0.12060737633E+02  0.16578701865E+02  0.51100000000E-03 0.  1.
        -12    1    3    3    0    0  0.17629144257E+01 -0.41598078307E+01 -0.98016828004E+01  0.10792814933E+02  0.00000000000E+00 0.  1.
</event>
<event>
 7    1  0.4963616E-011  0.5052885E+02  0.7816164E-02  0.1300439E+00
        -11   -1    0    0    0    0  0.00000000000E+00  0.00000000000E+00  0.45593999997E+02  0.45594000000E+02  0.51100000000E-03 0. -1.
         11   -1    0    0    0    0 -0.00000000000E+00 -0.00000000000E+00 -0.45593999997E+02  0.45594000000E+02  0.51100000000E-03 0.  1.
    9900012    2    1    2    0    0 -0.23561361569E+02  0.18933428774E+02  0.27194742718E+02  0.50528849546E+02  0.29999968679E+02 0.  0.
        -12    1    1    2    0    0  0.23561361569E+02 -0.18933428774E+02 -0.27194742718E+02  0.40659150454E+02  0.00000000000E+00 0.  1.
         11    1    3    3    0    0 -0.10825580154E+02  0.25047294143E+02  0.14232694070E+02  0.30775472544E+02  0.51100000000E-03 0. -1.
        -11    1    3    3    0    0 -0.18555731011E+01 -0.31010154751E+01  0.32930506600E+01  0.48891340154E+01  0.51100000000E-03 0.  1.
         12    1    3    3    0    0 -0.10880208314E+02 -0.30128498940E+01  0.96689979882E+01  0.14864242986E+02  0.00000000000E+00 0. -1.
</event>
<event>
 7    1  0.4963616E-011  0.5052886E+02  0.7816164E-02  0.1300439E+00
        -11   -1    0    0    0    0  0.00000000000E+00  0.00000000000E+00  0.45593999997E+02  0.45594000000E+02  0.51100000000E-03 0.  1.
         11   -1    0    0    0    0 -0.00000000000E+00 -0.00000000000E+00 -0.45593999997E+02  0.45594000000E+02  0.51100000000E-03 0. -1.
    9900012    2    1    2    0    0  0.32107401599E+02 -0.24873874800E+02 -0.18895981969E+01  0.50528862450E+02  0.30000007902E+02 0.  0.
        -12    1    1    2    0    0 -0.32107401599E+02  0.24873874800E+02  0.18895981969E+01  0.40659137550E+02  0.00000000000E+00 0.  1.
         11    1    3    3    0    0  0.18360564210E+02 -0.44839986026E+01 -0.22835154905E+01  0.19037620777E+02  0.51100000000E-03 0. -1.
        -11    1    3    3    0    0 -0.38694936367E+01 -0.10422672898E+02 -0.12301414371E+01  0.11185630942E+02  0.51100000000E-03 0.  1.
        -12    1    3    3    0    0  0.17616331025E+02 -0.99672032990E+01  0.16240587308E+01  0.20305610731E+02  0.00000000000E+00 0.  1.
</event>
<event>
 7    1  0.4963616E-011  0.5052886E+02  0.7816164E-02  0.1300439E+00
        -11   -1    0    0    0    0  0.00000000000E+00  0.00000000000E+00  0.45593999997E+02  0.45594000000E+02  0.51100000000E-03 0.  1.
         11   -1    0    0    0    0 -0.00000000000E+00 -0.00000000000E+00 -0.45593999997E+02  0.45594000000E+02  0.51100000000E-03 0. -1.
    9900012    2    1    2    0    0  0.20328201234E+02 -0.20373929692E+01 -0.35153646345E+02  0.50528860968E+02  0.30000003398E+02 0.  0.
        -12    1    1    2    0    0 -0.20328201234E+02  0.20373929692E+01  0.35153646345E+02  0.40659139032E+02  0.00000000000E+00 0.  1.
         11    1    3    3    0    0  0.23336699237E+02 -0.76528330436E+01 -0.20977348645E+02  0.32298862849E+02  0.51100000000E-03 0. -1.
        -11    1    3    3    0    0 -0.99789051440E+00  0.26250741115E+01 -0.14350143204E+02  0.14622359926E+02  0.51100000000E-03 0.  1.
        -12    1    3    3    0    0 -0.20106074890E+01  0.29903659630E+01  0.17384550524E+00  0.36076381924E+01  0.00000000000E+00 0.  1.
</event>
<event>
 7    1  0.4963616E-011  0.5052886E+02  0.7816164E-02  0.1300439E+00
        -11   -1    0    0    0    0  0.00000000000E+00  0.00000000000E+00  0.45593999997E+02  0.45594000000E+02  0.51100000000E-03 0.  1.
         11   -1    0    0    0    0 -0.00000000000E+00 -0.00000000000E+00 -0.45593999997E+02  0.45594000000E+02  0.51100000000E-03 0. -1.
    9900012    2    1    2    0    0 -0.95681036113E+01 -0.14632856449E+02 -0.36708264281E+02  0.50528858825E+02  0.29999996885E+02 0.  0.
        -12    1    1    2    0    0  0.95681036113E+01  0.14632856449E+02  0.36708264281E+02  0.40659141175E+02  0.00000000000E+00 0.  1.
         11    1    3    3    0    0 -0.20220063173E+01 -0.15974827780E+02 -0.21390969178E+02  0.26774188966E+02  0.51100000000E-03 0. -1.
        -11    1    3    3    0    0 -0.70330108308E+01 -0.22379228056E+01  0.62540156254E+00  0.74069337250E+01  0.51100000000E-03 0.  1.
         12    1    3    3    0    0 -0.51308646322E+00  0.35798941370E+01 -0.15942696666E+02  0.16347736134E+02  0.00000000000E+00 0. -1.
</event>
<event>
 7    1  0.4963616E-011  0.5052885E+02  0.7816164E-02  0.1300439E+00
        -11   -1    0    0    0    0  0.00000000000E+00  0.00000000000E+00  0.45593999997E+02  0.45594000000E+02  0.51100000000E-03 0. -1.
         11   -1    0    0    0    0 -0.00000000000E+00 -0.00000000000E+00 -0.45593999997E+02  0.45594000000E+02  0.51100000000E-03 0.  1.
    9900012    2    1    2    0    0  0.33533825779E+02  0.26266480324E+01  0.22841839151E+02  0.50528851373E+02  0.29999974233E+02 0.  0.
        -12    1    1    2    0    0 -0.33533825779E+02 -0.26266480324E+01 -0.22841839151E+02  0.40659148627E+02  0.00000000000E+00 0.  1.
         11    1    3    3    0    0  0.12281473571E+01  0.83580344981E+01  0.68361081903E+01  0.10867265620E+02  0.51100000000E-03 0. -1.
        -11    1    3    3    0    0  0.64344888953E+01 -0.71568290757E+01  0.89198214917E+00  0.96653236975E+01  0.51100000000E-03 0.  1.
         12    1    3    3    0    0  0.25871189527E+02  0.14254426100E+01  0.15113748812E+02  0.29996262056E+02  0.00000000000E+00 0. -1.
</event>
<event>
 7    1  0.4963616E-011  0.5052887E+02  0.7816164E-02  0.1300439E+00
        -11   -1    0    0    0    0  0.00000000000E+00  0.00000000000E+00  0.45593999997E+02  0.45594000000E+02  0.51100000000E-03 0.  1.
         11   -1    0    0    0    0 -0.00000000000E+00 -0.00000000000E+00 -0.45593999997E+02  0.45594000000E+02  0.51100000000E-03 0. -1.
    9900012    2    1    2    0    0  0.33078561357E+02  0.22366460623E+01 -0.23536581193E+02  0.50528874809E+02  0.30000045469E+02 0.  0.
        -12    1    1    2    0    0 -0.33078561357E+02 -0.22366460623E+01  0.23536581193E+02  0.40659125191E+02  0.00000000000E+00 0.  1.
         11    1    3    3    0    0 -0.20620527757E+01 -0.15621374962E+01 -0.11760702928E+02  0.12041863180E+02  0.51100000000E-03 0. -1.
        -11    1    3    3    0    0  0.17102386119E+02  0.65167778530E+01 -0.44950086735E+01  0.18845824677E+02  0.51100000000E-03 0.  1.
         12    1    3    3    0    0  0.18038228014E+02 -0.27179942944E+01 -0.72808695913E+01  0.19641186952E+02  0.00000000000E+00 0. -1.
</event>
<event>
 7    1  0.4963616E-011  0.5052885E+02  0.7816164E-02  0.1300439E+00
        -11   -1    0    0    0    0  0.00000000000E+00  0.00000000000E+00  0.45593999997E+02  0.45594000000E+02  0.51100000000E-03 0. -1.
         11   -1    0    0    0    0 -0.00000000000E+00 -0.00000000000E+00 -0.45593999997E+02  0.45594000000E+02  0.51100000000E-03 0.  1.
    9900012    2    1    2    0    0 -0.16110547904E+02 -0.94159656143E+01  0.36124184031E+02  0.50528845629E+02  0.29999956775E+02 0.  0.
        -12    1    1    2    0    0  0.16110547904E+02  0.94159656143E+01 -0.36124184031E+02  0.40659154371E+02  0.00000000000E+00 0.  1.
         11    1    3    3    0    0 -0.11420409972E+02  0.12377462703E+01  0.87308725012E+01  0.14428649093E+02  0.51100000000E-03 0. -1.
        -11    1    3    3    0    0 -0.42508723321E+01 -0.10750254250E+02  0.30678550283E+02  0.32784315301E+02  0.51100000000E-03 0.  1.
        -12    1    3    3    0    0 -0.43926560003E+00  0.96542365849E-01 -0.32852387534E+01  0.33158812347E+01  0.00000000000E+00 0.  1.
</event>
<event>
 7    1  0.4963616E-011  0.5052883E+02  0.7816164E-02  0.1300439E+00
        -11   -1    0    0    0    0  0.00000000000E+00  0.00000000000E+00  0.45593999997E+02  0.45594000000E+02  0.51100000000E-03 0. -1.
         11   -1    0    0    0    0 -0.00000000000E+00 -0.00000000000E+00 -0.45593999997E+02  0.45594000000E+02  0.51100000000E-03 0.  1.
    9900012    2    1    2    0    0 -0.12822093269E+02 -0.33240186225E+02  0.19592144516E+02  0.50528829044E+02  0.29999906363E+02 0.  0.
        -12    1    1    2    0    0  0.12822093269E+02  0.33240186225E+02 -0.19592144516E+02  0.40659170956E+02  0.00000000000E+00 0.  1.
         11    1    3    3    0    0 -0.46096906620E+01 -0.35990153774E+02  0.16532089732E+02  0.39872928258E+02  0.51100000000E-03 0. -1.
        -11    1    3    3    0    0 -0.34298280949E+01 -0.44744083313E+00 -0.10163493081E+01  0.36051200031E+01  0.51100000000E-03 0.  1.
         12    1    3    3    0    0 -0.47825745118E+01  0.31974083827E+01  0.40764040924E+01  0.70507807831E+01  0.00000000000E+00 0. -1.
</event>
<event>
 7    1  0.4963616E-011  0.5052886E+02  0.7816164E-02  0.1300439E+00
        -11   -1    0    0    0    0  0.00000000000E+00  0.00000000000E+00  0.45593999997E+02  0.45594000000E+02  0.51100000000E-03 0.  1.
         11   -1    0    0    0    0 -0.00000000000E+00 -0.00000000000E+00 -0.45593999997E+02  0.45594000000E+02  0.51100000000E-03 0. -1.
    9900012    2    1    2    0    0  0.14034195876E+01 -0.32813623507E+02 -0.23967939860E+02  0.50528860617E+02  0.30000002331E+02 0.  0.
        -12    1    1    2    0    0 -0.14034195876E+01  0.32813623507E+02  0.23967939860E+02  0.40659139383E+02  0.00000000000E+00 0.  1.
         11    1    3    3    0    0 -0.13445252085E+01 -0.31565231511E+01 -0.18794509244E+02  0.19105103099E+02  0.51100000000E-03 0. -1.
        -11    1    3    3    0    0  0.54935753318E+01 -0.18172798447E+02 -0.49240918208E+01  0.19613175517E+02  0.51100000000E-03 0.  1.
         12    1    3    3    0    0 -0.27456305356E+01 -0.11484301909E+02 -0.24933879595E+00  0.11810582002E+02  0.00000000000E+00 0. -1.
</event>
<event>
 7    1  0.4963616E-011  0.5052888E+02  0.7816164E-02  0.1300439E+00
        -11   -1    0    0    0    0  0.00000000000E+00  0.00000000000E+00  0.45593999997E+02  0.45594000000E+02  0.51100000000E-03 0.  1.
         11   -1    0    0    0    0 -0.00000000000E+00 -0.00000000000E+00 -0.45593999997E+02  0.45594000000E+02  0.51100000000E-03 0. -1.
    9900012    2    1    2    0    0 -0.83840491410E+01  0.14299674682E+02 -0.37126694181E+02  0.50528875602E+02  0.30000047879E+02 0.  0.
        -12    1    1    2    0    0  0.83840491410E+01 -0.14299674682E+02  0.37126694181E+02  0.40659124398E+02  0.00000000000E+00 0.  1.
         11    1    3    3    0    0  0.75332109121E+00  0.15201009771E+02 -0.18495570907E+02  0.23952543376E+02  0.51100000000E-03 0. -1.
        -11    1    3    3    0    0 -0.11112397616E+02 -0.18246457817E+01 -0.20703734260E+02  0.23568184605E+02  0.51100000000E-03 0.  1.
         12    1    3    3    0    0  0.19750273839E+01  0.92331069253E+00  0.20726109867E+01  0.30081476201E+01  0.00000000000E+00 0. -1.
</event>
<event>
 7    1  0.4963616E-011  0.5052886E+02  0.7816164E-02  0.1300439E+00
        -11   -1    0    0    0    0  0.00000000000E+00  0.00000000000E+00  0.45593999997E+02  0.45594000000E+02  0.51100000000E-03 0.  1.
         11   -1    0    0    0    0 -0.00000000000E+00 -0.00000000000E+00 -0.45593999997E+02  0.45594000000E+02  0.51100000000E-03 0. -1.
    9900012    2    1    2    0    0 -0.21776520364E+02 -0.25788110655E+02 -0.22669856510E+02  0.50528857307E+02  0.29999992270E+02 0.  0.
        -12    1    1    2    0    0  0.21776520364E+02  0.25788110655E+02  0.22669856510E+02  0.40659142693E+02  0.00000000000E+00 0.  1.
         11    1    3    3    0    0 -0.61999114258E+01 -0.14922637869E+02 -0.19013739697E+02  0.24952882002E+02  0.51100000000E-03 0. -1.
        -11    1    3    3    0    0 -0.79263098390E+00 -0.58798006857E+01  0.49775644234E+01  0.77444475484E+01  0.51100000000E-03 0.  1.
        -12    1    3    3    0    0 -0.14783977954E+02 -0.49856721003E+01 -0.86336812370E+01  0.17831527757E+02  0.00000000000E+00 0.  1.
</event>
<event>
 7    1  0.4963616E-011  0.5052893E+02  0.7816164E-02  0.1300439E+00
        -11   -1    0    0    0    0  0.00000000000E+00  0.00000000000E+00  0.45593999997E+02  0.45594000000E+02  0.51100000000E-03 0. -1.
         11   -1    0    0    0    0 -0.00000000000E+00 -0.00000000000E+00 -0.45593999997E+02  0.45594000000E+02  0.51100000000E-03 0.  1.
    9900012    2    1    2    0    0  0.24833072000E+02  0.25075949151E+02  0.20190973029E+02  0.50528928655E+02  0.30000209140E+02 0.  0.
        -12    1    1    2    0    0 -0.24833072000E+02 -0.25075949151E+02 -0.20190973029E+02  0.40659071345E+02  0.00000000000E+00 0.  1.
         11    1    3    3    0    0  0.28018408978E+02  0.12888481181E+02  0.15236493555E+02  0.34399054128E+02  0.51100000000E-03 0. -1.
        -11    1    3    3    0    0  0.48420589480E+00  0.20025135205E+01 -0.23079325779E+01  0.30937144008E+01  0.51100000000E-03 0.  1.
         12    1    3    3    0    0 -0.36695428730E+01  0.10184954449E+02  0.72624120522E+01  0.13036160126E+02  0.00000000000E+00 0. -1.
</event>
<event>
 7    1  0.4963616E-011  0.5052885E+02  0.7816164E-02  0.1300439E+00
        -11   -1    0    0    0    0  0.00000000000E+00  0.00000000000E+00  0.45593999997E+02  0.45594000000E+02  0.51100000000E-03 0. -1.
         11   -1    0    0    0    0 -0.00000000000E+00 -0.00000000000E+00 -0.45593999997E+02  0.45594000000E+02  0.51100000000E-03 0.  1.
    9900012    2    1    2    0    0 -0.36347012763E+02 -0.18148126726E+02  0.16451173934E+01  0.50528852792E+02  0.29999978545E+02 0.  0.
        -12    1    1    2    0    0  0.36347012763E+02  0.18148126726E+02 -0.16451173934E+01  0.40659147208E+02  0.00000000000E+00 0.  1.
         11    1    3    3    0    0 -0.31503786236E+02 -0.63756397449E+01 -0.22986934036E+01  0.32224545318E+02  0.51100000000E-03 0. -1.
        -11    1    3    3    0    0  0.33410928047E-01 -0.47205632084E+01  0.76294666136E+01  0.89718222432E+01  0.51100000000E-03 0.  1.
        -12    1    3    3    0    0 -0.48766374556E+01 -0.70519237731E+01 -0.36856558166E+01  0.93324852302E+01  0.00000000000E+00 0.  1.
</event>
<event>
 7    1  0.4963616E-011  0.5052886E+02  0.7816164E-02  0.1300439E+00
        -11   -1    0    0    0    0  0.00000000000E+00  0.00000000000E+00  0.45593999997E+02  0.45594000000E+02  0.51100000000E-03 0.  1.
         11   -1    0    0    0    0 -0.00000000000E+00 -0.00000000000E+00 -0.45593999997E+02  0.45594000000E+02  0.51100000000E-03 0. -1.
    9900012    2    1    2    0    0  0.21545138011E+02 -0.25404756272E+02 -0.23314602352E+02  0.50528864544E+02  0.30000014269E+02 0.  0.
        -12    1    1    2    0    0 -0.21545138011E+02  0.25404756272E+02  0.23314602352E+02  0.40659135456E+02  0.00000000000E+00 0.  1.
         11    1    3    3    0    0  0.13215578978E+02 -0.21703254395E+02 -0.16701348608E+02  0.30407529078E+02  0.51100000000E-03 0. -1.
        -11    1    3    3    0    0 -0.22097700934E+01  0.31395695145E+01 -0.65078763385E+01  0.75559536328E+01  0.51100000000E-03 0.  1.
        -12    1    3    3    0    0  0.10539329126E+02 -0.68410713917E+01 -0.10537740574E+00  0.12565381833E+02  0.00000000000E+00 0.  1.
</event>
<event>
 7    1  0.4963616E-011  0.5052890E+02  0.7816164E-02  0.1300439E+00
        -11   -1    0    0    0    0  0.00000000000E+00  0.00000000000E+00  0.45593999997E+02  0.45594000000E+02  0.51100000000E-03 0.  1.
         11   -1    0    0    0    0 -0.00000000000E+00 -0.00000000000E+00 -0.45593999997E+02  0.45594000000E+02  0.51100000000E-03 0. -1.
    9900012    2    1    2    0    0 -0.12354617759E+02  0.25460364768E+02 -0.29194109516E+02  0.50528895428E+02  0.30000108144E+02 0.  0.
        -12    1    1    2    0    0  0.12354617759E+02 -0.25460364768E+02  0.29194109516E+02  0.40659104572E+02  0.00000000000E+00 0.  1.
         11    1    3    3    0    0  0.91068553578E+00  0.13448995310E+02 -0.66688229700E+01  0.15039216172E+02  0.51100000000E-03 0. -1.
        -11    1    3    3    0    0 -0.18376098045E+02  0.10885026376E+02 -0.21195151015E+02  0.30089852199E+02  0.51100000000E-03 0.  1.
        -12    1    3    3    0    0  0.51107947503E+01  0.11263430821E+01 -0.13301355317E+01  0.53998270575E+01  0.00000000000E+00 0.  1.
</event>
<event>
 7    1  0.4963616E-011  0.5052886E+02  0.7816164E-02  0.1300439E+00
        -11   -1    0    0    0    0  0.00000000000E+00  0.00000000000E+00  0.45593999997E+02  0.45594000000E+02  0.51100000000E-03 0.  1.
         11   -1    0    0    0    0 -0.00000000000E+00 -0.00000000000E+00 -0.45593999997E+02  0.45594000000E+02  0.51100000000E-03 0. -1.
    9900012    2    1    2    0    0 -0.36442503684E+02 -0.13411824243E+02 -0.12051258466E+02  0.50528856688E+02  0.29999990389E+02 0.  0.
        -12    1    1    2    0    0  0.36442503684E+02  0.13411824243E+02  0.12051258466E+02  0.40659143312E+02  0.00000000000E+00 0.  1.
         11    1    3    3    0    0 -0.21778365268E+02 -0.13199817244E+02 -0.17037041426E+02  0.30639731556E+02  0.51100000000E-03 0. -1.
        -11    1    3    3    0    0 -0.57473257406E+01 -0.35403365475E+01  0.74543237217E+01  0.10056474454E+02  0.51100000000E-03 0.  1.
         12    1    3    3    0    0 -0.89168126750E+01  0.33283295479E+01 -0.24685407614E+01  0.98326506778E+01  0.00000000000E+00 0. -1.
</event>
<event>
 7    1  0.4963616E-011  0.5052885E+02  0.7816164E-02  0.1300439E+00
        -11   -1    0    0    0    0  0.00000000000E+00  0.00000000000E+00  0.45593999997E+02  0.45594000000E+02  0.51100000000E-03 0.  1.
         11   -1    0    0    0    0 -0.00000000000E+00 -0.00000000000E+00 -0.45593999997E+02  0.45594000000E+02  0.51100000000E-03 0. -1.
    9900012    2    1    2    0    0  0.60050097757E+01  0.35629784992E+02 -0.18644696601E+02  0.50528850571E+02  0.29999971795E+02 0.  0.
        -12    1    1    2    0    0 -0.60050097757E+01 -0.35629784992E+02  0.18644696601E+02  0.40659149429E+02  0.00000000000E+00 0.  1.
         11    1    3    3    0    0  0.89855582645E+00  0.28597092067E+01 -0.64161094356E+01  0.70817935490E+01  0.51100000000E-03 0. -1.
        -11    1    3    3    0    0  0.84358022425E+01  0.20556276399E+01 -0.88010759086E+01  0.12363142880E+02  0.51100000000E-03 0.  1.
        -12    1    3    3    0    0 -0.33293482932E+01  0.30714448145E+02 -0.34275112564E+01  0.31083914141E+02  0.00000000000E+00 0.  1.
</event>
<event>
 7    1  0.4963616E-011  0.5052888E+02  0.7816164E-02  0.1300439E+00
        -11   -1    0    0    0    0  0.00000000000E+00  0.00000000000E+00  0.45593999997E+02  0.45594000000E+02  0.51100000000E-03 0. -1.
         11   -1    0    0    0    0 -0.00000000000E+00 -0.00000000000E+00 -0.45593999997E+02  0.45594000000E+02  0.51100000000E-03 0.  1.
    9900012    2    1    2    0    0  0.40049941453E+02  0.65674430728E+01  0.24566714752E+01  0.50528876133E+02  0.30000049493E+02 0.  0.
        -12    1    1    2    0    0 -0.40049941453E+02 -0.65674430728E+01 -0.24566714752E+01  0.40659123867E+02  0.00000000000E+00 0.  1.
         11    1    3    3    0    0  0.20063138003E+02  0.52347253190E+01  0.37588437534E+01  0.21072749282E+02  0.51100000000E-03 0. -1.
        -11    1    3    3    0    0 -0.29906266794E+01 -0.34534365222E+01  0.31736433126E+01  0.55625609107E+01  0.51100000000E-03 0.  1.
        -12    1    3    3    0    0  0.22977430129E+02  0.47861542759E+01 -0.44758155909E+01  0.23893565940E+02  0.00000000000E+00 0.  1.
</event>
<event>
 7    1  0.4963616E-011  0.5052886E+02  0.7816164E-02  0.1300439E+00
        -11   -1    0    0    0    0  0.00000000000E+00  0.00000000000E+00  0.45593999997E+02  0.45594000000E+02  0.51100000000E-03 0.  1.
         11   -1    0    0    0    0 -0.00000000000E+00 -0.00000000000E+00 -0.45593999997E+02  0.45594000000E+02  0.51100000000E-03 0. -1.
    9900012    2    1    2    0    0 -0.79426042694E+01 -0.32761142370E+02 -0.22732982542E+02  0.50528857028E+02  0.29999991421E+02 0.  0.
        -12    1    1    2    0    0  0.79426042694E+01  0.32761142370E+02  0.22732982542E+02  0.40659142972E+02  0.00000000000E+00 0.  1.
         11    1    3    3    0    0 -0.50978404592E+01 -0.15810009366E+02 -0.16639056243E+02  0.23511753793E+02  0.51100000000E-03 0. -1.
        -11    1    3    3    0    0  0.15854955343E+01  0.38304877873E+01  0.15637294672E+01  0.44307654966E+01  0.51100000000E-03 0.  1.
        -12    1    3    3    0    0 -0.44302593445E+01 -0.20781620791E+02 -0.76576557668E+01  0.22586337738E+02  0.00000000000E+00 0.  1.
</event>
<event>
 7    1  0.4963616E-011  0.5052887E+02  0.7816164E-02  0.1300439E+00
        -11   -1    0    0    0    0  0.00000000000E+00  0.00000000000E+00  0.45593999997E+02  0.45594000000E+02  0.51100000000E-03 0.  1.
         11   -1    0    0    0    0 -0.00000000000E+00 -0.00000000000E+00 -0.45593999997E+02  0.45594000000E+02  0.51100000000E-03 0. -1.
    9900012    2    1    2    0    0 -0.31026788270E+02  0.19448041519E+02 -0.17671368710E+02  0.50528865954E+02  0.30000018554E+02 0.  0.
        -12    1    1    2    0    0  0.31026788270E+02 -0.19448041519E+02  0.17671368710E+02  0.40659134046E+02  0.00000000000E+00 0.  1.
         11    1    3    3    0    0 -0.17721018660E+02  0.85933699537E+01  0.57855993804E+01  0.20526901129E+02  0.51100000000E-03 0. -1.
        -11    1    3    3    0    0 -0.82501506634E+01  0.57206811790E+01 -0.19110696356E+02  0.21587262322E+02  0.51100000000E-03 0.  1.
         12    1    3    3    0    0 -0.50556189470E+01  0.51339903861E+01 -0.43462717345E+01  0.84147025029E+01  0.00000000000E+00 0. -1.
</event>
<event>
 7    1  0.4963616E-011  0.5052887E+02  0.7816164E-02  0.1300439E+00
        -11   -1    0    0    0    0  0.00000000000E+00  0.00000000000E+00  0.45593999997E+02  0.45594000000E+02  0.51100000000E-03 0.  1.
         11   -1    0    0    0    0 -0.00000000000E+00 -0.00000000000E+00 -0.45593999997E+02  0.45594000000E+02  0.51100000000E-03 0. -1.
    9900012    2    1    2    0    0  0.15944033421E+02 -0.11460117369E+02 -0.35603630205E+02  0.50528868484E+02  0.30000026243E+02 0.  0.
        -12    1    1    2    0    0 -0.15944033421E+02  0.11460117369E+02  0.35603630205E+02  0.40659131516E+02  0.00000000000E+00 0.  1.
         11    1    3    3    0    0  0.19783328509E+02 -0.58850638539E+00 -0.21275445892E+02  0.29058062991E+02  0.51100000000E-03 0. -1.
        -11    1    3    3    0    0 -0.77661646249E+01 -0.72263274797E+01 -0.10072573253E+02  0.14628392052E+02  0.51100000000E-03 0.  1.
        -12    1    3    3    0    0  0.39268695375E+01 -0.36452835043E+01 -0.42556110605E+01  0.68424134404E+01  0.00000000000E+00 0.  1.
</event>
<event>
 7    1  0.4963616E-011  0.5052886E+02  0.7816164E-02  0.1300439E+00
        -11   -1    0    0    0    0  0.00000000000E+00  0.00000000000E+00  0.45593999997E+02  0.45594000000E+02  0.51100000000E-03 0.  1.
         11   -1    0    0    0    0 -0.00000000000E+00 -0.00000000000E+00 -0.45593999997E+02  0.45594000000E+02  0.51100000000E-03 0. -1.
    9900012    2    1    2    0    0  0.43571969449E+01 -0.17118136995E+02 -0.36621715206E+02  0.50528858297E+02  0.29999995279E+02 0.  0.
        -12    1    1    2    0    0 -0.43571969449E+01  0.17118136995E+02  0.36621715206E+02  0.40659141703E+02  0.00000000000E+00 0.  1.
         11    1    3    3    0    0 -0.59492665645E+01  0.41380352559E+01 -0.77834219128E+01  0.10634790330E+02  0.51100000000E-03 0. -1.
        -11    1    3    3    0    0  0.87550831246E+01 -0.11872740640E+02 -0.75362635477E+01  0.16565286576E+02  0.51100000000E-03 0.  1.
        -12    1    3    3    0    0  0.15513803848E+01 -0.93834316112E+01 -0.21302029745E+02  0.23328781391E+02  0.00000000000E+00 0.  1.
</event>
<event>
 7    1  0.4963616E-011  0.5052886E+02  0.7816164E-02  0.1300439E+00
        -11   -1    0    0    0    0  0.00000000000E+00  0.00000000000E+00  0.45593999997E+02  0.45594000000E+02  0.51100000000E-03 0.  1.
         11   -1    0    0    0    0 -0.00000000000E+00 -0.00000000000E+00 -0.45593999997E+02  0.45594000000E+02  0.51100000000E-03 0. -1.
    9900012    2    1    2    0    0  0.64432302195E+01 -0.10806264177E+02 -0.38663615492E+02  0.50528859280E+02  0.29999998268E+02 0.  0.
        -12    1    1    2    0    0 -0.64432302195E+01  0.10806264177E+02  0.38663615492E+02  0.40659140720E+02  0.00000000000E+00 0.  1.
         11    1    3    3    0    0  0.70897237481E+01 -0.20783487438E+00 -0.10060230670E+02  0.12309168110E+02  0.51100000000E-03 0. -1.
        -11    1    3    3    0    0 -0.10630028581E+02 -0.14152596622E+01 -0.18201945558E+02  0.21126080798E+02  0.51100000000E-03 0.  1.
        -12    1    3    3    0    0  0.99835350525E+01 -0.91831696403E+01 -0.10401439265E+02  0.17093610372E+02  0.00000000000E+00 0.  1.
</event>
<event>
 7    1  0.4963616E-011  0.5052886E+02  0.7816164E-02  0.1300439E+00
        -11   -1    0    0    0    0  0.00000000000E+00  0.00000000000E+00  0.45593999997E+02  0.45594000000E+02  0.51100000000E-03 0.  1.
         11   -1    0    0    0    0 -0.00000000000E+00 -0.00000000000E+00 -0.45593999997E+02  0.45594000000E+02  0.51100000000E-03 0. -1.
    9900012    2    1    2    0    0  0.34747741389E+02 -0.59963691426E+01 -0.20243612827E+02  0.50528857919E+02  0.29999994129E+02 0.  0.
        -12    1    1    2    0    0 -0.34747741389E+02  0.59963691426E+01  0.20243612827E+02  0.40659142081E+02  0.00000000000E+00 0.  1.
         11    1    3    3    0    0 -0.49688225269E+00  0.46152591157E+01 -0.76324212087E+01  0.89331608318E+01  0.51100000000E-03 0.  1.
        -11    1    3    3    0    0  0.31187600034E+02 -0.12364657431E+02 -0.66945710031E+01  0.34210647911E+02  0.51100000000E-03 0. -1.
         12    1    3    3    0    0  0.40570236071E+01  0.17530291730E+01 -0.59166206151E+01  0.73850491760E+01  0.00000000000E+00 0. -1.
</event>
<event>
 7    1  0.4963616E-011  0.5052886E+02  0.7816164E-02  0.1300439E+00
        -11   -1    0    0    0    0  0.00000000000E+00  0.00000000000E+00  0.45593999997E+02  0.45594000000E+02  0.51100000000E-03 0.  1.
         11   -1    0    0    0    0 -0.00000000000E+00 -0.00000000000E+00 -0.45593999997E+02  0.45594000000E+02  0.51100000000E-03 0. -1.
    9900012    2    1    2    0    0 -0.35803681492E+00 -0.26712957110E+01 -0.40569714640E+02  0.50528858874E+02  0.29999997032E+02 0.  0.
        -12    1    1    2    0    0  0.35803681492E+00  0.26712957110E+01  0.40569714640E+02  0.40659141126E+02  0.00000000000E+00 0.  1.
         11    1    3    3    0    0  0.57503782306E+01  0.74476119827E+00 -0.39076280202E+02  0.39504141476E+02  0.51100000000E-03 0. -1.
        -11    1    3    3    0    0 -0.18204546527E+01  0.20946425580E+01 -0.27762173510E+01  0.39254255348E+01  0.51100000000E-03 0.  1.
         12    1    3    3    0    0 -0.42879603928E+01 -0.55106994673E+01  0.12827829131E+01  0.70992918627E+01  0.00000000000E+00 0. -1.
</event>
<event>
 7    1  0.4963616E-011  0.5052887E+02  0.7816164E-02  0.1300439E+00
        -11   -1    0    0    0    0  0.00000000000E+00  0.00000000000E+00  0.45593999997E+02  0.45594000000E+02  0.51100000000E-03 0.  1.
         11   -1    0    0    0    0 -0.00000000000E+00 -0.00000000000E+00 -0.45593999997E+02  0.45594000000E+02  0.51100000000E-03 0. -1.
    9900012    2    1    2    0    0  0.33468162806E+02  0.16611025740E+02 -0.16034988293E+02  0.50528868832E+02  0.30000027303E+02 0.  0.
        -12    1    1    2    0    0 -0.33468162806E+02 -0.16611025740E+02  0.16034988293E+02  0.40659131168E+02  0.00000000000E+00 0.  1.
         11    1    3    3    0    0  0.10972146539E+02 -0.57757035317E+01 -0.64041865003E+01  0.13955656772E+02  0.51100000000E-03 0. -1.
        -11    1    3    3    0    0  0.12101307935E+02  0.16127319881E+02 -0.12987686385E+02  0.23983579762E+02  0.51100000000E-03 0.  1.
        -12    1    3    3    0    0  0.10394708332E+02  0.62594093908E+01  0.33568845931E+01  0.12589632298E+02  0.00000000000E+00 0.  1.
</event>
<event>
 7    1  0.4963616E-011  0.5052879E+02  0.7816164E-02  0.1300439E+00
        -11   -1    0    0    0    0  0.00000000000E+00  0.00000000000E+00  0.45593999997E+02  0.45594000000E+02  0.51100000000E-03 0.  1.
         11   -1    0    0    0    0 -0.00000000000E+00 -0.00000000000E+00 -0.45593999997E+02  0.45594000000E+02  0.51100000000E-03 0. -1.
    9900012    2    1    2    0    0  0.25038400699E+02 -0.67260080276E+01 -0.31321089190E+02  0.50528790445E+02  0.29999789036E+02 0.  0.
        -12    1    1    2    0    0 -0.25038400699E+02  0.67260080276E+01  0.31321089190E+02  0.40659209555E+02  0.00000000000E+00 0.  1.
         11    1    3    3    0    0  0.68738978235E+01 -0.97569463377E+01 -0.21454700007E+02  0.24551020870E+02  0.51100000000E-03 0. -1.
        -11    1    3    3    0    0  0.38058094407E+01  0.79471791688E+01 -0.28821179146E+01  0.92708384829E+01  0.51100000000E-03 0.  1.
        -12    1    3    3    0    0  0.14358693435E+02 -0.49162408588E+01 -0.69842712688E+01  0.16706931092E+02  0.00000000000E+00 0.  1.
</event>
<event>
 7    1  0.4963616E-011  0.5052886E+02  0.7816164E-02  0.1300439E+00
        -11   -1    0    0    0    0  0.00000000000E+00  0.00000000000E+00  0.45593999997E+02  0.45594000000E+02  0.51100000000E-03 0.  1.
         11   -1    0    0    0    0 -0.00000000000E+00 -0.00000000000E+00 -0.45593999997E+02  0.45594000000E+02  0.51100000000E-03 0. -1.
    9900012    2    1    2    0    0 -0.26888500645E+02  0.30231279655E+02  0.40303816622E+01  0.50528859418E+02  0.29999998687E+02 0.  0.
        -12    1    1    2    0    0  0.26888500645E+02 -0.30231279655E+02 -0.40303816622E+01  0.40659140582E+02  0.00000000000E+00 0.  1.
         11    1    3    3    0    0 -0.14338805205E+02  0.27544264555E+02 -0.30654930182E+01  0.31203927514E+02  0.51100000000E-03 0. -1.
        -11    1    3    3    0    0 -0.11557155710E+02 -0.30426058055E+01  0.33636630235E+01  0.12415294092E+02  0.51100000000E-03 0.  1.
        -12    1    3    3    0    0 -0.99253972906E+00  0.57296209055E+01  0.37322116569E+01  0.69096378115E+01  0.00000000000E+00 0.  1.
</event>
