<event>
 7    1  0.1290195E-011  0.5930194E+02  0.7816164E-02  0.1266605E+00
        -11   -1    0    0    0    0  0.00000000000E+00  0.00000000000E+00  0.45593999997E+02  0.45594000000E+02  0.51100000000E-03 0.  1.
         11   -1    0    0    0    0 -0.00000000000E+00 -0.00000000000E+00 -0.45593999997E+02  0.45594000000E+02  0.51100000000E-03 0. -1.
    9900012    2    1    2    0    0  0.18769842444E+02  0.17542270748E+01 -0.25716464082E+02  0.59301939991E+02  0.49999992639E+02 0.  0.
        -12    1    1    2    0    0 -0.18769842444E+02 -0.17542270748E+01  0.25716464082E+02  0.31886060009E+02  0.00000000000E+00 0.  1.
         11    1    3    3    0    0  0.14148510899E+02 -0.48986968515E+01 -0.86480693223E+01  0.17290653393E+02  0.51100000000E-03 0. -1.
        -11    1    3    3    0    0 -0.23872916747E+01 -0.11503516381E+02  0.48402186109E+01  0.12706603288E+02  0.51100000000E-03 0.  1.
         12    1    3    3    0    0  0.70086232196E+01  0.18156440307E+02 -0.21908613370E+02  0.29304683310E+02  0.00000000000E+00 0. -1.
</event>
<event>
 7    1  0.1290195E-011  0.5930195E+02  0.7816164E-02  0.1266605E+00
        -11   -1    0    0    0    0  0.00000000000E+00  0.00000000000E+00  0.45593999997E+02  0.45594000000E+02  0.51100000000E-03 0.  1.
         11   -1    0    0    0    0 -0.00000000000E+00 -0.00000000000E+00 -0.45593999997E+02  0.45594000000E+02  0.51100000000E-03 0. -1.
    9900012    2    1    2    0    0  0.25050375050E+02  0.50439038650E+01 -0.19072441452E+02  0.59301948516E+02  0.50000008185E+02 0.  0.
        -12    1    1    2    0    0 -0.25050375050E+02 -0.50439038650E+01  0.19072441452E+02  0.31886051484E+02  0.00000000000E+00 0.  1.
         11    1    3    3    0    0  0.15005020926E+02  0.93602248350E-01 -0.17572280259E+02  0.23107238003E+02  0.51100000000E-03 0. -1.
        -11    1    3    3    0    0  0.11361718648E+01 -0.13135590546E+02  0.62553651132E+01  0.14593293612E+02  0.51100000000E-03 0.  1.
         12    1    3    3    0    0  0.89091822592E+01  0.18085892162E+02 -0.77555263064E+01  0.21601416901E+02  0.00000000000E+00 0. -1.
</event>
<event>
 7    1  0.1290195E-011  0.5930194E+02  0.7816164E-02  0.1266605E+00
        -11   -1    0    0    0    0  0.00000000000E+00  0.00000000000E+00  0.45593999997E+02  0.45594000000E+02  0.51100000000E-03 0.  1.
         11   -1    0    0    0    0 -0.00000000000E+00 -0.00000000000E+00 -0.45593999997E+02  0.45594000000E+02  0.51100000000E-03 0. -1.
    9900012    2    1    2    0    0  0.90568237887E+01  0.30095450064E+02  0.53813415734E+01  0.59301937076E+02  0.49999987321E+02 0.  0.
        -12    1    1    2    0    0 -0.90568237887E+01 -0.30095450064E+02 -0.53813415734E+01  0.31886062924E+02  0.00000000000E+00 0.  1.
         11    1    3    3    0    0  0.19130206105E+02  0.18658723876E+02 -0.32276243832E+01  0.26917100916E+02  0.51100000000E-03 0. -1.
        -11    1    3    3    0    0 -0.30185301641E+01  0.14585529895E+02  0.15882554043E+02  0.21773946125E+02  0.51100000000E-03 0.  1.
         12    1    3    3    0    0 -0.70548521527E+01 -0.31488037069E+01 -0.72735880860E+01  0.10610890035E+02  0.00000000000E+00 0. -1.
</event>
<event>
 7    1  0.1290195E-011  0.5930196E+02  0.7816164E-02  0.1266605E+00
        -11   -1    0    0    0    0  0.00000000000E+00  0.00000000000E+00  0.45593999997E+02  0.45594000000E+02  0.51100000000E-03 0.  1.
         11   -1    0    0    0    0 -0.00000000000E+00 -0.00000000000E+00 -0.45593999997E+02  0.45594000000E+02  0.51100000000E-03 0. -1.
    9900012    2    1    2    0    0 -0.24297826924E+02  0.10678317304E+02 -0.17672251515E+02  0.59301963444E+02  0.50000035410E+02 0.  0.
        -12    1    1    2    0    0  0.24297826924E+02 -0.10678317304E+02  0.17672251515E+02  0.31886036556E+02  0.00000000000E+00 0.  1.
         11    1    3    3    0    0  0.35016576903E+01 -0.70923295786E+01 -0.67744656835E+01  0.10414227335E+02  0.51100000000E-03 0. -1.
        -11    1    3    3    0    0  0.10064403770E+01 -0.80451164228E+01  0.15466364334E+01  0.82540235647E+01  0.51100000000E-03 0.  1.
        -12    1    3    3    0    0 -0.28805924991E+02  0.25815763305E+02 -0.12444422265E+02  0.40633712544E+02  0.00000000000E+00 0.  1.
</event>
<event>
 7    1  0.1290195E-011  0.5930195E+02  0.7816164E-02  0.1266605E+00
        -11   -1    0    0    0    0  0.00000000000E+00  0.00000000000E+00  0.45593999997E+02  0.45594000000E+02  0.51100000000E-03 0.  1.
         11   -1    0    0    0    0 -0.00000000000E+00 -0.00000000000E+00 -0.45593999997E+02  0.45594000000E+02  0.51100000000E-03 0. -1.
    9900012    2    1    2    0    0  0.33648032194E+01 -0.11040399688E+02 -0.29723862816E+02  0.59301947459E+02  0.50000006257E+02 0.  0.
        -12    1    1    2    0    0 -0.33648032194E+01  0.11040399688E+02  0.29723862816E+02  0.31886052541E+02  0.00000000000E+00 0.  1.
         11    1    3    3    0    0  0.25335715567E+01 -0.14056305415E+02  0.21816404986E+01  0.14448469202E+02  0.51100000000E-03 0. -1.
        -11    1    3    3    0    0  0.86919515564E+01  0.76355379661E+01  0.10488586789E+00  0.11569894693E+02  0.51100000000E-03 0.  1.
         12    1    3    3    0    0 -0.78607198937E+01 -0.46196322394E+01 -0.32010389182E+02  0.33283583564E+02  0.00000000000E+00 0. -1.
</event>
<event>
 7    1  0.1290195E-011  0.5930194E+02  0.7816164E-02  0.1266605E+00
        -11   -1    0    0    0    0  0.00000000000E+00  0.00000000000E+00  0.45593999997E+02  0.45594000000E+02  0.51100000000E-03 0.  1.
         11   -1    0    0    0    0 -0.00000000000E+00 -0.00000000000E+00 -0.45593999997E+02  0.45594000000E+02  0.51100000000E-03 0. -1.
    9900012    2    1    2    0    0 -0.16250671473E+00  0.45675954145E+01 -0.31556797816E+02  0.59301939962E+02  0.49999992586E+02 0.  0.
        -12    1    1    2    0    0  0.16250671473E+00 -0.45675954145E+01  0.31556797816E+02  0.31886060038E+02  0.00000000000E+00 0.  1.
         11    1    3    3    0    0  0.59673780871E+01 -0.13566888507E+02 -0.23928873195E+02  0.28147131961E+02  0.51100000000E-03 0. -1.
        -11    1    3    3    0    0 -0.67052536789E+01 -0.36520490941E+01  0.10289326939E+01  0.77043229575E+01  0.51100000000E-03 0.  1.
         12    1    3    3    0    0  0.57536887711E+00  0.21786533016E+02 -0.86568573153E+01  0.23450485044E+02  0.00000000000E+00 0. -1.
</event>
<event>
 7    1  0.1290195E-011  0.5930195E+02  0.7816164E-02  0.1266605E+00
        -11   -1    0    0    0    0  0.00000000000E+00  0.00000000000E+00  0.45593999997E+02  0.45594000000E+02  0.51100000000E-03 0.  1.
         11   -1    0    0    0    0 -0.00000000000E+00 -0.00000000000E+00 -0.45593999997E+02  0.45594000000E+02  0.51100000000E-03 0. -1.
    9900012    2    1    2    0    0  0.22517425075E+02  0.17811015505E+02  0.13872759103E+02  0.59301950535E+02  0.50000011868E+02 0.  0.
        -12    1    1    2    0    0 -0.22517425075E+02 -0.17811015505E+02 -0.13872759103E+02  0.31886049465E+02  0.00000000000E+00 0.  1.
         11    1    3    3    0    0  0.22424507210E+02  0.20361158387E+02  0.99504741043E+01  0.31881769550E+02  0.51100000000E-03 0. -1.
        -11    1    3    3    0    0  0.72444025741E+01 -0.15654196280E+01  0.13515450005E+02  0.15414256270E+02  0.51100000000E-03 0.  1.
        -12    1    3    3    0    0 -0.71514847088E+01 -0.98472325427E+00 -0.95931650062E+01  0.12005924715E+02  0.00000000000E+00 0.  1.
</event>
<event>
 7    1  0.1290195E-011  0.5930196E+02  0.7816164E-02  0.1266605E+00
        -11   -1    0    0    0    0  0.00000000000E+00  0.00000000000E+00  0.45593999997E+02  0.45594000000E+02  0.51100000000E-03 0. -1.
         11   -1    0    0    0    0 -0.00000000000E+00 -0.00000000000E+00 -0.45593999997E+02  0.45594000000E+02  0.51100000000E-03 0.  1.
    9900012    2    1    2    0    0 -0.13414681850E+02 -0.23866423825E+02 -0.16345015207E+02  0.59301962343E+02  0.50000033403E+02 0.  0.
        -12    1    1    2    0    0  0.13414681850E+02  0.23866423825E+02  0.16345015207E+02  0.31886037657E+02  0.00000000000E+00 0.  1.
         11    1    3    3    0    0  0.18879238935E+01 -0.47343730253E+01  0.24802069360E+01  0.56683305546E+01  0.51100000000E-03 0. -1.
        -11    1    3    3    0    0 -0.73961190926E+01 -0.15305626215E+02  0.12500061675E+02  0.21100149611E+02  0.51100000000E-03 0.  1.
        -12    1    3    3    0    0 -0.79064866513E+01 -0.38264245846E+01 -0.31325283819E+02  0.32533482177E+02  0.00000000000E+00 0.  1.
</event>
<event>
 7    1  0.1290195E-011  0.5930196E+02  0.7816164E-02  0.1266605E+00
        -11   -1    0    0    0    0  0.00000000000E+00  0.00000000000E+00  0.45593999997E+02  0.45594000000E+02  0.51100000000E-03 0.  1.
         11   -1    0    0    0    0 -0.00000000000E+00 -0.00000000000E+00 -0.45593999997E+02  0.45594000000E+02  0.51100000000E-03 0. -1.
    9900012    2    1    2    0    0 -0.12587979292E+02 -0.75160438004E+01 -0.28315566047E+02  0.59301962026E+02  0.50000032825E+02 0.  0.
        -12    1    1    2    0    0  0.12587979292E+02  0.75160438004E+01  0.28315566047E+02  0.31886037974E+02  0.00000000000E+00 0.  1.
         11    1    3    3    0    0 -0.10032367003E+02 -0.10676919822E+02 -0.18002815013E+02  0.23210910219E+02  0.51100000000E-03 0. -1.
        -11    1    3    3    0    0 -0.90096275340E+01 -0.12940163899E+02 -0.10134404191E+02  0.18743729048E+02  0.51100000000E-03 0.  1.
        -12    1    3    3    0    0  0.64540152456E+01  0.16101039921E+02 -0.17834684353E+00  0.17347322759E+02  0.00000000000E+00 0.  1.
</event>
<event>
 7    1  0.1290195E-011  0.5930196E+02  0.7816164E-02  0.1266605E+00
        -11   -1    0    0    0    0  0.00000000000E+00  0.00000000000E+00  0.45593999997E+02  0.45594000000E+02  0.51100000000E-03 0.  1.
         11   -1    0    0    0    0 -0.00000000000E+00 -0.00000000000E+00 -0.45593999997E+02  0.45594000000E+02  0.51100000000E-03 0. -1.
    9900012    2    1    2    0    0  0.29008167376E+02 -0.70264809152E+01 -0.11219382028E+02  0.59301956946E+02  0.50000023560E+02 0.  0.
        -12    1    1    2    0    0 -0.29008167376E+02  0.70264809152E+01  0.11219382028E+02  0.31886043054E+02  0.00000000000E+00 0.  1.
         11    1    3    3    0    0 -0.60994755969E+01 -0.49870030981E+01  0.56217419147E+01  0.96787284740E+01  0.51100000000E-03 0. -1.
        -11    1    3    3    0    0  0.21113217244E+01 -0.45003025785E+01  0.71816928183E+01  0.87342495224E+01  0.51100000000E-03 0.  1.
         12    1    3    3    0    0  0.32996321248E+02  0.24608247614E+01 -0.24022816761E+02  0.40888978950E+02  0.00000000000E+00 0. -1.
</event>
<event>
 7    1  0.1290195E-011  0.5930194E+02  0.7816164E-02  0.1266605E+00
        -11   -1    0    0    0    0  0.00000000000E+00  0.00000000000E+00  0.45593999997E+02  0.45594000000E+02  0.51100000000E-03 0. -1.
         11   -1    0    0    0    0 -0.00000000000E+00 -0.00000000000E+00 -0.45593999997E+02  0.45594000000E+02  0.51100000000E-03 0.  1.
    9900012    2    1    2    0    0 -0.50894044083E+01  0.24945299029E+02  0.19197671965E+02  0.59301943647E+02  0.49999999305E+02 0.  0.
        -12    1    1    2    0    0  0.50894044083E+01 -0.24945299029E+02 -0.19197671965E+02  0.31886056353E+02  0.00000000000E+00 0.  1.
         11    1    3    3    0    0 -0.11593217237E+02  0.52278982632E+01 -0.76058095563E+01  0.14818297656E+02  0.51100000000E-03 0. -1.
        -11    1    3    3    0    0  0.12373821416E+02  0.29731209764E+01  0.47561869205E+00  0.12734878020E+02  0.51100000000E-03 0.  1.
         12    1    3    3    0    0 -0.58700085878E+01  0.16744279790E+02  0.26327862829E+02  0.31748767971E+02  0.00000000000E+00 0. -1.
</event>
<event>
 7    1  0.1290195E-011  0.5930196E+02  0.7816164E-02  0.1266605E+00
        -11   -1    0    0    0    0  0.00000000000E+00  0.00000000000E+00  0.45593999997E+02  0.45594000000E+02  0.51100000000E-03 0.  1.
         11   -1    0    0    0    0 -0.00000000000E+00 -0.00000000000E+00 -0.45593999997E+02  0.45594000000E+02  0.51100000000E-03 0. -1.
    9900012    2    1    2    0    0 -0.15737988131E+02  0.26125630961E+01 -0.27608146625E+02  0.59301960478E+02  0.50000030001E+02 0.  0.
        -12    1    1    2    0    0  0.15737988131E+02 -0.26125630961E+01  0.27608146625E+02  0.31886039522E+02  0.00000000000E+00 0.  1.
         11    1    3    3    0    0 -0.11784389623E+02 -0.26828164818E+01 -0.24901086127E+02  0.27679115478E+02  0.51100000000E-03 0. -1.
        -11    1    3    3    0    0  0.79701729790E+01  0.55314299324E+01 -0.12757005953E+02  0.16026901621E+02  0.51100000000E-03 0.  1.
        -12    1    3    3    0    0 -0.11923771487E+02 -0.23605035457E+00  0.10049945455E+02  0.15595943380E+02  0.00000000000E+00 0.  1.
</event>
<event>
 7    1  0.1290195E-011  0.5930180E+02  0.7816164E-02  0.1266605E+00
        -11   -1    0    0    0    0  0.00000000000E+00  0.00000000000E+00  0.45593999997E+02  0.45594000000E+02  0.51100000000E-03 0.  1.
         11   -1    0    0    0    0 -0.00000000000E+00 -0.00000000000E+00 -0.45593999997E+02  0.45594000000E+02  0.51100000000E-03 0. -1.
    9900012    2    1    2    0    0 -0.34851679445E+01 -0.14164270355E+02 -0.28354134167E+02  0.59301798052E+02  0.49999733775E+02 0.  0.
        -12    1    1    2    0    0  0.34851679445E+01  0.14164270355E+02  0.28354134167E+02  0.31886201948E+02  0.00000000000E+00 0.  1.
         11    1    3    3    0    0  0.95476055434E+01 -0.65625210084E+01 -0.99170629678E+01  0.15250298088E+02  0.51100000000E-03 0. -1.
        -11    1    3    3    0    0  0.12876152460E+02 -0.54801002435E+00 -0.36380699226E+01  0.13391458852E+02  0.51100000000E-03 0.  1.
         12    1    3    3    0    0 -0.25908925948E+02 -0.70537393219E+01 -0.14799001277E+02  0.30660041112E+02  0.00000000000E+00 0. -1.
</event>
<event>
 7    1  0.1290195E-011  0.5930193E+02  0.7816164E-02  0.1266605E+00
        -11   -1    0    0    0    0  0.00000000000E+00  0.00000000000E+00  0.45593999997E+02  0.45594000000E+02  0.51100000000E-03 0.  1.
         11   -1    0    0    0    0 -0.00000000000E+00 -0.00000000000E+00 -0.45593999997E+02  0.45594000000E+02  0.51100000000E-03 0. -1.
    9900012    2    1    2    0    0  0.49082216434E+01  0.29657830469E+02  0.10632218596E+02  0.59301927490E+02  0.49999969840E+02 0.  0.
        -12    1    1    2    0    0 -0.49082216434E+01 -0.29657830469E+02 -0.10632218596E+02  0.31886072510E+02  0.00000000000E+00 0.  1.
         11    1    3    3    0    0 -0.57608894037E+01  0.31267001775E+01 -0.58174954300E+01  0.87639804918E+01  0.51100000000E-03 0. -1.
        -11    1    3    3    0    0  0.16766147935E+02 -0.13719967333E+01  0.13974430944E+02  0.21869403560E+02  0.51100000000E-03 0.  1.
        -12    1    3    3    0    0 -0.60970368875E+01  0.27903127025E+02  0.24752830822E+01  0.28668543439E+02  0.00000000000E+00 0.  1.
</event>
<event>
 7    1  0.1659124E-011  0.5930192E+02  0.7816164E-02  0.1266605E+00
        -11   -1    0    0    0    0  0.00000000000E+00  0.00000000000E+00  0.45593999997E+02  0.45594000000E+02  0.51100000000E-03 0. -1.
         11   -1    0    0    0    0 -0.00000000000E+00 -0.00000000000E+00 -0.45593999997E+02  0.45594000000E+02  0.51100000000E-03 0.  1.
    9900012    2    1    2    0    0 -0.16750076942E+02 -0.16751156081E+02  0.21343757087E+02  0.59301917234E+02  0.49999951134E+02 0.  0.
        -12    1    1    2    0    0  0.16750076942E+02  0.16751156081E+02 -0.21343757087E+02  0.31886082766E+02  0.00000000000E+00 0.  1.
         11    1    3    3    0    0 -0.91226397659E+01 -0.29687112754E+01  0.26590731756E+02  0.28268406721E+02  0.51100000000E-03 0. -1.
        -11    1    3    3    0    0 -0.72273345886E+01  0.61984572599E+01 -0.55989217888E+01  0.11045504204E+02  0.51100000000E-03 0.  1.
        -12    1    3    3    0    0 -0.40010258712E+00 -0.19980902066E+02  0.35194711907E+00  0.19988006309E+02  0.00000000000E+00 0.  1.
</event>
<event>
 7    1  0.1290195E-011  0.5930195E+02  0.7816164E-02  0.1266605E+00
        -11   -1    0    0    0    0  0.00000000000E+00  0.00000000000E+00  0.45593999997E+02  0.45594000000E+02  0.51100000000E-03 0.  1.
         11   -1    0    0    0    0 -0.00000000000E+00 -0.00000000000E+00 -0.45593999997E+02  0.45594000000E+02  0.51100000000E-03 0. -1.
    9900012    2    1    2    0    0 -0.16475216702E+02  0.14434153912E+02 -0.23172028396E+02  0.59301945611E+02  0.50000002887E+02 0.  0.
        -12    1    1    2    0    0  0.16475216702E+02 -0.14434153912E+02  0.23172028396E+02  0.31886054389E+02  0.00000000000E+00 0.  1.
         11    1    3    3    0    0 -0.20350993900E+01 -0.12487771974E+01  0.87597734377E+01  0.90793559770E+01  0.51100000000E-03 0. -1.
        -11    1    3    3    0    0  0.95203389522E+01  0.69001592718E+01 -0.16954899313E+02  0.20632926663E+02  0.51100000000E-03 0.  1.
         12    1    3    3    0    0 -0.23960456265E+02  0.87827718381E+01 -0.14976902521E+02  0.29589662970E+02  0.00000000000E+00 0. -1.
</event>
<event>
 7    1  0.1290195E-011  0.5930201E+02  0.7816164E-02  0.1266605E+00
        -11   -1    0    0    0    0  0.00000000000E+00  0.00000000000E+00  0.45593999997E+02  0.45594000000E+02  0.51100000000E-03 0. -1.
         11   -1    0    0    0    0 -0.00000000000E+00 -0.00000000000E+00 -0.45593999997E+02  0.45594000000E+02  0.51100000000E-03 0.  1.
    9900012    2    1    2    0    0  0.22919895977E+02  0.10276679557E+02  0.19641393913E+02  0.59302013592E+02  0.50000126869E+02 0.  0.
        -12    1    1    2    0    0 -0.22919895977E+02 -0.10276679557E+02 -0.19641393913E+02  0.31885986408E+02  0.00000000000E+00 0.  1.
         11    1    3    3    0    0  0.23604392721E+02  0.76930825225E+01  0.14692171525E+02  0.28848063692E+02  0.51100000000E-03 0. -1.
        -11    1    3    3    0    0  0.43933979963E+01  0.15297789344E+02  0.59616530523E-01  0.15916276548E+02  0.51100000000E-03 0.  1.
        -12    1    3    3    0    0 -0.50778947401E+01 -0.12714192309E+02  0.48896058579E+01  0.14537673352E+02  0.00000000000E+00 0.  1.
</event>
<event>
 7    1  0.1290195E-011  0.5930197E+02  0.7816164E-02  0.1266605E+00
        -11   -1    0    0    0    0  0.00000000000E+00  0.00000000000E+00  0.45593999997E+02  0.45594000000E+02  0.51100000000E-03 0.  1.
         11   -1    0    0    0    0 -0.00000000000E+00 -0.00000000000E+00 -0.45593999997E+02  0.45594000000E+02  0.51100000000E-03 0. -1.
    9900012    2    1    2    0    0  0.15631394093E+02 -0.24079467911E+02 -0.13876525009E+02  0.59301965400E+02  0.50000038978E+02 0.  0.
        -12    1    1    2    0    0 -0.15631394093E+02  0.24079467911E+02  0.13876525009E+02  0.31886034600E+02  0.00000000000E+00 0.  1.
         11    1    3    3    0    0  0.57656094259E+01 -0.17518018816E+02 -0.21790603992E+02  0.28547393189E+02  0.51100000000E-03 0. -1.
        -11    1    3    3    0    0  0.13284349037E+02 -0.81646315797E+00 -0.65399569540E+01  0.14829415991E+02  0.51100000000E-03 0.  1.
        -12    1    3    3    0    0 -0.34185643698E+01 -0.57449859375E+01  0.14454035937E+02  0.15925156220E+02  0.00000000000E+00 0.  1.
</event>
<event>
 7    1  0.1290195E-011  0.5930185E+02  0.7816164E-02  0.1266605E+00
        -11   -1    0    0    0    0  0.00000000000E+00  0.00000000000E+00  0.45593999997E+02  0.45594000000E+02  0.51100000000E-03 0. -1.
         11   -1    0    0    0    0 -0.00000000000E+00 -0.00000000000E+00 -0.45593999997E+02  0.45594000000E+02  0.51100000000E-03 0.  1.
    9900012    2    1    2    0    0 -0.31050545407E+02  0.13104851836E+01  0.71325198620E+01  0.59301849699E+02  0.49999827966E+02 0.  0.
        -12    1    1    2    0    0  0.31050545407E+02 -0.13104851836E+01 -0.71325198620E+01  0.31886150301E+02  0.00000000000E+00 0.  1.
         11    1    3    3    0    0 -0.20478456049E+02  0.69226678540E+01 -0.39694883270E+01  0.21978337749E+02  0.51100000000E-03 0. -1.
        -11    1    3    3    0    0 -0.14017233174E+02 -0.92041222503E+00 -0.88077584707E+01  0.16580307418E+02  0.51100000000E-03 0.  1.
         12    1    3    3    0    0  0.34451438162E+01 -0.46917704453E+01  0.19909766660E+02  0.20743204532E+02  0.00000000000E+00 0. -1.
</event>
<event>
 7    1  0.1290195E-011  0.5930195E+02  0.7816164E-02  0.1266605E+00
        -11   -1    0    0    0    0  0.00000000000E+00  0.00000000000E+00  0.45593999997E+02  0.45594000000E+02  0.51100000000E-03 0.  1.
         11   -1    0    0    0    0 -0.00000000000E+00 -0.00000000000E+00 -0.45593999997E+02  0.45594000000E+02  0.51100000000E-03 0. -1.
    9900012    2    1    2    0    0 -0.96386766469E+01 -0.29758151943E+02  0.61861371977E+01  0.59301953083E+02  0.50000016514E+02 0.  0.
        -12    1    1    2    0    0  0.96386766469E+01  0.29758151943E+02 -0.61861371977E+01  0.31886046917E+02  0.00000000000E+00 0.  1.
         11    1    3    3    0    0  0.21642456562E+01  0.50235554100E+01  0.89781347648E+01  0.10513180886E+02  0.51100000000E-03 0. -1.
        -11    1    3    3    0    0  0.82956768108E+01 -0.16760658414E+02  0.71500197149E+01  0.20021506097E+02  0.51100000000E-03 0.  1.
         12    1    3    3    0    0 -0.20098599114E+02 -0.18021048939E+02 -0.99420172820E+01  0.28767266100E+02  0.00000000000E+00 0. -1.
</event>
<event>
 7    1  0.1290195E-011  0.5930192E+02  0.7816164E-02  0.1266605E+00
        -11   -1    0    0    0    0  0.00000000000E+00  0.00000000000E+00  0.45593999997E+02  0.45594000000E+02  0.51100000000E-03 0. -1.
         11   -1    0    0    0    0 -0.00000000000E+00 -0.00000000000E+00 -0.45593999997E+02  0.45594000000E+02  0.51100000000E-03 0.  1.
    9900012    2    1    2    0    0 -0.11058125270E+01  0.21115913820E+02  0.23866654160E+02  0.59301924378E+02  0.49999964164E+02 0.  0.
        -12    1    1    2    0    0  0.11058125270E+01 -0.21115913820E+02 -0.23866654160E+02  0.31886075622E+02  0.00000000000E+00 0.  1.
         11    1    3    3    0    0  0.28685014272E+01 -0.33716825903E+01  0.10940497756E+02  0.11802162316E+02  0.51100000000E-03 0. -1.
        -11    1    3    3    0    0  0.52080993884E+01 -0.89870738083E+01  0.63402877141E+01  0.12169266347E+02  0.51100000000E-03 0.  1.
         12    1    3    3    0    0 -0.91824133426E+01  0.33474670218E+02  0.65858686897E+01  0.35330495714E+02  0.00000000000E+00 0. -1.
</event>
<event>
 7    1  0.1290195E-011  0.5930200E+02  0.7816164E-02  0.1266605E+00
        -11   -1    0    0    0    0  0.00000000000E+00  0.00000000000E+00  0.45593999997E+02  0.45594000000E+02  0.51100000000E-03 0.  1.
         11   -1    0    0    0    0 -0.00000000000E+00 -0.00000000000E+00 -0.45593999997E+02  0.45594000000E+02  0.51100000000E-03 0. -1.
    9900012    2    1    2    0    0 -0.22955168135E+02  0.20516250105E+02 -0.82982506760E+01  0.59301996381E+02  0.50000095481E+02 0.  0.
        -12    1    1    2    0    0  0.22955168135E+02 -0.20516250105E+02  0.82982506760E+01  0.31886003619E+02  0.00000000000E+00 0.  1.
         11    1    3    3    0    0 -0.47398809387E+01 -0.36372349206E+00  0.63288472965E+01  0.79153695085E+01  0.51100000000E-03 0. -1.
        -11    1    3    3    0    0 -0.10085925028E+02  0.82147210952E+01  0.13959315201E+02  0.19080618635E+02  0.51100000000E-03 0.  1.
         12    1    3    3    0    0 -0.81293621684E+01  0.12665252501E+02 -0.28586413173E+02  0.32306008238E+02  0.00000000000E+00 0. -1.
</event>
<event>
 7    1  0.1290195E-011  0.5930193E+02  0.7816164E-02  0.1266605E+00
        -11   -1    0    0    0    0  0.00000000000E+00  0.00000000000E+00  0.45593999997E+02  0.45594000000E+02  0.51100000000E-03 0.  1.
         11   -1    0    0    0    0 -0.00000000000E+00 -0.00000000000E+00 -0.45593999997E+02  0.45594000000E+02  0.51100000000E-03 0. -1.
    9900012    2    1    2    0    0  0.10600777202E+02 -0.13611881543E+01 -0.30041505882E+02  0.59301931159E+02  0.49999976531E+02 0.  0.
        -12    1    1    2    0    0 -0.10600777202E+02  0.13611881543E+01  0.30041505882E+02  0.31886068841E+02  0.00000000000E+00 0.  1.
         11    1    3    3    0    0  0.12136741910E+02  0.15841080433E+02 -0.13325878053E+02  0.23996236364E+02  0.51100000000E-03 0. -1.
        -11    1    3    3    0    0  0.64116990225E+01  0.43455966966E+01 -0.67339462434E+01  0.10263533859E+02  0.51100000000E-03 0.  1.
        -12    1    3    3    0    0 -0.79476637301E+01 -0.21547865284E+02 -0.99816815852E+01  0.25042160936E+02  0.00000000000E+00 0.  1.
</event>
<event>
 7    1  0.1290195E-011  0.5930194E+02  0.7816164E-02  0.1266605E+00
        -11   -1    0    0    0    0  0.00000000000E+00  0.00000000000E+00  0.45593999997E+02  0.45594000000E+02  0.51100000000E-03 0.  1.
         11   -1    0    0    0    0 -0.00000000000E+00 -0.00000000000E+00 -0.45593999997E+02  0.45594000000E+02  0.51100000000E-03 0. -1.
    9900012    2    1    2    0    0  0.13412705189E+02 -0.23970637068E+01 -0.28828357211E+02  0.59301941065E+02  0.49999994597E+02 0.  0.
        -12    1    1    2    0    0 -0.13412705189E+02  0.23970637068E+01  0.28828357211E+02  0.31886058935E+02  0.00000000000E+00 0.  1.
         11    1    3    3    0    0 -0.33932767988E+01 -0.83100593767E+01 -0.26446859755E+02  0.27928619827E+02  0.51100000000E-03 0. -1.
        -11    1    3    3    0    0  0.10302408220E+00 -0.28309705610E+01  0.89426023640E+01  0.93805727747E+01  0.51100000000E-03 0.  1.
         12    1    3    3    0    0  0.16702957906E+02  0.87439662308E+01 -0.11324099820E+02  0.21992748463E+02  0.00000000000E+00 0. -1.
</event>
<event>
 7    1  0.1290195E-011  0.5930192E+02  0.7816164E-02  0.1266605E+00
        -11   -1    0    0    0    0  0.00000000000E+00  0.00000000000E+00  0.45593999997E+02  0.45594000000E+02  0.51100000000E-03 0. -1.
         11   -1    0    0    0    0 -0.00000000000E+00 -0.00000000000E+00 -0.45593999997E+02  0.45594000000E+02  0.51100000000E-03 0.  1.
    9900012    2    1    2    0    0 -0.31763189836E+02 -0.24365881844E+01 -0.13729426769E+01  0.59301918990E+02  0.49999954338E+02 0.  0.
        -12    1    1    2    0    0  0.31763189836E+02  0.24365881844E+01  0.13729426769E+01  0.31886081010E+02  0.00000000000E+00 0.  1.
         11    1    3    3    0    0 -0.34372780074E+02 -0.66779176835E+01  0.20799326387E+01  0.35077182250E+02  0.51100000000E-03 0. -1.
        -11    1    3    3    0    0 -0.42773983475E+01  0.26191905372E+01  0.87692810053E+01  0.10102305940E+02  0.51100000000E-03 0.  1.
         12    1    3    3    0    0  0.68869885847E+01  0.16221389620E+01 -0.12222156321E+02  0.14122430800E+02  0.00000000000E+00 0. -1.
</event>
<event>
 7    1  0.1290195E-011  0.5930197E+02  0.7816164E-02  0.1266605E+00
        -11   -1    0    0    0    0  0.00000000000E+00  0.00000000000E+00  0.45593999997E+02  0.45594000000E+02  0.51100000000E-03 0.  1.
         11   -1    0    0    0    0 -0.00000000000E+00 -0.00000000000E+00 -0.45593999997E+02  0.45594000000E+02  0.51100000000E-03 0. -1.
    9900012    2    1    2    0    0 -0.25963050695E+02  0.16753501281E+02  0.78713983582E+01  0.59301972987E+02  0.50000052814E+02 0.  0.
        -12    1    1    2    0    0  0.25963050695E+02 -0.16753501281E+02 -0.78713983582E+01  0.31886027013E+02  0.00000000000E+00 0.  1.
         11    1    3    3    0    0 -0.85281708300E+01  0.16220694088E+01 -0.11944951121E+02  0.14766267789E+02  0.51100000000E-03 0. -1.
        -11    1    3    3    0    0 -0.18900924242E+02  0.23155332878E+02  0.94567504461E+01  0.31350350989E+02  0.51100000000E-03 0.  1.
        -12    1    3    3    0    0  0.14660443771E+01 -0.80239010057E+01  0.10359599033E+02  0.13185354208E+02  0.00000000000E+00 0.  1.
</event>
<event>
 7    1  0.1290195E-011  0.5930194E+02  0.7816164E-02  0.1266605E+00
        -11   -1    0    0    0    0  0.00000000000E+00  0.00000000000E+00  0.45593999997E+02  0.45594000000E+02  0.51100000000E-03 0.  1.
         11   -1    0    0    0    0 -0.00000000000E+00 -0.00000000000E+00 -0.45593999997E+02  0.45594000000E+02  0.51100000000E-03 0. -1.
    9900012    2    1    2    0    0  0.31027339002E+02  0.31597087902E+00 -0.73433988718E+01  0.59301935487E+02  0.49999984423E+02 0.  0.
        -12    1    1    2    0    0 -0.31027339002E+02 -0.31597087902E+00  0.73433988718E+01  0.31886064513E+02  0.00000000000E+00 0.  1.
         11    1    3    3    0    0 -0.10681810484E+01  0.85879240083E+01  0.18347614589E+01  0.88464568838E+01  0.51100000000E-03 0. -1.
        -11    1    3    3    0    0  0.46085638209E+01 -0.48322048431E+01  0.13233892717E+02  0.14823123181E+02  0.51100000000E-03 0.  1.
         12    1    3    3    0    0  0.27486956230E+02 -0.34397482862E+01 -0.22412053048E+02  0.35632355421E+02  0.00000000000E+00 0. -1.
</event>
<event>
 7    1  0.1290195E-011  0.5930189E+02  0.7816164E-02  0.1266605E+00
        -11   -1    0    0    0    0  0.00000000000E+00  0.00000000000E+00  0.45593999997E+02  0.45594000000E+02  0.51100000000E-03 0.  1.
         11   -1    0    0    0    0 -0.00000000000E+00 -0.00000000000E+00 -0.45593999997E+02  0.45594000000E+02  0.51100000000E-03 0. -1.
    9900012    2    1    2    0    0  0.63352125428E+00  0.15583550490E+02 -0.27811429251E+02  0.59301890296E+02  0.49999902007E+02 0.  0.
        -12    1    1    2    0    0 -0.63352125428E+00 -0.15583550490E+02  0.27811429251E+02  0.31886109704E+02  0.00000000000E+00 0.  1.
         11    1    3    3    0    0  0.64326293438E+01  0.79342603309E+01 -0.99906417846E+01  0.14287901554E+02  0.51100000000E-03 0. -1.
        -11    1    3    3    0    0  0.64451889147E+01 -0.31415263928E+01  0.10270544120E+02  0.12525722534E+02  0.51100000000E-03 0.  1.
         12    1    3    3    0    0 -0.12244297004E+02  0.10790816552E+02 -0.28091331586E+02  0.32488266209E+02  0.00000000000E+00 0. -1.
</event>
<event>
 7    1  0.1290195E-011  0.5930193E+02  0.7816164E-02  0.1266605E+00
        -11   -1    0    0    0    0  0.00000000000E+00  0.00000000000E+00  0.45593999997E+02  0.45594000000E+02  0.51100000000E-03 0.  1.
         11   -1    0    0    0    0 -0.00000000000E+00 -0.00000000000E+00 -0.45593999997E+02  0.45594000000E+02  0.51100000000E-03 0. -1.
    9900012    2    1    2    0    0 -0.29740088825E+02  0.77363598621E+01 -0.85086452299E+01  0.59301934220E+02  0.49999982114E+02 0.  0.
        -12    1    1    2    0    0  0.29740088825E+02 -0.77363598621E+01  0.85086452299E+01  0.31886065780E+02  0.00000000000E+00 0.  1.
         11    1    3    3    0    0  0.61926872107E+01  0.14167393999E+02 -0.69104214096E+01  0.16935712324E+02  0.51100000000E-03 0. -1.
        -11    1    3    3    0    0 -0.21149513706E+02  0.52184816447E+01 -0.68326292664E+01  0.22830227849E+02  0.51100000000E-03 0.  1.
        -12    1    3    3    0    0 -0.14783262330E+02 -0.11649515781E+02  0.52344054461E+01  0.19535994048E+02  0.00000000000E+00 0.  1.
</event>
<event>
 7    1  0.1290195E-011  0.5930197E+02  0.7816164E-02  0.1266605E+00
        -11   -1    0    0    0    0  0.00000000000E+00  0.00000000000E+00  0.45593999997E+02  0.45594000000E+02  0.51100000000E-03 0. -1.
         11   -1    0    0    0    0 -0.00000000000E+00 -0.00000000000E+00 -0.45593999997E+02  0.45594000000E+02  0.51100000000E-03 0.  1.
    9900012    2    1    2    0    0  0.21266197586E+02 -0.20652237585E+01  0.23668603820E+02  0.59301966761E+02  0.50000041461E+02 0.  0.
        -12    1    1    2    0    0 -0.21266197586E+02  0.20652237585E+01 -0.23668603820E+02  0.31886033239E+02  0.00000000000E+00 0.  1.
         11    1    3    3    0    0  0.47187298572E+01  0.11229643126E+01  0.25935278680E+02  0.26384960504E+02  0.51100000000E-03 0. -1.
        -11    1    3    3    0    0 -0.68156741518E+01  0.11425010914E+01 -0.56367789128E+01  0.89180715214E+01  0.51100000000E-03 0.  1.
         12    1    3    3    0    0  0.23363141880E+02 -0.43306891625E+01  0.33701040521E+01  0.23998934736E+02  0.00000000000E+00 0. -1.
</event>
<event>
 7    1  0.1290195E-011  0.5930195E+02  0.7816164E-02  0.1266605E+00
        -11   -1    0    0    0    0  0.00000000000E+00  0.00000000000E+00  0.45593999997E+02  0.45594000000E+02  0.51100000000E-03 0.  1.
         11   -1    0    0    0    0 -0.00000000000E+00 -0.00000000000E+00 -0.45593999997E+02  0.45594000000E+02  0.51100000000E-03 0. -1.
    9900012    2    1    2    0    0  0.26290224115E+02  0.17825964501E+02  0.27891895592E+01  0.59301945481E+02  0.50000002650E+02 0.  0.
        -12    1    1    2    0    0 -0.26290224115E+02 -0.17825964501E+02 -0.27891895592E+01  0.31886054519E+02  0.00000000000E+00 0.  1.
         11    1    3    3    0    0  0.78742276951E+01 -0.12112556633E+01 -0.10440265362E+01  0.80349607184E+01  0.51100000000E-03 0. -1.
        -11    1    3    3    0    0  0.19802277978E+02 -0.78475513888E+01  0.10180396623E+02  0.23608361900E+02  0.51100000000E-03 0.  1.
         12    1    3    3    0    0 -0.13862815584E+01  0.26884771553E+02 -0.63471805273E+01  0.27658622863E+02  0.00000000000E+00 0. -1.
</event>
<event>
 7    1  0.1290195E-011  0.5930194E+02  0.7816164E-02  0.1266605E+00
        -11   -1    0    0    0    0  0.00000000000E+00  0.00000000000E+00  0.45593999997E+02  0.45594000000E+02  0.51100000000E-03 0.  1.
         11   -1    0    0    0    0 -0.00000000000E+00 -0.00000000000E+00 -0.45593999997E+02  0.45594000000E+02  0.51100000000E-03 0. -1.
    9900012    2    1    2    0    0  0.19744217881E+02  0.15652190958E+02  0.19542155797E+02  0.59301936042E+02  0.49999985436E+02 0.  0.
        -12    1    1    2    0    0 -0.19744217881E+02 -0.15652190958E+02 -0.19542155797E+02  0.31886063958E+02  0.00000000000E+00 0.  1.
         11    1    3    3    0    0 -0.31697179641E+01  0.44771374991E+01  0.46316505089E+01  0.71794191169E+01  0.51100000000E-03 0. -1.
        -11    1    3    3    0    0  0.10154705099E+02  0.11170750045E+02  0.29257472058E+02  0.32922687675E+02  0.51100000000E-03 0.  1.
         12    1    3    3    0    0  0.12759230746E+02  0.43034142128E-02 -0.14346966770E+02  0.19199829251E+02  0.00000000000E+00 0. -1.
</event>
<event>
 7    1  0.1290195E-011  0.5930195E+02  0.7816164E-02  0.1266605E+00
        -11   -1    0    0    0    0  0.00000000000E+00  0.00000000000E+00  0.45593999997E+02  0.45594000000E+02  0.51100000000E-03 0. -1.
         11   -1    0    0    0    0 -0.00000000000E+00 -0.00000000000E+00 -0.45593999997E+02  0.45594000000E+02  0.51100000000E-03 0.  1.
    9900012    2    1    2    0    0 -0.27536044372E+02 -0.27824012981E+01  0.15834918480E+02  0.59301950701E+02  0.50000012170E+02 0.  0.
        -12    1    1    2    0    0  0.27536044372E+02  0.27824012981E+01 -0.15834918480E+02  0.31886049299E+02  0.00000000000E+00 0.  1.
         11    1    3    3    0    0 -0.30566623725E+01  0.11859207791E+02  0.23274161154E+02  0.26299630643E+02  0.51100000000E-03 0. -1.
        -11    1    3    3    0    0 -0.64248317761E+01  0.28185284411E+01 -0.21181663923E+01  0.73286557466E+01  0.51100000000E-03 0.  1.
        -12    1    3    3    0    0 -0.18054550223E+02 -0.17460137531E+02 -0.53210762815E+01  0.25673664311E+02  0.00000000000E+00 0.  1.
</event>
<event>
 7    1  0.1290195E-011  0.5930193E+02  0.7816164E-02  0.1266605E+00
        -11   -1    0    0    0    0  0.00000000000E+00  0.00000000000E+00  0.45593999997E+02  0.45594000000E+02  0.51100000000E-03 0. -1.
         11   -1    0    0    0    0 -0.00000000000E+00 -0.00000000000E+00 -0.45593999997E+02  0.45594000000E+02  0.51100000000E-03 0.  1.
    9900012    2    1    2    0    0  0.22979294454E+02 -0.13655976453E+02 -0.17383541558E+02  0.59301934335E+02  0.49999982322E+02 0.  0.
        -12    1    1    2    0    0 -0.22979294454E+02  0.13655976453E+02  0.17383541558E+02  0.31886065665E+02  0.00000000000E+00 0.  1.
         11    1    3    3    0    0 -0.31452080068E+01 -0.29303180721E+01  0.34529424073E+01  0.55137926094E+01  0.51100000000E-03 0. -1.
        -11    1    3    3    0    0 -0.72776271146E+01  0.66513765133E+01  0.15552273118E+01  0.99811521476E+01  0.51100000000E-03 0.  1.
         12    1    3    3    0    0  0.33402129576E+02 -0.17377034895E+02 -0.22391711277E+02  0.43806989578E+02  0.00000000000E+00 0. -1.
</event>
<event>
 7    1  0.1290195E-011  0.5930196E+02  0.7816164E-02  0.1266605E+00
        -11   -1    0    0    0    0  0.00000000000E+00  0.00000000000E+00  0.45593999997E+02  0.45594000000E+02  0.51100000000E-03 0. -1.
         11   -1    0    0    0    0 -0.00000000000E+00 -0.00000000000E+00 -0.45593999997E+02  0.45594000000E+02  0.51100000000E-03 0.  1.
    9900012    2    1    2    0    0 -0.20419598669E+02  0.80618800212E+00  0.24476714581E+02  0.59301960647E+02  0.50000030310E+02 0.  0.
        -12    1    1    2    0    0  0.20419598669E+02 -0.80618800212E+00 -0.24476714581E+02  0.31886039353E+02  0.00000000000E+00 0.  1.
         11    1    3    3    0    0 -0.70496215896E+01 -0.60453211100E+01  0.18136988794E+02  0.20376295901E+02  0.51100000000E-03 0. -1.
        -11    1    3    3    0    0  0.62059908473E+01  0.10290841154E+02  0.13245256773E+02  0.17884422308E+02  0.51100000000E-03 0.  1.
         12    1    3    3    0    0 -0.19575967927E+02 -0.34393320420E+01 -0.69055309852E+01  0.21041242438E+02  0.00000000000E+00 0. -1.
</event>
<event>
 7    1  0.1290195E-011  0.5930200E+02  0.7816164E-02  0.1266605E+00
        -11   -1    0    0    0    0  0.00000000000E+00  0.00000000000E+00  0.45593999997E+02  0.45594000000E+02  0.51100000000E-03 0.  1.
         11   -1    0    0    0    0 -0.00000000000E+00 -0.00000000000E+00 -0.45593999997E+02  0.45594000000E+02  0.51100000000E-03 0. -1.
    9900012    2    1    2    0    0 -0.20287597294E+02 -0.72329721326E+01 -0.23512003818E+02  0.59302002864E+02  0.50000107303E+02 0.  0.
        -12    1    1    2    0    0  0.20287597294E+02  0.72329721326E+01  0.23512003818E+02  0.31885997136E+02  0.00000000000E+00 0.  1.
         11    1    3    3    0    0  0.44758677763E+01 -0.79277019662E+00 -0.17185749520E+02  0.17776722526E+02  0.51100000000E-03 0. -1.
        -11    1    3    3    0    0 -0.16400565143E+02  0.12291382177E+02 -0.23469294374E+01  0.20629219347E+02  0.51100000000E-03 0.  1.
        -12    1    3    3    0    0 -0.83628999267E+01 -0.18731584113E+02 -0.39793248603E+01  0.20896060990E+02  0.00000000000E+00 0.  1.
</event>
<event>
 7    1  0.1290195E-011  0.5930188E+02  0.7816164E-02  0.1266605E+00
        -11   -1    0    0    0    0  0.00000000000E+00  0.00000000000E+00  0.45593999997E+02  0.45594000000E+02  0.51100000000E-03 0.  1.
         11   -1    0    0    0    0 -0.00000000000E+00 -0.00000000000E+00 -0.45593999997E+02  0.45594000000E+02  0.51100000000E-03 0. -1.
    9900012    2    1    2    0    0  0.37029436607E+01  0.27912011262E+02 -0.14964367805E+02  0.59301882829E+02  0.49999888388E+02 0.  0.
        -12    1    1    2    0    0 -0.37029436607E+01 -0.27912011262E+02  0.14964367805E+02  0.31886117171E+02  0.00000000000E+00 0.  1.
         11    1    3    3    0    0 -0.14635253625E+02  0.34164974069E+01 -0.15419903874E+02  0.21532220948E+02  0.51100000000E-03 0. -1.
        -11    1    3    3    0    0 -0.14789776682E+01 -0.30967827879E+01  0.15835302338E+01  0.37795511428E+01  0.51100000000E-03 0.  1.
         12    1    3    3    0    0  0.19817174954E+02  0.27592296643E+02 -0.11279941651E+01  0.33990110739E+02  0.00000000000E+00 0. -1.
</event>
<event>
 7    1  0.1290195E-011  0.5930196E+02  0.7816164E-02  0.1266605E+00
        -11   -1    0    0    0    0  0.00000000000E+00  0.00000000000E+00  0.45593999997E+02  0.45594000000E+02  0.51100000000E-03 0.  1.
         11   -1    0    0    0    0 -0.00000000000E+00 -0.00000000000E+00 -0.45593999997E+02  0.45594000000E+02  0.51100000000E-03 0. -1.
    9900012    2    1    2    0    0  0.25330038280E+02  0.15950538667E+02 -0.10985862882E+02  0.59301957500E+02  0.50000024570E+02 0.  0.
        -12    1    1    2    0    0 -0.25330038280E+02 -0.15950538667E+02  0.10985862882E+02  0.31886042500E+02  0.00000000000E+00 0.  1.
         11    1    3    3    0    0 -0.54776465703E+01  0.73067754149E+01 -0.97208337609E+01  0.13337473081E+02  0.51100000000E-03 0. -1.
        -11    1    3    3    0    0  0.17599352170E+02  0.21314774591E+02 -0.97579000340E+00  0.27658795691E+02  0.51100000000E-03 0.  1.
        -12    1    3    3    0    0  0.13208332680E+02 -0.12671011339E+02 -0.28923911790E+00  0.18305688728E+02  0.00000000000E+00 0.  1.
</event>
<event>
 7    1  0.1290195E-011  0.5930199E+02  0.7816164E-02  0.1266605E+00
        -11   -1    0    0    0    0  0.00000000000E+00  0.00000000000E+00  0.45593999997E+02  0.45594000000E+02  0.51100000000E-03 0.  1.
         11   -1    0    0    0    0 -0.00000000000E+00 -0.00000000000E+00 -0.45593999997E+02  0.45594000000E+02  0.51100000000E-03 0. -1.
    9900012    2    1    2    0    0 -0.20090008457E+02 -0.34691937832E+01 -0.24516809881E+02  0.59301988772E+02  0.50000081603E+02 0.  0.
        -12    1    1    2    0    0  0.20090008457E+02  0.34691937832E+01  0.24516809881E+02  0.31886011228E+02  0.00000000000E+00 0.  1.
         11    1    3    3    0    0 -0.20219832735E+02 -0.36320573108E+01 -0.32113622729E+01  0.20792939284E+02  0.51100000000E-03 0. -1.
        -11    1    3    3    0    0 -0.15506878215E+02  0.29471382678E+01 -0.75470623637E+01  0.17495915138E+02  0.51100000000E-03 0.  1.
        -12    1    3    3    0    0  0.15636702493E+02 -0.27842747402E+01 -0.13758385244E+02  0.21013134350E+02  0.00000000000E+00 0.  1.
</event>
<event>
 7    1  0.1290195E-011  0.5930195E+02  0.7816164E-02  0.1266605E+00
        -11   -1    0    0    0    0  0.00000000000E+00  0.00000000000E+00  0.45593999997E+02  0.45594000000E+02  0.51100000000E-03 0.  1.
         11   -1    0    0    0    0 -0.00000000000E+00 -0.00000000000E+00 -0.45593999997E+02  0.45594000000E+02  0.51100000000E-03 0. -1.
    9900012    2    1    2    0    0 -0.14808286149E+02  0.11210419196E+02 -0.25918361049E+02  0.59301948556E+02  0.50000008259E+02 0.  0.
        -12    1    1    2    0    0  0.14808286149E+02 -0.11210419196E+02  0.25918361049E+02  0.31886051444E+02  0.00000000000E+00 0.  1.
         11    1    3    3    0    0  0.24432865507E+01  0.10193446354E+02  0.20745199158E+01  0.10685486928E+02  0.51100000000E-03 0. -1.
        -11    1    3    3    0    0 -0.16540326643E+02  0.74583091518E+00  0.36580207916E+01  0.16956408393E+02  0.51100000000E-03 0.  1.
         12    1    3    3    0    0 -0.71124605683E+00  0.27114192665E+00 -0.31650901756E+02  0.31660053236E+02  0.00000000000E+00 0. -1.
</event>
<event>
 7    1  0.1290195E-011  0.5930194E+02  0.7816164E-02  0.1266605E+00
        -11   -1    0    0    0    0  0.00000000000E+00  0.00000000000E+00  0.45593999997E+02  0.45594000000E+02  0.51100000000E-03 0.  1.
         11   -1    0    0    0    0 -0.00000000000E+00 -0.00000000000E+00 -0.45593999997E+02  0.45594000000E+02  0.51100000000E-03 0. -1.
    9900012    2    1    2    0    0  0.22668406761E+02  0.38835744893E+01 -0.22085792620E+02  0.59301936405E+02  0.49999986098E+02 0.  0.
        -12    1    1    2    0    0 -0.22668406761E+02 -0.38835744893E+01  0.22085792620E+02  0.31886063595E+02  0.00000000000E+00 0.  1.
         11    1    3    3    0    0 -0.27467591368E+01  0.10919221326E+02  0.26915935558E+01  0.11576647021E+02  0.51100000000E-03 0. -1.
        -11    1    3    3    0    0 -0.37021590734E+01 -0.80559639119E+01  0.87160957070E+00  0.89086609465E+01  0.51100000000E-03 0.  1.
         12    1    3    3    0    0  0.29117324971E+02  0.10203170750E+01 -0.25648995747E+02  0.38816628437E+02  0.00000000000E+00 0. -1.
</event>
<event>
 7    1  0.1290195E-011  0.5930196E+02  0.7816164E-02  0.1266605E+00
        -11   -1    0    0    0    0  0.00000000000E+00  0.00000000000E+00  0.45593999997E+02  0.45594000000E+02  0.51100000000E-03 0. -1.
         11   -1    0    0    0    0 -0.00000000000E+00 -0.00000000000E+00 -0.45593999997E+02  0.45594000000E+02  0.51100000000E-03 0.  1.
    9900012    2    1    2    0    0  0.30516479166E+02 -0.71189334934E+01  0.58978432391E+01  0.59301964347E+02  0.50000037058E+02 0.  0.
        -12    1    1    2    0    0 -0.30516479166E+02  0.71189334934E+01 -0.58978432391E+01  0.31886035653E+02  0.00000000000E+00 0.  1.
         11    1    3    3    0    0 -0.70168637157E+01  0.96308439226E+00 -0.10861280316E+01  0.71654436229E+01  0.51100000000E-03 0. -1.
        -11    1    3    3    0    0  0.44830745468E+01  0.10009778683E+02 -0.57259096491E+01  0.12372536856E+02  0.51100000000E-03 0.  1.
         12    1    3    3    0    0  0.33050268335E+02 -0.18091796569E+02  0.12709880920E+02  0.39763983869E+02  0.00000000000E+00 0. -1.
</event>
<event>
 7    1  0.1290195E-011  0.5930192E+02  0.7816164E-02  0.1266605E+00
        -11   -1    0    0    0    0  0.00000000000E+00  0.00000000000E+00  0.45593999997E+02  0.45594000000E+02  0.51100000000E-03 0.  1.
         11   -1    0    0    0    0 -0.00000000000E+00 -0.00000000000E+00 -0.45593999997E+02  0.45594000000E+02  0.51100000000E-03 0. -1.
    9900012    2    1    2    0    0  0.29571620637E+02 -0.11916790066E+02 -0.48088923203E+00  0.59301923305E+02  0.49999962206E+02 0.  0.
        -12    1    1    2    0    0 -0.29571620637E+02  0.11916790066E+02  0.48088923203E+00  0.31886076695E+02  0.00000000000E+00 0.  1.
         11    1    3    3    0    0  0.11969706128E+02 -0.10660156233E+02 -0.15987089106E+01  0.16108031107E+02  0.51100000000E-03 0. -1.
        -11    1    3    3    0    0  0.78659891917E+01 -0.93613314296E+01 -0.17089461919E+02  0.21013282015E+02  0.51100000000E-03 0.  1.
         12    1    3    3    0    0  0.97359253176E+01  0.81046975963E+01  0.18207281598E+02  0.22180610183E+02  0.00000000000E+00 0. -1.
</event>
<event>
 7    1  0.1290195E-011  0.5930199E+02  0.7816164E-02  0.1266605E+00
        -11   -1    0    0    0    0  0.00000000000E+00  0.00000000000E+00  0.45593999997E+02  0.45594000000E+02  0.51100000000E-03 0.  1.
         11   -1    0    0    0    0 -0.00000000000E+00 -0.00000000000E+00 -0.45593999997E+02  0.45594000000E+02  0.51100000000E-03 0. -1.
    9900012    2    1    2    0    0 -0.24804136246E+02 -0.92492988931E+01 -0.17774216398E+02  0.59301992513E+02  0.50000088425E+02 0.  0.
        -12    1    1    2    0    0  0.24804136246E+02  0.92492988931E+01  0.17774216398E+02  0.31886007487E+02  0.00000000000E+00 0.  1.
         11    1    3    3    0    0 -0.57228732951E+01 -0.20967567762E+02 -0.66859635817E+01  0.22739663275E+02  0.51100000000E-03 0. -1.
        -11    1    3    3    0    0 -0.16482872877E+02 -0.33114167581E+01 -0.12915689185E+02  0.21200603921E+02  0.51100000000E-03 0.  1.
        -12    1    3    3    0    0 -0.25983900734E+01  0.15029685627E+02  0.18274363677E+01  0.15361725316E+02  0.00000000000E+00 0.  1.
</event>
<event>
 7    1  0.1290195E-011  0.5930195E+02  0.7816164E-02  0.1266605E+00
        -11   -1    0    0    0    0  0.00000000000E+00  0.00000000000E+00  0.45593999997E+02  0.45594000000E+02  0.51100000000E-03 0. -1.
         11   -1    0    0    0    0 -0.00000000000E+00 -0.00000000000E+00 -0.45593999997E+02  0.45594000000E+02  0.51100000000E-03 0.  1.
    9900012    2    1    2    0    0  0.92388432258E+01 -0.23852139676E+02  0.19037839322E+02  0.59301951055E+02  0.50000012817E+02 0.  0.
        -12    1    1    2    0    0 -0.92388432258E+01  0.23852139676E+02 -0.19037839322E+02  0.31886048945E+02  0.00000000000E+00 0.  1.
         11    1    3    3    0    0 -0.12702286060E+02 -0.98496627766E+01  0.24479446294E+02  0.29284931605E+02  0.51100000000E-03 0. -1.
        -11    1    3    3    0    0 -0.89954214281E+00 -0.52293393556E-01  0.20374542029E+01  0.22278084648E+01  0.51100000000E-03 0.  1.
        -12    1    3    3    0    0  0.22840671429E+02 -0.13950183506E+02 -0.74790611752E+01  0.27789210986E+02  0.00000000000E+00 0.  1.
</event>
<event>
 7    1  0.1290195E-011  0.5930192E+02  0.7816164E-02  0.1266605E+00
        -11   -1    0    0    0    0  0.00000000000E+00  0.00000000000E+00  0.45593999997E+02  0.45594000000E+02  0.51100000000E-03 0. -1.
         11   -1    0    0    0    0 -0.00000000000E+00 -0.00000000000E+00 -0.45593999997E+02  0.45594000000E+02  0.51100000000E-03 0.  1.
    9900012    2    1    2    0    0  0.20650814969E+02 -0.18889309361E+02  0.15279386576E+02  0.59301924338E+02  0.49999964090E+02 0.  0.
        -12    1    1    2    0    0 -0.20650814969E+02  0.18889309361E+02 -0.15279386576E+02  0.31886075662E+02  0.00000000000E+00 0.  1.
         11    1    3    3    0    0  0.49164842291E+01 -0.23932008333E+01  0.49428632609E+01  0.73709649898E+01  0.51100000000E-03 0. -1.
        -11    1    3    3    0    0  0.29701902936E+02 -0.90505816302E+01  0.16236337370E+02  0.35039045610E+02  0.51100000000E-03 0.  1.
        -12    1    3    3    0    0 -0.13967572196E+02 -0.74455268974E+01 -0.58998140548E+01  0.16891913737E+02  0.00000000000E+00 0.  1.
</event>
<event>
 7    1  0.1290195E-011  0.5930193E+02  0.7816164E-02  0.1266605E+00
        -11   -1    0    0    0    0  0.00000000000E+00  0.00000000000E+00  0.45593999997E+02  0.45594000000E+02  0.51100000000E-03 0.  1.
         11   -1    0    0    0    0 -0.00000000000E+00 -0.00000000000E+00 -0.45593999997E+02  0.45594000000E+02  0.51100000000E-03 0. -1.
    9900012    2    1    2    0    0  0.28942166440E+02 -0.59063531825E+01 -0.12007812188E+02  0.59301928437E+02  0.49999971567E+02 0.  0.
        -12    1    1    2    0    0 -0.28942166440E+02  0.59063531825E+01  0.12007812188E+02  0.31886071563E+02  0.00000000000E+00 0.  1.
         11    1    3    3    0    0  0.39090675557E+01  0.49372130127E+01  0.99513725788E+01  0.11776531661E+02  0.51100000000E-03 0. -1.
        -11    1    3    3    0    0  0.52788643777E+01  0.92614814116E+01  0.16132563443E+01  0.10781653090E+02  0.51100000000E-03 0.  1.
        -12    1    3    3    0    0  0.19754234507E+02 -0.20105047607E+02 -0.23572441111E+02  0.36743743687E+02  0.00000000000E+00 0.  1.
</event>
<event>
 7    1  0.1290195E-011  0.5930194E+02  0.7816164E-02  0.1266605E+00
        -11   -1    0    0    0    0  0.00000000000E+00  0.00000000000E+00  0.45593999997E+02  0.45594000000E+02  0.51100000000E-03 0.  1.
         11   -1    0    0    0    0 -0.00000000000E+00 -0.00000000000E+00 -0.45593999997E+02  0.45594000000E+02  0.51100000000E-03 0. -1.
    9900012    2    1    2    0    0 -0.17721850928E+02 -0.16639604964E+02 -0.20634448287E+02  0.59301938629E+02  0.49999990154E+02 0.  0.
        -12    1    1    2    0    0  0.17721850928E+02  0.16639604964E+02  0.20634448287E+02  0.31886061371E+02  0.00000000000E+00 0.  1.
         11    1    3    3    0    0 -0.14797754331E+02 -0.78855274471E+01 -0.64313567102E+01  0.17958770162E+02  0.51100000000E-03 0. -1.
        -11    1    3    3    0    0 -0.45825194920E+01  0.28378742250E+01  0.11718844016E+02  0.12899004626E+02  0.51100000000E-03 0.  1.
         12    1    3    3    0    0  0.16584228946E+01 -0.11591951742E+02 -0.25921935593E+02  0.28444163840E+02  0.00000000000E+00 0. -1.
</event>
<event>
 7    1  0.1290195E-011  0.5930197E+02  0.7816164E-02  0.1266605E+00
        -11   -1    0    0    0    0  0.00000000000E+00  0.00000000000E+00  0.45593999997E+02  0.45594000000E+02  0.51100000000E-03 0.  1.
         11   -1    0    0    0    0 -0.00000000000E+00 -0.00000000000E+00 -0.45593999997E+02  0.45594000000E+02  0.51100000000E-03 0. -1.
    9900012    2    1    2    0    0 -0.72794972048E+01 -0.12376525935E+02 -0.28470146499E+02  0.59301973038E+02  0.50000052907E+02 0.  0.
        -12    1    1    2    0    0  0.72794972048E+01  0.12376525935E+02  0.28470146499E+02  0.31886026962E+02  0.00000000000E+00 0.  1.
         11    1    3    3    0    0  0.65101571778E+01 -0.15674252750E+02 -0.33831739160E+02  0.37850375436E+02  0.51100000000E-03 0. -1.
        -11    1    3    3    0    0 -0.74140163021E+01 -0.39877622815E+01 -0.27132310192E+01  0.88448577470E+01  0.51100000000E-03 0.  1.
        -12    1    3    3    0    0 -0.63756380805E+01  0.72854890959E+01  0.80748236807E+01  0.12606739855E+02  0.00000000000E+00 0.  1.
</event>
<event>
 7    1  0.1290195E-011  0.5930195E+02  0.7816164E-02  0.1266605E+00
        -11   -1    0    0    0    0  0.00000000000E+00  0.00000000000E+00  0.45593999997E+02  0.45594000000E+02  0.51100000000E-03 0.  1.
         11   -1    0    0    0    0 -0.00000000000E+00 -0.00000000000E+00 -0.45593999997E+02  0.45594000000E+02  0.51100000000E-03 0. -1.
    9900012    2    1    2    0    0  0.33660268220E+01  0.30631583963E+02 -0.81912149766E+01  0.59301951712E+02  0.50000014014E+02 0.  0.
        -12    1    1    2    0    0 -0.33660268220E+01 -0.30631583963E+02  0.81912149766E+01  0.31886048288E+02  0.00000000000E+00 0.  1.
         11    1    3    3    0    0  0.46940719101E+01 -0.56323520237E+01  0.14267959866E+01  0.74695011523E+01  0.51100000000E-03 0. -1.
        -11    1    3    3    0    0  0.82786542772E+01 -0.37299745900E+01 -0.52016693507E+01  0.10464520600E+02  0.51100000000E-03 0.  1.
         12    1    3    3    0    0 -0.96066993654E+01  0.39993910577E+02 -0.44163416126E+01  0.41367929960E+02  0.00000000000E+00 0. -1.
</event>
<event>
 7    1  0.1290195E-011  0.5930207E+02  0.7816164E-02  0.1266604E+00
        -11   -1    0    0    0    0  0.00000000000E+00  0.00000000000E+00  0.45593999997E+02  0.45594000000E+02  0.51100000000E-03 0.  1.
         11   -1    0    0    0    0 -0.00000000000E+00 -0.00000000000E+00 -0.45593999997E+02  0.45594000000E+02  0.51100000000E-03 0. -1.
    9900012    2    1    2    0    0  0.93626720915E+01 -0.32242016617E+01 -0.30309364827E+02  0.59302067345E+02  0.50000224901E+02 0.  0.
        -12    1    1    2    0    0 -0.93626720915E+01  0.32242016617E+01  0.30309364827E+02  0.31885932655E+02  0.00000000000E+00 0.  1.
         11    1    3    3    0    0  0.22033983027E+02 -0.47324916179E+01 -0.57560700902E+01  0.23259949013E+02  0.51100000000E-03 0. -1.
        -11    1    3    3    0    0 -0.14261695007E+02 -0.57881170213E+01 -0.68864989195E+01  0.16861853716E+02  0.51100000000E-03 0.  1.
        -12    1    3    3    0    0  0.15903840712E+01  0.72964069774E+01 -0.17666795817E+02  0.19180264616E+02  0.00000000000E+00 0.  1.
</event>
<event>
 7    1  0.1290195E-011  0.5930197E+02  0.7816164E-02  0.1266605E+00
        -11   -1    0    0    0    0  0.00000000000E+00  0.00000000000E+00  0.45593999997E+02  0.45594000000E+02  0.51100000000E-03 0.  1.
         11   -1    0    0    0    0 -0.00000000000E+00 -0.00000000000E+00 -0.45593999997E+02  0.45594000000E+02  0.51100000000E-03 0. -1.
    9900012    2    1    2    0    0  0.24865777008E+02 -0.19870950521E+02 -0.18861591241E+01  0.59301966426E+02  0.50000040849E+02 0.  0.
        -12    1    1    2    0    0 -0.24865777008E+02  0.19870950521E+02  0.18861591241E+01  0.31886033574E+02  0.00000000000E+00 0.  1.
         11    1    3    3    0    0  0.51594383831E+01  0.21911697100E+01 -0.69630578776E+01  0.89389711038E+01  0.51100000000E-03 0. -1.
        -11    1    3    3    0    0 -0.12610736898E+02 -0.68063950720E+01  0.23550128870E+01  0.14522526810E+02  0.51100000000E-03 0.  1.
         12    1    3    3    0    0  0.32317075523E+02 -0.15255725159E+02  0.27218858665E+01  0.35840468512E+02  0.00000000000E+00 0. -1.
</event>
<event>
 7    1  0.1290195E-011  0.5930193E+02  0.7816164E-02  0.1266605E+00
        -11   -1    0    0    0    0  0.00000000000E+00  0.00000000000E+00  0.45593999997E+02  0.45594000000E+02  0.51100000000E-03 0.  1.
         11   -1    0    0    0    0 -0.00000000000E+00 -0.00000000000E+00 -0.45593999997E+02  0.45594000000E+02  0.51100000000E-03 0. -1.
    9900012    2    1    2    0    0  0.16531388800E+02 -0.24885723855E+02  0.11141606484E+02  0.59301929962E+02  0.49999974347E+02 0.  0.
        -12    1    1    2    0    0 -0.16531388800E+02  0.24885723855E+02 -0.11141606484E+02  0.31886070038E+02  0.00000000000E+00 0.  1.
         11    1    3    3    0    0 -0.10477135626E+00  0.17181613276E+01  0.12822816655E+02  0.12937839179E+02  0.51100000000E-03 0. -1.
        -11    1    3    3    0    0 -0.22456525011E+01 -0.28918263879E+00  0.11260662269E+02  0.11486039211E+02  0.51100000000E-03 0.  1.
         12    1    3    3    0    0  0.18881812657E+02 -0.26314702544E+02 -0.12941872441E+02  0.34878051572E+02  0.00000000000E+00 0. -1.
</event>
<event>
 7    1  0.1455050E-011  0.5930192E+02  0.7816164E-02  0.1266605E+00
        -11   -1    0    0    0    0  0.00000000000E+00  0.00000000000E+00  0.45593999997E+02  0.45594000000E+02  0.51100000000E-03 0. -1.
         11   -1    0    0    0    0 -0.00000000000E+00 -0.00000000000E+00 -0.45593999997E+02  0.45594000000E+02  0.51100000000E-03 0.  1.
    9900012    2    1    2    0    0 -0.20811159740E+02 -0.33483395715E+01  0.23925013602E+02  0.59301921165E+02  0.49999958304E+02 0.  0.
        -12    1    1    2    0    0  0.20811159740E+02  0.33483395715E+01 -0.23925013602E+02  0.31886078835E+02  0.00000000000E+00 0.  1.
         11    1    3    3    0    0 -0.14081895058E+02  0.11236318645E+02  0.12622526930E+02  0.21997336463E+02  0.51100000000E-03 0. -1.
        -11    1    3    3    0    0 -0.12298639716E+02 -0.17676998922E+01 -0.70122369461E+01  0.14267192051E+02  0.51100000000E-03 0.  1.
        -12    1    3    3    0    0  0.55693750338E+01 -0.12816958324E+02  0.18314723618E+02  0.23037392651E+02  0.00000000000E+00 0.  1.
</event>
<event>
 7    1  0.1290195E-011  0.5930178E+02  0.7816164E-02  0.1266605E+00
        -11   -1    0    0    0    0  0.00000000000E+00  0.00000000000E+00  0.45593999997E+02  0.45594000000E+02  0.51100000000E-03 0.  1.
         11   -1    0    0    0    0 -0.00000000000E+00 -0.00000000000E+00 -0.45593999997E+02  0.45594000000E+02  0.51100000000E-03 0. -1.
    9900012    2    1    2    0    0  0.26974175048E+02 -0.13119904413E+02 -0.10816344655E+02  0.59301775341E+02  0.49999692355E+02 0.  0.
        -12    1    1    2    0    0 -0.26974175048E+02  0.13119904413E+02  0.10816344655E+02  0.31886224659E+02  0.00000000000E+00 0.  1.
         11    1    3    3    0    0  0.15419015296E+01 -0.38738242507E+01 -0.81304445286E+01  0.91371824512E+01  0.51100000000E-03 0. -1.
        -11    1    3    3    0    0  0.35690301159E+02 -0.14545205844E+02 -0.24032023112E+01  0.38615230045E+02  0.51100000000E-03 0.  1.
         12    1    3    3    0    0 -0.10258027640E+02  0.52991256819E+01 -0.28269781495E+00  0.11549362844E+02  0.00000000000E+00 0. -1.
</event>
<event>
 7    1  0.1290195E-011  0.5930195E+02  0.7816164E-02  0.1266605E+00
        -11   -1    0    0    0    0  0.00000000000E+00  0.00000000000E+00  0.45593999997E+02  0.45594000000E+02  0.51100000000E-03 0. -1.
         11   -1    0    0    0    0 -0.00000000000E+00 -0.00000000000E+00 -0.45593999997E+02  0.45594000000E+02  0.51100000000E-03 0.  1.
    9900012    2    1    2    0    0 -0.31729332932E+02 -0.21157270980E+01  0.23438403686E+01  0.59301945727E+02  0.50000003099E+02 0.  0.
        -12    1    1    2    0    0  0.31729332932E+02  0.21157270980E+01 -0.23438403686E+01  0.31886054273E+02  0.00000000000E+00 0.  1.
         11    1    3    3    0    0 -0.31346767163E+02 -0.48547350259E+00 -0.47053591988E+01  0.31701670327E+02  0.51100000000E-03 0. -1.
        -11    1    3    3    0    0 -0.30622209142E+01  0.96528973672E+01 -0.46355362842E+01  0.11137496191E+02  0.51100000000E-03 0.  1.
        -12    1    3    3    0    0  0.26796551454E+01 -0.11283150963E+02  0.11684735852E+02  0.16462779208E+02  0.00000000000E+00 0.  1.
</event>
<event>
 7    1  0.1290195E-011  0.5930194E+02  0.7816164E-02  0.1266605E+00
        -11   -1    0    0    0    0  0.00000000000E+00  0.00000000000E+00  0.45593999997E+02  0.45594000000E+02  0.51100000000E-03 0. -1.
         11   -1    0    0    0    0 -0.00000000000E+00 -0.00000000000E+00 -0.45593999997E+02  0.45594000000E+02  0.51100000000E-03 0.  1.
    9900012    2    1    2    0    0  0.24296375099E+02  0.19918770660E+02 -0.54451401820E+01  0.59301940050E+02  0.49999992745E+02 0.  0.
        -12    1    1    2    0    0 -0.24296375099E+02 -0.19918770660E+02  0.54451401820E+01  0.31886059950E+02  0.00000000000E+00 0.  1.
         11    1    3    3    0    0  0.37459069759E+01  0.11877538424E+02 -0.81408193884E+01  0.14878866848E+02  0.51100000000E-03 0. -1.
        -11    1    3    3    0    0 -0.46778275720E+01 -0.37457273014E+01 -0.11648545024E+02  0.13099662028E+02  0.51100000000E-03 0.  1.
         12    1    3    3    0    0  0.25228295695E+02  0.11786959538E+02  0.14344224231E+02  0.31323411174E+02  0.00000000000E+00 0. -1.
</event>
<event>
 7    1  0.1290195E-011  0.5930190E+02  0.7816164E-02  0.1266605E+00
        -11   -1    0    0    0    0  0.00000000000E+00  0.00000000000E+00  0.45593999997E+02  0.45594000000E+02  0.51100000000E-03 0.  1.
         11   -1    0    0    0    0 -0.00000000000E+00 -0.00000000000E+00 -0.45593999997E+02  0.45594000000E+02  0.51100000000E-03 0. -1.
    9900012    2    1    2    0    0 -0.89680252915E+01 -0.39129852573E+01 -0.30347759681E+02  0.59301898813E+02  0.49999917540E+02 0.  0.
        -12    1    1    2    0    0  0.89680252915E+01  0.39129852573E+01  0.30347759681E+02  0.31886101187E+02  0.00000000000E+00 0.  1.
         11    1    3    3    0    0 -0.31446837687E+01 -0.12808630634E+01  0.73968443932E+01  0.81389774192E+01  0.51100000000E-03 0. -1.
        -11    1    3    3    0    0  0.68671971260E+01 -0.18665050156E+01  0.35520364255E+01  0.79535652616E+01  0.51100000000E-03 0.  1.
         12    1    3    3    0    0 -0.12690538649E+02 -0.76561717822E+00 -0.41296640499E+02  0.43209356133E+02  0.00000000000E+00 0. -1.
</event>
<event>
 7    1  0.1290195E-011  0.5930194E+02  0.7816164E-02  0.1266605E+00
        -11   -1    0    0    0    0  0.00000000000E+00  0.00000000000E+00  0.45593999997E+02  0.45594000000E+02  0.51100000000E-03 0. -1.
         11   -1    0    0    0    0 -0.00000000000E+00 -0.00000000000E+00 -0.45593999997E+02  0.45594000000E+02  0.51100000000E-03 0.  1.
    9900012    2    1    2    0    0  0.40491541888E+01  0.17776975266E+02  0.26159208621E+02  0.59301941998E+02  0.49999996299E+02 0.  0.
        -12    1    1    2    0    0 -0.40491541888E+01 -0.17776975266E+02 -0.26159208621E+02  0.31886058002E+02  0.00000000000E+00 0.  1.
         11    1    3    3    0    0 -0.31021417557E+01  0.20459238332E+02  0.28431703357E+02  0.35164832896E+02  0.51100000000E-03 0. -1.
        -11    1    3    3    0    0 -0.70969555906E+01  0.51971853028E+00  0.40900700353E+01  0.82076524757E+01  0.51100000000E-03 0.  1.
         12    1    3    3    0    0  0.14248251535E+02 -0.32019815961E+01 -0.63625647713E+01  0.15929456627E+02  0.00000000000E+00 0. -1.
</event>
<event>
 7    1  0.1290195E-011  0.5930193E+02  0.7816164E-02  0.1266605E+00
        -11   -1    0    0    0    0  0.00000000000E+00  0.00000000000E+00  0.45593999997E+02  0.45594000000E+02  0.51100000000E-03 0.  1.
         11   -1    0    0    0    0 -0.00000000000E+00 -0.00000000000E+00 -0.45593999997E+02  0.45594000000E+02  0.51100000000E-03 0. -1.
    9900012    2    1    2    0    0  0.10111742711E+02  0.30234411388E+02  0.59529765209E+00  0.59301931696E+02  0.49999977509E+02 0.  0.
        -12    1    1    2    0    0 -0.10111742711E+02 -0.30234411388E+02 -0.59529765209E+00  0.31886068304E+02  0.00000000000E+00 0.  1.
         11    1    3    3    0    0  0.14754069666E+02  0.93292314212E+01  0.32794694011E+01  0.17761532885E+02  0.51100000000E-03 0. -1.
        -11    1    3    3    0    0  0.19657023336E+01  0.29537970934E+02 -0.59366841866E+01  0.30192713226E+02  0.51100000000E-03 0.  1.
        -12    1    3    3    0    0 -0.66080292887E+01 -0.86327909674E+01  0.32525124376E+01  0.11347685584E+02  0.00000000000E+00 0.  1.
</event>
<event>
 7    1  0.1290195E-011  0.5930194E+02  0.7816164E-02  0.1266605E+00
        -11   -1    0    0    0    0  0.00000000000E+00  0.00000000000E+00  0.45593999997E+02  0.45594000000E+02  0.51100000000E-03 0. -1.
         11   -1    0    0    0    0 -0.00000000000E+00 -0.00000000000E+00 -0.45593999997E+02  0.45594000000E+02  0.51100000000E-03 0.  1.
    9900012    2    1    2    0    0  0.24944665700E+02 -0.15925735779E+02  0.11868244441E+02  0.59301942967E+02  0.49999998066E+02 0.  0.
        -12    1    1    2    0    0 -0.24944665700E+02  0.15925735779E+02 -0.11868244441E+02  0.31886057033E+02  0.00000000000E+00 0.  1.
         11    1    3    3    0    0  0.20646686625E+02  0.22466208823E+01 -0.34661498420E+01  0.21055810813E+02  0.51100000000E-03 0. -1.
        -11    1    3    3    0    0  0.90775245170E+01 -0.69531728716E+01 -0.65614640143E+01  0.13183355969E+02  0.51100000000E-03 0.  1.
        -12    1    3    3    0    0 -0.47795454424E+01 -0.11219183789E+02  0.21895858298E+02  0.25062776186E+02  0.00000000000E+00 0.  1.
</event>
<event>
 7    1  0.1290195E-011  0.5930195E+02  0.7816164E-02  0.1266605E+00
        -11   -1    0    0    0    0  0.00000000000E+00  0.00000000000E+00  0.45593999997E+02  0.45594000000E+02  0.51100000000E-03 0. -1.
         11   -1    0    0    0    0 -0.00000000000E+00 -0.00000000000E+00 -0.45593999997E+02  0.45594000000E+02  0.51100000000E-03 0.  1.
    9900012    2    1    2    0    0 -0.93521756267E+00 -0.14747264963E+02  0.28255329549E+02  0.59301951269E+02  0.50000013205E+02 0.  0.
        -12    1    1    2    0    0  0.93521756267E+00  0.14747264963E+02 -0.28255329549E+02  0.31886048731E+02  0.00000000000E+00 0.  1.
         11    1    3    3    0    0  0.91119237536E+01  0.65378945910E+01  0.62570102257E+01  0.12842172612E+02  0.51100000000E-03 0. -1.
        -11    1    3    3    0    0  0.62232215166E+01  0.26461989999E+01 -0.37430641663E+01  0.77292551262E+01  0.51100000000E-03 0.  1.
         12    1    3    3    0    0 -0.16270362833E+02 -0.23931358554E+02  0.25741383489E+02  0.38730523530E+02  0.00000000000E+00 0. -1.
</event>
<event>
 7    1  0.1290195E-011  0.5930193E+02  0.7816164E-02  0.1266605E+00
        -11   -1    0    0    0    0  0.00000000000E+00  0.00000000000E+00  0.45593999997E+02  0.45594000000E+02  0.51100000000E-03 0. -1.
         11   -1    0    0    0    0 -0.00000000000E+00 -0.00000000000E+00 -0.45593999997E+02  0.45594000000E+02  0.51100000000E-03 0.  1.
    9900012    2    1    2    0    0  0.11216648907E+02  0.28502553057E+02 -0.88607354428E+01  0.59301931317E+02  0.49999976819E+02 0.  0.
        -12    1    1    2    0    0 -0.11216648907E+02 -0.28502553057E+02  0.88607354428E+01  0.31886068683E+02  0.00000000000E+00 0.  1.
         11    1    3    3    0    0  0.14604829493E+02  0.17202303963E+01 -0.55825781255E+01  0.15729762107E+02  0.51100000000E-03 0. -1.
        -11    1    3    3    0    0  0.97035260088E+01  0.20985140637E+02 -0.12752205500E+02  0.26403660540E+02  0.51100000000E-03 0.  1.
         12    1    3    3    0    0 -0.13091706595E+02  0.57971820236E+01  0.94740481825E+01  0.17168508670E+02  0.00000000000E+00 0. -1.
</event>
<event>
 7    1  0.1290195E-011  0.5930193E+02  0.7816164E-02  0.1266605E+00
        -11   -1    0    0    0    0  0.00000000000E+00  0.00000000000E+00  0.45593999997E+02  0.45594000000E+02  0.51100000000E-03 0.  1.
         11   -1    0    0    0    0 -0.00000000000E+00 -0.00000000000E+00 -0.45593999997E+02  0.45594000000E+02  0.51100000000E-03 0. -1.
    9900012    2    1    2    0    0 -0.23689045134E+02  0.21195635577E+02 -0.25090554271E+01  0.59301934297E+02  0.49999982254E+02 0.  0.
        -12    1    1    2    0    0  0.23689045134E+02 -0.21195635577E+02  0.25090554271E+01  0.31886065703E+02  0.00000000000E+00 0.  1.
         11    1    3    3    0    0 -0.23977960799E+02  0.66428983105E+00 -0.34496443354E+01  0.24233941721E+02  0.51100000000E-03 0. -1.
        -11    1    3    3    0    0 -0.12842905082E+02  0.36595062265E+01 -0.19419441841E+01  0.13494567212E+02  0.51100000000E-03 0.  1.
        -12    1    3    3    0    0  0.13131820747E+02  0.16871839519E+02  0.28825330924E+01  0.21573425364E+02  0.00000000000E+00 0.  1.
</event>
<event>
 7    1  0.1290195E-011  0.5930195E+02  0.7816164E-02  0.1266605E+00
        -11   -1    0    0    0    0  0.00000000000E+00  0.00000000000E+00  0.45593999997E+02  0.45594000000E+02  0.51100000000E-03 0. -1.
         11   -1    0    0    0    0 -0.00000000000E+00 -0.00000000000E+00 -0.45593999997E+02  0.45594000000E+02  0.51100000000E-03 0.  1.
    9900012    2    1    2    0    0  0.20757348120E+02  0.19482922463E+02  0.14362047674E+02  0.59301950040E+02  0.50000010965E+02 0.  0.
        -12    1    1    2    0    0 -0.20757348120E+02 -0.19482922463E+02 -0.14362047674E+02  0.31886049960E+02  0.00000000000E+00 0.  1.
         11    1    3    3    0    0  0.13810423826E+02  0.85804353060E-01 -0.19352210541E+00  0.13812046181E+02  0.51100000000E-03 0.  1.
        -11    1    3    3    0    0 -0.53432300659E+00 -0.78740424298E+01  0.15284502310E+02  0.17201803870E+02  0.51100000000E-03 0. -1.
        -12    1    3    3    0    0  0.74812473006E+01  0.27271160539E+02 -0.72893253083E+00  0.28288099989E+02  0.00000000000E+00 0.  1.
</event>
<event>
 7    1  0.1290195E-011  0.5930192E+02  0.7816164E-02  0.1266605E+00
        -11   -1    0    0    0    0  0.00000000000E+00  0.00000000000E+00  0.45593999997E+02  0.45594000000E+02  0.51100000000E-03 0.  1.
         11   -1    0    0    0    0 -0.00000000000E+00 -0.00000000000E+00 -0.45593999997E+02  0.45594000000E+02  0.51100000000E-03 0. -1.
    9900012    2    1    2    0    0  0.17061504191E+02  0.15609520991E+02 -0.21953819025E+02  0.59301917760E+02  0.49999952094E+02 0.  0.
        -12    1    1    2    0    0 -0.17061504191E+02 -0.15609520991E+02  0.21953819025E+02  0.31886082240E+02  0.00000000000E+00 0.  1.
         11    1    3    3    0    0 -0.44082179326E+00  0.12647340163E+02  0.32659307479E+01  0.13069653437E+02  0.51100000000E-03 0. -1.
        -11    1    3    3    0    0  0.30236991561E+01 -0.12779109435E+02  0.43001020522E-01  0.13132031217E+02  0.51100000000E-03 0.  1.
         12    1    3    3    0    0  0.14478626829E+02  0.15741290264E+02 -0.25262750794E+02  0.33100233106E+02  0.00000000000E+00 0. -1.
</event>
<event>
 7    1  0.1290195E-011  0.5930194E+02  0.7816164E-02  0.1266605E+00
        -11   -1    0    0    0    0  0.00000000000E+00  0.00000000000E+00  0.45593999997E+02  0.45594000000E+02  0.51100000000E-03 0. -1.
         11   -1    0    0    0    0 -0.00000000000E+00 -0.00000000000E+00 -0.45593999997E+02  0.45594000000E+02  0.51100000000E-03 0.  1.
    9900012    2    1    2    0    0 -0.27290994419E+02  0.80190837221E+01  0.14408904989E+02  0.59301943124E+02  0.49999998351E+02 0.  0.
        -12    1    1    2    0    0  0.27290994419E+02 -0.80190837221E+01 -0.14408904989E+02  0.31886056876E+02  0.00000000000E+00 0.  1.
         11    1    3    3    0    0  0.14391819336E+01  0.57676253260E+01 -0.83639648067E+00  0.60030247271E+01  0.51100000000E-03 0. -1.
        -11    1    3    3    0    0 -0.14385215403E+02  0.22125239670E+02  0.10082496982E+02  0.28250971635E+02  0.51100000000E-03 0.  1.
        -12    1    3    3    0    0 -0.14344960950E+02 -0.19873781274E+02  0.51628044876E+01  0.25047946761E+02  0.00000000000E+00 0.  1.
</event>
<event>
 7    1  0.1290195E-011  0.5930193E+02  0.7816164E-02  0.1266605E+00
        -11   -1    0    0    0    0  0.00000000000E+00  0.00000000000E+00  0.45593999997E+02  0.45594000000E+02  0.51100000000E-03 0.  1.
         11   -1    0    0    0    0 -0.00000000000E+00 -0.00000000000E+00 -0.45593999997E+02  0.45594000000E+02  0.51100000000E-03 0. -1.
    9900012    2    1    2    0    0  0.49599264089E+01  0.29311147921E+02 -0.11531578732E+02  0.59301928268E+02  0.49999971258E+02 0.  0.
        -12    1    1    2    0    0 -0.49599264089E+01 -0.29311147921E+02  0.11531578732E+02  0.31886071732E+02  0.00000000000E+00 0.  1.
         11    1    3    3    0    0  0.16716583176E+02  0.46079414682E+01  0.11040085276E+01  0.17375157920E+02  0.51100000000E-03 0. -1.
        -11    1    3    3    0    0 -0.12317108341E+02  0.21965538147E+01  0.48519281308E+01  0.13419285129E+02  0.51100000000E-03 0.  1.
         12    1    3    3    0    0  0.56045157330E+00  0.22506652638E+02 -0.17487515390E+02  0.28507485218E+02  0.00000000000E+00 0. -1.
</event>
<event>
 7    1  0.1290195E-011  0.5930192E+02  0.7816164E-02  0.1266605E+00
        -11   -1    0    0    0    0  0.00000000000E+00  0.00000000000E+00  0.45593999997E+02  0.45594000000E+02  0.51100000000E-03 0. -1.
         11   -1    0    0    0    0 -0.00000000000E+00 -0.00000000000E+00 -0.45593999997E+02  0.45594000000E+02  0.51100000000E-03 0.  1.
    9900012    2    1    2    0    0  0.31841071609E+02 -0.91238648222E+00 -0.14267109135E+01  0.59301924758E+02  0.49999964857E+02 0.  0.
        -12    1    1    2    0    0 -0.31841071609E+02  0.91238648222E+00  0.14267109135E+01  0.31886075242E+02  0.00000000000E+00 0.  1.
         11    1    3    3    0    0  0.32727276988E+01 -0.71142512678E+01 -0.19628514666E+02  0.21132957813E+02  0.51100000000E-03 0.  1.
        -11    1    3    3    0    0  0.10600158817E+01  0.18345144055E+01  0.83664886283E+01  0.86305972564E+01  0.51100000000E-03 0. -1.
        -12    1    3    3    0    0  0.27508328028E+02  0.43673503800E+01  0.98353151241E+01  0.29538369688E+02  0.00000000000E+00 0.  1.
</event>
<event>
 7    1  0.1290195E-011  0.5930194E+02  0.7816164E-02  0.1266605E+00
        -11   -1    0    0    0    0  0.00000000000E+00  0.00000000000E+00  0.45593999997E+02  0.45594000000E+02  0.51100000000E-03 0.  1.
         11   -1    0    0    0    0 -0.00000000000E+00 -0.00000000000E+00 -0.45593999997E+02  0.45594000000E+02  0.51100000000E-03 0. -1.
    9900012    2    1    2    0    0 -0.53647724774E+00 -0.29190780512E+02 -0.12819167621E+02  0.59301944533E+02  0.50000000921E+02 0.  0.
        -12    1    1    2    0    0  0.53647724774E+00  0.29190780512E+02  0.12819167621E+02  0.31886055467E+02  0.00000000000E+00 0.  1.
         11    1    3    3    0    0  0.16841073516E+02 -0.32008930867E+02 -0.43438969459E+01  0.36428873896E+02  0.51100000000E-03 0. -1.
        -11    1    3    3    0    0 -0.77052743979E+00  0.16407379494E+00 -0.57887095014E+01  0.58420707543E+01  0.51100000000E-03 0.  1.
        -12    1    3    3    0    0 -0.16607023324E+02  0.26540765597E+01 -0.26865611741E+01  0.17030999882E+02  0.00000000000E+00 0.  1.
</event>
<event>
 7    1  0.1290195E-011  0.5930195E+02  0.7816164E-02  0.1266605E+00
        -11   -1    0    0    0    0  0.00000000000E+00  0.00000000000E+00  0.45593999997E+02  0.45594000000E+02  0.51100000000E-03 0. -1.
         11   -1    0    0    0    0 -0.00000000000E+00 -0.00000000000E+00 -0.45593999997E+02  0.45594000000E+02  0.51100000000E-03 0.  1.
    9900012    2    1    2    0    0  0.27622119880E+02  0.10644025312E+02 -0.11850882636E+02  0.59301949746E+02  0.50000010429E+02 0.  0.
        -12    1    1    2    0    0 -0.27622119880E+02 -0.10644025312E+02  0.11850882636E+02  0.31886050254E+02  0.00000000000E+00 0.  1.
         11    1    3    3    0    0  0.17589169942E+01 -0.73748401976E-01  0.40737573424E+01  0.44378741493E+01  0.51100000000E-03 0. -1.
        -11    1    3    3    0    0 -0.28252687331E+01 -0.86006537521E+01  0.85829444886E+01  0.12474787563E+02  0.51100000000E-03 0.  1.
         12    1    3    3    0    0  0.28688471619E+02  0.19318427466E+02 -0.24507584467E+02  0.42389288034E+02  0.00000000000E+00 0. -1.
</event>
<event>
 7    1  0.1290195E-011  0.5930194E+02  0.7816164E-02  0.1266605E+00
        -11   -1    0    0    0    0  0.00000000000E+00  0.00000000000E+00  0.45593999997E+02  0.45594000000E+02  0.51100000000E-03 0.  1.
         11   -1    0    0    0    0 -0.00000000000E+00 -0.00000000000E+00 -0.45593999997E+02  0.45594000000E+02  0.51100000000E-03 0. -1.
    9900012    2    1    2    0    0  0.27189632433E+02 -0.16158160502E+02 -0.40445454500E+01  0.59301943321E+02  0.49999998711E+02 0.  0.
        -12    1    1    2    0    0 -0.27189632433E+02  0.16158160502E+02  0.40445454500E+01  0.31886056679E+02  0.00000000000E+00 0.  1.
         11    1    3    3    0    0  0.16163614030E+02 -0.27527896562E+01 -0.12055192240E+02  0.20351116176E+02  0.51100000000E-03 0. -1.
        -11    1    3    3    0    0 -0.20995220316E+01 -0.21619969230E+02  0.88234351878E+01  0.23445342203E+02  0.51100000000E-03 0.  1.
         12    1    3    3    0    0  0.13125540435E+02  0.82145983838E+01 -0.81278839822E+00  0.15505484942E+02  0.00000000000E+00 0. -1.
</event>
<event>
 7    1  0.1290195E-011  0.5930194E+02  0.7816164E-02  0.1266605E+00
        -11   -1    0    0    0    0  0.00000000000E+00  0.00000000000E+00  0.45593999997E+02  0.45594000000E+02  0.51100000000E-03 0.  1.
         11   -1    0    0    0    0 -0.00000000000E+00 -0.00000000000E+00 -0.45593999997E+02  0.45594000000E+02  0.51100000000E-03 0. -1.
    9900012    2    1    2    0    0 -0.28316285227E+02 -0.33968589507E+01 -0.14260783590E+02  0.59301943355E+02  0.49999998773E+02 0.  0.
        -12    1    1    2    0    0  0.28316285227E+02  0.33968589507E+01  0.14260783590E+02  0.31886056645E+02  0.00000000000E+00 0.  1.
         11    1    3    3    0    0  0.12593524566E+01 -0.67696927378E+01 -0.16882395966E+00  0.68879031762E+01  0.51100000000E-03 0. -1.
        -11    1    3    3    0    0  0.83994817538E+01 -0.66733361041E+01 -0.60557255439E+01  0.12318949656E+02  0.51100000000E-03 0.  1.
         12    1    3    3    0    0 -0.37975119437E+02  0.10046169891E+02 -0.80362340860E+01  0.40095090523E+02  0.00000000000E+00 0. -1.
</event>
<event>
 7    1  0.1290195E-011  0.5930195E+02  0.7816164E-02  0.1266605E+00
        -11   -1    0    0    0    0  0.00000000000E+00  0.00000000000E+00  0.45593999997E+02  0.45594000000E+02  0.51100000000E-03 0.  1.
         11   -1    0    0    0    0 -0.00000000000E+00 -0.00000000000E+00 -0.45593999997E+02  0.45594000000E+02  0.51100000000E-03 0. -1.
    9900012    2    1    2    0    0  0.36874061952E+01  0.33632613373E+01 -0.31493042546E+02  0.59301949444E+02  0.50000009878E+02 0.  0.
        -12    1    1    2    0    0 -0.36874061952E+01 -0.33632613373E+01  0.31493042546E+02  0.31886050556E+02  0.00000000000E+00 0.  1.
         11    1    3    3    0    0 -0.91240618872E+01  0.67886671668E+01  0.25843864313E+01  0.11662485186E+02  0.51100000000E-03 0. -1.
        -11    1    3    3    0    0 -0.25234571663E+00  0.15341687221E+01  0.54748616704E+01  0.56913498047E+01  0.51100000000E-03 0.  1.
         12    1    3    3    0    0  0.13063813799E+02 -0.49595745516E+01 -0.39552290648E+02  0.41948114453E+02  0.00000000000E+00 0. -1.
</event>
<event>
 7    1  0.1290195E-011  0.5930194E+02  0.7816164E-02  0.1266605E+00
        -11   -1    0    0    0    0  0.00000000000E+00  0.00000000000E+00  0.45593999997E+02  0.45594000000E+02  0.51100000000E-03 0.  1.
         11   -1    0    0    0    0 -0.00000000000E+00 -0.00000000000E+00 -0.45593999997E+02  0.45594000000E+02  0.51100000000E-03 0. -1.
    9900012    2    1    2    0    0 -0.95446979920E+01  0.21416967915E+01 -0.30348515445E+02  0.59301944825E+02  0.50000001454E+02 0.  0.
        -12    1    1    2    0    0  0.95446979920E+01 -0.21416967915E+01  0.30348515445E+02  0.31886055175E+02  0.00000000000E+00 0.  1.
         11    1    3    3    0    0  0.14536317788E+02 -0.67753524347E+01 -0.82360250969E+01  0.18028922461E+02  0.51100000000E-03 0. -1.
        -11    1    3    3    0    0  0.89290111725E+00  0.70472079352E+01 -0.12636781103E+02  0.14496504717E+02  0.51100000000E-03 0.  1.
        -12    1    3    3    0    0 -0.24973916897E+02  0.18698412910E+01 -0.94757092446E+01  0.26776517647E+02  0.00000000000E+00 0.  1.
</event>
<event>
 7    1  0.1290195E-011  0.5930194E+02  0.7816164E-02  0.1266605E+00
        -11   -1    0    0    0    0  0.00000000000E+00  0.00000000000E+00  0.45593999997E+02  0.45594000000E+02  0.51100000000E-03 0. -1.
         11   -1    0    0    0    0 -0.00000000000E+00 -0.00000000000E+00 -0.45593999997E+02  0.45594000000E+02  0.51100000000E-03 0.  1.
    9900012    2    1    2    0    0  0.21840580283E+02  0.17511822951E+02  0.15265834737E+02  0.59301943481E+02  0.49999999002E+02 0.  0.
        -12    1    1    2    0    0 -0.21840580283E+02 -0.17511822951E+02 -0.15265834737E+02  0.31886056519E+02  0.00000000000E+00 0.  1.
         11    1    3    3    0    0 -0.42910024905E+00  0.80030336142E+01 -0.15478219265E+02  0.17430087375E+02  0.51100000000E-03 0. -1.
        -11    1    3    3    0    0 -0.40135641268E+00  0.16679317286E+00 -0.13869270352E+01  0.14534351705E+01  0.51100000000E-03 0.  1.
         12    1    3    3    0    0  0.22671036944E+02  0.93419961636E+01  0.32130981037E+02  0.40418420935E+02  0.00000000000E+00 0. -1.
</event>
<event>
 7    1  0.1290195E-011  0.5930191E+02  0.7816164E-02  0.1266605E+00
        -11   -1    0    0    0    0  0.00000000000E+00  0.00000000000E+00  0.45593999997E+02  0.45594000000E+02  0.51100000000E-03 0.  1.
         11   -1    0    0    0    0 -0.00000000000E+00 -0.00000000000E+00 -0.45593999997E+02  0.45594000000E+02  0.51100000000E-03 0. -1.
    9900012    2    1    2    0    0  0.14783400788E+02  0.96449910863E+01 -0.26554627016E+02  0.59301905729E+02  0.49999930152E+02 0.  0.
        -12    1    1    2    0    0 -0.14783400788E+02 -0.96449910863E+01  0.26554627016E+02  0.31886094271E+02  0.00000000000E+00 0.  1.
         11    1    3    3    0    0  0.17552630159E+01  0.18525704387E+02 -0.19409947301E+02  0.26889193475E+02  0.51100000000E-03 0. -1.
        -11    1    3    3    0    0 -0.14252452946E+00  0.81648660139E+01  0.28722536504E+01  0.86565115121E+01  0.51100000000E-03 0.  1.
         12    1    3    3    0    0  0.13170662301E+02 -0.17045579314E+02 -0.10016933366E+02  0.23756200741E+02  0.00000000000E+00 0. -1.
</event>
<event>
 7    1  0.1290195E-011  0.5930202E+02  0.7816164E-02  0.1266605E+00
        -11   -1    0    0    0    0  0.00000000000E+00  0.00000000000E+00  0.45593999997E+02  0.45594000000E+02  0.51100000000E-03 0.  1.
         11   -1    0    0    0    0 -0.00000000000E+00 -0.00000000000E+00 -0.45593999997E+02  0.45594000000E+02  0.51100000000E-03 0. -1.
    9900012    2    1    2    0    0  0.30580531501E+02 -0.89559579636E+01 -0.11566127501E+01  0.59302018080E+02  0.50000135054E+02 0.  0.
        -12    1    1    2    0    0 -0.30580531501E+02  0.89559579636E+01  0.11566127501E+01  0.31885981920E+02  0.00000000000E+00 0.  1.
         11    1    3    3    0    0  0.78311757033E+01 -0.81795255279E+01 -0.11885506191E+02  0.16416370136E+02  0.51100000000E-03 0. -1.
        -11    1    3    3    0    0 -0.86035743535E+01 -0.30219912660E+01  0.64343059041E+01  0.11160385997E+02  0.51100000000E-03 0.  1.
         12    1    3    3    0    0  0.31352930151E+02  0.22455588303E+01  0.42945875370E+01  0.31725261948E+02  0.00000000000E+00 0. -1.
</event>
<event>
 7    1  0.1290195E-011  0.5930195E+02  0.7816164E-02  0.1266605E+00
        -11   -1    0    0    0    0  0.00000000000E+00  0.00000000000E+00  0.45593999997E+02  0.45594000000E+02  0.51100000000E-03 0.  1.
         11   -1    0    0    0    0 -0.00000000000E+00 -0.00000000000E+00 -0.45593999997E+02  0.45594000000E+02  0.51100000000E-03 0. -1.
    9900012    2    1    2    0    0 -0.16574897870E+02 -0.20238153825E+02 -0.18232120757E+02  0.59301947612E+02  0.50000006536E+02 0.  0.
        -12    1    1    2    0    0  0.16574897870E+02  0.20238153825E+02  0.18232120757E+02  0.31886052388E+02  0.00000000000E+00 0.  1.
         11    1    3    3    0    0  0.71505525755E+01 -0.34792786536E+01 -0.30718031894E+01  0.85247731454E+01  0.51100000000E-03 0. -1.
        -11    1    3    3    0    0 -0.16676821999E+02 -0.25243706263E+02  0.20620741816E+01  0.30325125689E+02  0.51100000000E-03 0.  1.
        -12    1    3    3    0    0 -0.70486284458E+01  0.84848310915E+01 -0.17222391749E+02  0.20452048777E+02  0.00000000000E+00 0.  1.
</event>
<event>
 7    1  0.1290195E-011  0.5930196E+02  0.7816164E-02  0.1266605E+00
        -11   -1    0    0    0    0  0.00000000000E+00  0.00000000000E+00  0.45593999997E+02  0.45594000000E+02  0.51100000000E-03 0.  1.
         11   -1    0    0    0    0 -0.00000000000E+00 -0.00000000000E+00 -0.45593999997E+02  0.45594000000E+02  0.51100000000E-03 0. -1.
    9900012    2    1    2    0    0  0.19287253400E+02  0.24496875581E+02  0.66801508091E+01  0.59301961177E+02  0.50000031276E+02 0.  0.
        -12    1    1    2    0    0 -0.19287253400E+02 -0.24496875581E+02 -0.66801508091E+01  0.31886038823E+02  0.00000000000E+00 0.  1.
         11    1    3    3    0    0  0.18589240821E+02 -0.52522423371E+00  0.20711239747E+01  0.18711635139E+02  0.51100000000E-03 0. -1.
        -11    1    3    3    0    0  0.14891905583E+02  0.13670893204E+02  0.86230980880E+01  0.21977715845E+02  0.51100000000E-03 0.  1.
        -12    1    3    3    0    0 -0.14193893004E+02  0.11351206611E+02 -0.40140712536E+01  0.18612610192E+02  0.00000000000E+00 0.  1.
</event>
<event>
 7    1  0.1290195E-011  0.5930195E+02  0.7816164E-02  0.1266605E+00
        -11   -1    0    0    0    0  0.00000000000E+00  0.00000000000E+00  0.45593999997E+02  0.45594000000E+02  0.51100000000E-03 0.  1.
         11   -1    0    0    0    0 -0.00000000000E+00 -0.00000000000E+00 -0.45593999997E+02  0.45594000000E+02  0.51100000000E-03 0. -1.
    9900012    2    1    2    0    0  0.11299521615E+02 -0.55474498773E+01 -0.29296186908E+02  0.59301953581E+02  0.50000017423E+02 0.  0.
        -12    1    1    2    0    0 -0.11299521615E+02  0.55474498773E+01  0.29296186908E+02  0.31886046419E+02  0.00000000000E+00 0.  1.
         11    1    3    3    0    0  0.88238072854E+01  0.47689467969E+01 -0.14248381969E+02  0.17424661189E+02  0.51100000000E-03 0. -1.
        -11    1    3    3    0    0  0.60995661414E+01  0.12811122319E+02 -0.26657162584E+00  0.14191568725E+02  0.51100000000E-03 0.  1.
         12    1    3    3    0    0 -0.36238518113E+01 -0.23127518993E+02 -0.14781233314E+02  0.27685723667E+02  0.00000000000E+00 0. -1.
</event>
<event>
 7    1  0.1290195E-011  0.5930190E+02  0.7816164E-02  0.1266605E+00
        -11   -1    0    0    0    0  0.00000000000E+00  0.00000000000E+00  0.45593999997E+02  0.45594000000E+02  0.51100000000E-03 0.  1.
         11   -1    0    0    0    0 -0.00000000000E+00 -0.00000000000E+00 -0.45593999997E+02  0.45594000000E+02  0.51100000000E-03 0. -1.
    9900012    2    1    2    0    0  0.17198153651E+02  0.20774208737E+02 -0.17011139631E+02  0.59301904140E+02  0.49999927254E+02 0.  0.
        -12    1    1    2    0    0 -0.17198153651E+02 -0.20774208737E+02  0.17011139631E+02  0.31886095860E+02  0.00000000000E+00 0.  1.
         11    1    3    3    0    0 -0.19734237718E+01 -0.26495465974E+01 -0.26226900622E+02  0.26434160002E+02  0.51100000000E-03 0.  1.
        -11    1    3    3    0    0  0.53231333234E+01  0.14867962315E+01  0.25253766483E+01  0.60764989007E+01  0.51100000000E-03 0. -1.
        -12    1    3    3    0    0  0.13848444100E+02  0.21936959103E+02  0.66903843426E+01  0.26791245237E+02  0.00000000000E+00 0.  1.
</event>
<event>
 7    1  0.1290195E-011  0.5930196E+02  0.7816164E-02  0.1266605E+00
        -11   -1    0    0    0    0  0.00000000000E+00  0.00000000000E+00  0.45593999997E+02  0.45594000000E+02  0.51100000000E-03 0.  1.
         11   -1    0    0    0    0 -0.00000000000E+00 -0.00000000000E+00 -0.45593999997E+02  0.45594000000E+02  0.51100000000E-03 0. -1.
    9900012    2    1    2    0    0  0.16412712653E+02 -0.26539659193E+02 -0.65566043327E+01  0.59301957488E+02  0.50000024548E+02 0.  0.
        -12    1    1    2    0    0 -0.16412712653E+02  0.26539659193E+02  0.65566043327E+01  0.31886042512E+02  0.00000000000E+00 0.  1.
         11    1    3    3    0    0 -0.15804525861E+01 -0.28272008860E+02 -0.11227536064E+02  0.30460825361E+02  0.51100000000E-03 0. -1.
        -11    1    3    3    0    0  0.47340102276E+01  0.35616989351E+01 -0.83034234977E+01  0.10200166380E+02  0.51100000000E-03 0.  1.
        -12    1    3    3    0    0  0.13259155011E+02 -0.18293492681E+01  0.12974355229E+02  0.18640965747E+02  0.00000000000E+00 0.  1.
</event>
<event>
 7    1  0.1290195E-011  0.5930196E+02  0.7816164E-02  0.1266605E+00
        -11   -1    0    0    0    0  0.00000000000E+00  0.00000000000E+00  0.45593999997E+02  0.45594000000E+02  0.51100000000E-03 0.  1.
         11   -1    0    0    0    0 -0.00000000000E+00 -0.00000000000E+00 -0.45593999997E+02  0.45594000000E+02  0.51100000000E-03 0. -1.
    9900012    2    1    2    0    0 -0.13454872694E+02 -0.25878823163E+02  0.12883034158E+02  0.59301958279E+02  0.50000025990E+02 0.  0.
        -12    1    1    2    0    0  0.13454872694E+02  0.25878823163E+02 -0.12883034158E+02  0.31886041721E+02  0.00000000000E+00 0.  1.
         11    1    3    3    0    0 -0.56407421652E+01 -0.61597654935E+01  0.73456658329E+01  0.11122926319E+02  0.51100000000E-03 0. -1.
        -11    1    3    3    0    0 -0.96410014468E+01 -0.24930914938E+02  0.19550554503E+02  0.33116817634E+02  0.51100000000E-03 0.  1.
         12    1    3    3    0    0  0.18268709176E+01  0.52118572689E+01 -0.14013186178E+02  0.15062214326E+02  0.00000000000E+00 0. -1.
</event>
<event>
 7    1  0.1290195E-011  0.5930194E+02  0.7816164E-02  0.1266605E+00
        -11   -1    0    0    0    0  0.00000000000E+00  0.00000000000E+00  0.45593999997E+02  0.45594000000E+02  0.51100000000E-03 0.  1.
         11   -1    0    0    0    0 -0.00000000000E+00 -0.00000000000E+00 -0.45593999997E+02  0.45594000000E+02  0.51100000000E-03 0. -1.
    9900012    2    1    2    0    0  0.15678555104E+02 -0.22958639221E+01 -0.27670067088E+02  0.59301942013E+02  0.49999996326E+02 0.  0.
        -12    1    1    2    0    0 -0.15678555104E+02  0.22958639221E+01  0.27670067088E+02  0.31886057987E+02  0.00000000000E+00 0.  1.
         11    1    3    3    0    0  0.10412062895E+02  0.10480598914E+02 -0.29834097313E+02  0.33291551032E+02  0.51100000000E-03 0. -1.
        -11    1    3    3    0    0  0.43476638905E+01  0.58251177999E+01  0.72652272012E-01  0.72690754090E+01  0.51100000000E-03 0.  1.
        -12    1    3    3    0    0  0.91882831888E+00 -0.18601580636E+02  0.20913779534E+01  0.18741315573E+02  0.00000000000E+00 0.  1.
</event>
<event>
 7    1  0.1318975E-011  0.5930199E+02  0.7816164E-02  0.1266605E+00
        -11   -1    0    0    0    0  0.00000000000E+00  0.00000000000E+00  0.45593999997E+02  0.45594000000E+02  0.51100000000E-03 0. -1.
         11   -1    0    0    0    0 -0.00000000000E+00 -0.00000000000E+00 -0.45593999997E+02  0.45594000000E+02  0.51100000000E-03 0.  1.
    9900012    2    1    2    0    0 -0.15937531164E+02  0.92319086319E+01  0.26028529241E+02  0.59301994119E+02  0.50000091354E+02 0.  0.
        -12    1    1    2    0    0  0.15937531164E+02 -0.92319086319E+01 -0.26028529241E+02  0.31886005881E+02  0.00000000000E+00 0.  1.
         11    1    3    3    0    0 -0.60771680281E+01  0.92664113564E+01  0.24213505673E+02  0.26628785325E+02  0.51100000000E-03 0. -1.
        -11    1    3    3    0    0 -0.52613651558E+01  0.88085035037E+00  0.16456295945E+02  0.17299350772E+02  0.51100000000E-03 0.  1.
        -12    1    3    3    0    0 -0.45989979805E+01 -0.91535307495E+00 -0.14641272376E+02  0.15373858022E+02  0.00000000000E+00 0.  1.
</event>
<event>
 7    1  0.1290195E-011  0.5930195E+02  0.7816164E-02  0.1266605E+00
        -11   -1    0    0    0    0  0.00000000000E+00  0.00000000000E+00  0.45593999997E+02  0.45594000000E+02  0.51100000000E-03 0.  1.
         11   -1    0    0    0    0 -0.00000000000E+00 -0.00000000000E+00 -0.45593999997E+02  0.45594000000E+02  0.51100000000E-03 0. -1.
    9900012    2    1    2    0    0 -0.95336779447E+01 -0.25674811562E+01 -0.30318926559E+02  0.59301948467E+02  0.50000008096E+02 0.  0.
        -12    1    1    2    0    0  0.95336779447E+01  0.25674811562E+01  0.30318926559E+02  0.31886051533E+02  0.00000000000E+00 0.  1.
         11    1    3    3    0    0 -0.14498485181E+02  0.17928724803E+01 -0.11963819779E+02  0.18882622918E+02  0.51100000000E-03 0. -1.
        -11    1    3    3    0    0 -0.35582309867E+00  0.15468397799E+02 -0.74516137357E+01  0.17173365659E+02  0.51100000000E-03 0.  1.
        -12    1    3    3    0    0  0.53206303351E+01 -0.19828751435E+02 -0.10903493045E+02  0.23245959890E+02  0.00000000000E+00 0.  1.
</event>
<event>
 7    1  0.1290195E-011  0.5930195E+02  0.7816164E-02  0.1266605E+00
        -11   -1    0    0    0    0  0.00000000000E+00  0.00000000000E+00  0.45593999997E+02  0.45594000000E+02  0.51100000000E-03 0. -1.
         11   -1    0    0    0    0 -0.00000000000E+00 -0.00000000000E+00 -0.45593999997E+02  0.45594000000E+02  0.51100000000E-03 0.  1.
    9900012    2    1    2    0    0  0.77862171270E+01 -0.16107213130E+02  0.26394182821E+02  0.59301946956E+02  0.50000005340E+02 0.  0.
        -12    1    1    2    0    0 -0.77862171270E+01  0.16107213130E+02 -0.26394182821E+02  0.31886053044E+02  0.00000000000E+00 0.  1.
         11    1    3    3    0    0  0.60149091464E+01 -0.67136316713E+01  0.14949028330E+02  0.17456386526E+02  0.51100000000E-03 0. -1.
        -11    1    3    3    0    0 -0.13309840597E+02 -0.18380836896E+02  0.65236391261E+01  0.23612811976E+02  0.51100000000E-03 0.  1.
        -12    1    3    3    0    0  0.15081148578E+02  0.89872554372E+01  0.49215153644E+01  0.18232748454E+02  0.00000000000E+00 0.  1.
</event>
<event>
 7    1  0.1290195E-011  0.5930192E+02  0.7816164E-02  0.1266605E+00
        -11   -1    0    0    0    0  0.00000000000E+00  0.00000000000E+00  0.45593999997E+02  0.45594000000E+02  0.51100000000E-03 0. -1.
         11   -1    0    0    0    0 -0.00000000000E+00 -0.00000000000E+00 -0.45593999997E+02  0.45594000000E+02  0.51100000000E-03 0.  1.
    9900012    2    1    2    0    0 -0.29349978102E+02 -0.64241843924E+01 -0.10678531144E+02  0.59301915463E+02  0.49999947905E+02 0.  0.
        -12    1    1    2    0    0  0.29349978102E+02  0.64241843924E+01  0.10678531144E+02  0.31886084537E+02  0.00000000000E+00 0.  1.
         11    1    3    3    0    0 -0.60798950468E+01 -0.50356768336E+01  0.18862362640E+02  0.20447784466E+02  0.51100000000E-03 0. -1.
        -11    1    3    3    0    0  0.49206229024E+00  0.11551779270E+01 -0.86050408593E+00  0.15221789919E+01  0.51100000000E-03 0.  1.
         12    1    3    3    0    0 -0.23762145346E+02 -0.25436854857E+01 -0.28680389698E+02  0.37331952005E+02  0.00000000000E+00 0. -1.
</event>
<event>
 7    1  0.1290195E-011  0.5930193E+02  0.7816164E-02  0.1266605E+00
        -11   -1    0    0    0    0  0.00000000000E+00  0.00000000000E+00  0.45593999997E+02  0.45594000000E+02  0.51100000000E-03 0.  1.
         11   -1    0    0    0    0 -0.00000000000E+00 -0.00000000000E+00 -0.45593999997E+02  0.45594000000E+02  0.51100000000E-03 0. -1.
    9900012    2    1    2    0    0 -0.14928935706E+02 -0.17745917041E+02 -0.21884485798E+02  0.59301930760E+02  0.49999975804E+02 0.  0.
        -12    1    1    2    0    0  0.14928935706E+02  0.17745917041E+02  0.21884485798E+02  0.31886069240E+02  0.00000000000E+00 0.  1.
         11    1    3    3    0    0 -0.11745427590E+02 -0.16138318942E+02 -0.18392296227E+02  0.27141793756E+02  0.51100000000E-03 0. -1.
        -11    1    3    3    0    0  0.55601246139E+01  0.13226507714E+02 -0.41263301969E+01  0.14929236189E+02  0.51100000000E-03 0.  1.
         12    1    3    3    0    0 -0.87436327293E+01 -0.14834105813E+02  0.63414062575E+00  0.17230900815E+02  0.00000000000E+00 0. -1.
</event>
<event>
 7    1  0.1290195E-011  0.5930189E+02  0.7816164E-02  0.1266605E+00
        -11   -1    0    0    0    0  0.00000000000E+00  0.00000000000E+00  0.45593999997E+02  0.45594000000E+02  0.51100000000E-03 0. -1.
         11   -1    0    0    0    0 -0.00000000000E+00 -0.00000000000E+00 -0.45593999997E+02  0.45594000000E+02  0.51100000000E-03 0.  1.
    9900012    2    1    2    0    0 -0.18135074775E+02 -0.37501272141E+01  0.25957265582E+02  0.59301889737E+02  0.49999900986E+02 0.  0.
        -12    1    1    2    0    0  0.18135074775E+02  0.37501272141E+01 -0.25957265582E+02  0.31886110263E+02  0.00000000000E+00 0.  1.
         11    1    3    3    0    0  0.37212945164E+01  0.12081926971E+01  0.26346046658E+02  0.26634975826E+02  0.51100000000E-03 0. -1.
        -11    1    3    3    0    0  0.33742244386E+01  0.31608557538E+01  0.36051552294E+01  0.58628955430E+01  0.51100000000E-03 0.  1.
        -12    1    3    3    0    0 -0.25230593730E+02 -0.81191756650E+01 -0.39939363053E+01  0.26804018368E+02  0.00000000000E+00 0.  1.
</event>
<event>
 7    1  0.1290195E-011  0.5930196E+02  0.7816164E-02  0.1266605E+00
        -11   -1    0    0    0    0  0.00000000000E+00  0.00000000000E+00  0.45593999997E+02  0.45594000000E+02  0.51100000000E-03 0.  1.
         11   -1    0    0    0    0 -0.00000000000E+00 -0.00000000000E+00 -0.45593999997E+02  0.45594000000E+02  0.51100000000E-03 0. -1.
    9900012    2    1    2    0    0 -0.29696096164E+02 -0.49970461851E+01 -0.10482882414E+02  0.59301961964E+02  0.50000032712E+02 0.  0.
        -12    1    1    2    0    0  0.29696096164E+02  0.49970461851E+01  0.10482882414E+02  0.31886038036E+02  0.00000000000E+00 0.  1.
         11    1    3    3    0    0  0.81683375724E+00  0.10224337609E+01  0.10328434703E+01  0.16671394895E+01  0.51100000000E-03 0. -1.
        -11    1    3    3    0    0 -0.83604300787E+01 -0.10064478466E+02  0.16903317998E+02  0.21375515842E+02  0.51100000000E-03 0.  1.
         12    1    3    3    0    0 -0.22152499842E+02  0.40449985202E+01 -0.28419043882E+02  0.36259306632E+02  0.00000000000E+00 0. -1.
</event>
<event>
 7    1  0.1290195E-011  0.5930194E+02  0.7816164E-02  0.1266605E+00
        -11   -1    0    0    0    0  0.00000000000E+00  0.00000000000E+00  0.45593999997E+02  0.45594000000E+02  0.51100000000E-03 0.  1.
         11   -1    0    0    0    0 -0.00000000000E+00 -0.00000000000E+00 -0.45593999997E+02  0.45594000000E+02  0.51100000000E-03 0. -1.
    9900012    2    1    2    0    0  0.62802015007E+01 -0.14099752783E+02 -0.27901201423E+02  0.59301937209E+02  0.49999987565E+02 0.  0.
        -12    1    1    2    0    0 -0.62802015007E+01  0.14099752783E+02  0.27901201423E+02  0.31886062791E+02  0.00000000000E+00 0.  1.
         11    1    3    3    0    0  0.14145753145E+02  0.66935320253E+01 -0.77317696754E+01  0.17455256102E+02  0.51100000000E-03 0. -1.
        -11    1    3    3    0    0  0.72504512678E+01 -0.17691045427E+02 -0.40725429723E+01  0.19548087845E+02  0.51100000000E-03 0.  1.
        -12    1    3    3    0    0 -0.15116002912E+02 -0.31022393814E+01 -0.16096888776E+02  0.22298593262E+02  0.00000000000E+00 0.  1.
</event>
<event>
 7    1  0.1290195E-011  0.5930195E+02  0.7816164E-02  0.1266605E+00
        -11   -1    0    0    0    0  0.00000000000E+00  0.00000000000E+00  0.45593999997E+02  0.45594000000E+02  0.51100000000E-03 0.  1.
         11   -1    0    0    0    0 -0.00000000000E+00 -0.00000000000E+00 -0.45593999997E+02  0.45594000000E+02  0.51100000000E-03 0. -1.
    9900012    2    1    2    0    0  0.19060343669E+02 -0.61166328609E+01 -0.24819555579E+02  0.59301949171E+02  0.50000009380E+02 0.  0.
        -12    1    1    2    0    0 -0.19060343669E+02  0.61166328609E+01  0.24819555579E+02  0.31886050829E+02  0.00000000000E+00 0.  1.
         11    1    3    3    0    0 -0.49621750557E+01  0.68706664624E+01 -0.78857042692E+01  0.11576423066E+02  0.51100000000E-03 0. -1.
        -11    1    3    3    0    0  0.48974313926E+01 -0.74052222144E+01  0.10544633714E+02  0.13784464107E+02  0.51100000000E-03 0.  1.
         12    1    3    3    0    0  0.19125087332E+02 -0.55820771090E+01 -0.27478485024E+02  0.33941061998E+02  0.00000000000E+00 0. -1.
</event>
<event>
 7    1  0.1290195E-011  0.5930197E+02  0.7816164E-02  0.1266605E+00
        -11   -1    0    0    0    0  0.00000000000E+00  0.00000000000E+00  0.45593999997E+02  0.45594000000E+02  0.51100000000E-03 0.  1.
         11   -1    0    0    0    0 -0.00000000000E+00 -0.00000000000E+00 -0.45593999997E+02  0.45594000000E+02  0.51100000000E-03 0. -1.
    9900012    2    1    2    0    0  0.40075919170E+01 -0.21052473206E+02 -0.23610416557E+02  0.59301965579E+02  0.50000039305E+02 0.  0.
        -12    1    1    2    0    0 -0.40075919170E+01  0.21052473206E+02  0.23610416557E+02  0.31886034421E+02  0.00000000000E+00 0.  1.
         11    1    3    3    0    0  0.79440786504E+01 -0.11011436995E+02 -0.11627977047E+02  0.17876520377E+02  0.51100000000E-03 0. -1.
        -11    1    3    3    0    0  0.10149076474E+02 -0.39273209973E+01 -0.20975607547E+02  0.23630567402E+02  0.51100000000E-03 0.  1.
        -12    1    3    3    0    0 -0.14085563208E+02 -0.61137152135E+01  0.89931680374E+01  0.17794877801E+02  0.00000000000E+00 0.  1.
</event>
<event>
 7    1  0.1290195E-011  0.5930187E+02  0.7816164E-02  0.1266605E+00
        -11   -1    0    0    0    0  0.00000000000E+00  0.00000000000E+00  0.45593999997E+02  0.45594000000E+02  0.51100000000E-03 0. -1.
         11   -1    0    0    0    0 -0.00000000000E+00 -0.00000000000E+00 -0.45593999997E+02  0.45594000000E+02  0.51100000000E-03 0.  1.
    9900012    2    1    2    0    0 -0.18484313293E+02  0.14893181592E+02  0.21289632489E+02  0.59301872180E+02  0.49999868966E+02 0.  0.
        -12    1    1    2    0    0  0.18484313293E+02 -0.14893181592E+02 -0.21289632489E+02  0.31886127820E+02  0.00000000000E+00 0.  1.
         11    1    3    3    0    0  0.33909762108E+01  0.10784953607E+02  0.10931656048E+02  0.15726253470E+02  0.51100000000E-03 0. -1.
        -11    1    3    3    0    0 -0.16899875489E+01  0.17308154547E+02  0.85804462234E+01  0.19392068723E+02  0.51100000000E-03 0.  1.
        -12    1    3    3    0    0 -0.20185301955E+02 -0.13199926562E+02  0.17775302173E+01  0.24183549987E+02  0.00000000000E+00 0.  1.
</event>
<event>
 7    1  0.1290195E-011  0.5930194E+02  0.7816164E-02  0.1266605E+00
        -11   -1    0    0    0    0  0.00000000000E+00  0.00000000000E+00  0.45593999997E+02  0.45594000000E+02  0.51100000000E-03 0.  1.
         11   -1    0    0    0    0 -0.00000000000E+00 -0.00000000000E+00 -0.45593999997E+02  0.45594000000E+02  0.51100000000E-03 0. -1.
    9900012    2    1    2    0    0 -0.97399618413E+01  0.19345007072E+02 -0.23401380507E+02  0.59301940900E+02  0.49999994295E+02 0.  0.
        -12    1    1    2    0    0  0.97399618413E+01 -0.19345007072E+02  0.23401380507E+02  0.31886059100E+02  0.00000000000E+00 0.  1.
         11    1    3    3    0    0  0.16088004842E+01 -0.34813410731E+01 -0.18842692889E+02  0.19229015842E+02  0.51100000000E-03 0. -1.
        -11    1    3    3    0    0 -0.34812649378E+01  0.16107838076E+02 -0.17144546253E+02  0.23780603851E+02  0.51100000000E-03 0.  1.
        -12    1    3    3    0    0 -0.78674973877E+01  0.67185100697E+01  0.12585858635E+02  0.16292321206E+02  0.00000000000E+00 0.  1.
</event>
<event>
 7    1  0.1290195E-011  0.5930193E+02  0.7816164E-02  0.1266605E+00
        -11   -1    0    0    0    0  0.00000000000E+00  0.00000000000E+00  0.45593999997E+02  0.45594000000E+02  0.51100000000E-03 0.  1.
         11   -1    0    0    0    0 -0.00000000000E+00 -0.00000000000E+00 -0.45593999997E+02  0.45594000000E+02  0.51100000000E-03 0. -1.
    9900012    2    1    2    0    0  0.31179149176E+02 -0.51800016174E+01 -0.42130269509E+01  0.59301931628E+02  0.49999977387E+02 0.  0.
        -12    1    1    2    0    0 -0.31179149176E+02  0.51800016174E+01  0.42130269509E+01  0.31886068372E+02  0.00000000000E+00 0.  1.
         11    1    3    3    0    0 -0.20211730239E+01 -0.33759543028E+00 -0.57519865421E+00  0.21283714009E+01  0.51100000000E-03 0. -1.
        -11    1    3    3    0    0  0.89247369707E+01  0.11622901357E+02  0.16136867645E+02  0.21797735286E+02  0.51100000000E-03 0.  1.
         12    1    3    3    0    0  0.24275585229E+02 -0.16465307544E+02 -0.19774695941E+02  0.35375824942E+02  0.00000000000E+00 0. -1.
</event>
<event>
 7    1  0.1290195E-011  0.5930192E+02  0.7816164E-02  0.1266605E+00
        -11   -1    0    0    0    0  0.00000000000E+00  0.00000000000E+00  0.45593999997E+02  0.45594000000E+02  0.51100000000E-03 0.  1.
         11   -1    0    0    0    0 -0.00000000000E+00 -0.00000000000E+00 -0.45593999997E+02  0.45594000000E+02  0.51100000000E-03 0. -1.
    9900012    2    1    2    0    0  0.37801262906E+01 -0.25175297030E+02 -0.19199925163E+02  0.59301920568E+02  0.49999957215E+02 0.  0.
        -12    1    1    2    0    0 -0.37801262906E+01  0.25175297030E+02  0.19199925163E+02  0.31886079432E+02  0.00000000000E+00 0.  1.
         11    1    3    3    0    0 -0.54802250232E+01 -0.82769387061E+01  0.10863047144E+01  0.99860221732E+01  0.51100000000E-03 0. -1.
        -11    1    3    3    0    0 -0.68313013015E+01 -0.36303539852E+01  0.99380773370E+01  0.12594106913E+02  0.51100000000E-03 0.  1.
         12    1    3    3    0    0  0.16091652615E+02 -0.13268004338E+02 -0.30224307214E+02  0.36721791481E+02  0.00000000000E+00 0. -1.
</event>
<event>
 7    1  0.1290195E-011  0.5930194E+02  0.7816164E-02  0.1266605E+00
        -11   -1    0    0    0    0  0.00000000000E+00  0.00000000000E+00  0.45593999997E+02  0.45594000000E+02  0.51100000000E-03 0.  1.
         11   -1    0    0    0    0 -0.00000000000E+00 -0.00000000000E+00 -0.45593999997E+02  0.45594000000E+02  0.51100000000E-03 0. -1.
    9900012    2    1    2    0    0  0.22521178012E+02 -0.22082873737E+02  0.46758941288E+01  0.59301941018E+02  0.49999994510E+02 0.  0.
        -12    1    1    2    0    0 -0.22521178012E+02  0.22082873737E+02 -0.46758941288E+01  0.31886058982E+02  0.00000000000E+00 0.  1.
         11    1    3    3    0    0  0.13326637556E+02 -0.74549659927E+01 -0.12154177377E+02  0.19516654798E+02  0.51100000000E-03 0. -1.
        -11    1    3    3    0    0 -0.69873317495E+01  0.54149368083E+01  0.95568467369E+01  0.13018358784E+02  0.51100000000E-03 0.  1.
        -12    1    3    3    0    0  0.16181872205E+02 -0.20042844553E+02  0.72732247692E+01  0.26766927436E+02  0.00000000000E+00 0.  1.
</event>
<event>
 7    1  0.1290195E-011  0.5930185E+02  0.7816164E-02  0.1266605E+00
        -11   -1    0    0    0    0  0.00000000000E+00  0.00000000000E+00  0.45593999997E+02  0.45594000000E+02  0.51100000000E-03 0.  1.
         11   -1    0    0    0    0 -0.00000000000E+00 -0.00000000000E+00 -0.45593999997E+02  0.45594000000E+02  0.51100000000E-03 0. -1.
    9900012    2    1    2    0    0 -0.13210762105E+02 -0.28808126932E+02 -0.35063044871E+01  0.59301849654E+02  0.49999827884E+02 0.  0.
        -12    1    1    2    0    0  0.13210762105E+02  0.28808126932E+02  0.35063044871E+01  0.31886150346E+02  0.00000000000E+00 0.  1.
         11    1    3    3    0    0  0.55363209244E+01 -0.21923110846E+02  0.46213166321E+01  0.23078782598E+02  0.51100000000E-03 0. -1.
        -11    1    3    3    0    0 -0.26413380040E+02 -0.78652870025E+01 -0.59688341261E+01  0.28198517086E+02  0.51100000000E-03 0.  1.
         12    1    3    3    0    0  0.76662970106E+01  0.98027091620E+00 -0.21587869932E+01  0.80245499691E+01  0.00000000000E+00 0. -1.
</event>
<event>
 7    1  0.1290195E-011  0.5930192E+02  0.7816164E-02  0.1266605E+00
        -11   -1    0    0    0    0  0.00000000000E+00  0.00000000000E+00  0.45593999997E+02  0.45594000000E+02  0.51100000000E-03 0.  1.
         11   -1    0    0    0    0 -0.00000000000E+00 -0.00000000000E+00 -0.45593999997E+02  0.45594000000E+02  0.51100000000E-03 0. -1.
    9900012    2    1    2    0    0 -0.24017672271E+02 -0.15817050218E+02 -0.13772958463E+02  0.59301920847E+02  0.49999957724E+02 0.  0.
        -12    1    1    2    0    0  0.24017672271E+02  0.15817050218E+02  0.13772958463E+02  0.31886079153E+02  0.00000000000E+00 0.  1.
         11    1    3    3    0    0  0.60463728002E+01  0.32239782226E+01 -0.10915124632E+02  0.12887692020E+02  0.51100000000E-03 0. -1.
        -11    1    3    3    0    0  0.60620446439E+01 -0.21489654869E+01  0.22374373289E-03  0.64316746062E+01  0.51100000000E-03 0.  1.
         12    1    3    3    0    0 -0.36126089715E+02 -0.16892062954E+02 -0.28580575755E+01  0.39982554221E+02  0.00000000000E+00 0. -1.
</event>
<event>
 7    1  0.1290195E-011  0.5930196E+02  0.7816164E-02  0.1266605E+00
        -11   -1    0    0    0    0  0.00000000000E+00  0.00000000000E+00  0.45593999997E+02  0.45594000000E+02  0.51100000000E-03 0.  1.
         11   -1    0    0    0    0 -0.00000000000E+00 -0.00000000000E+00 -0.45593999997E+02  0.45594000000E+02  0.51100000000E-03 0. -1.
    9900012    2    1    2    0    0 -0.94322697101E+01 -0.30431599296E+02 -0.12922497912E+01  0.59301955135E+02  0.50000020258E+02 0.  0.
        -12    1    1    2    0    0  0.94322697101E+01  0.30431599296E+02  0.12922497912E+01  0.31886044865E+02  0.00000000000E+00 0.  1.
         11    1    3    3    0    0  0.69636676922E+01 -0.25677357226E+02 -0.72884434064E+01  0.27585154511E+02  0.51100000000E-03 0. -1.
        -11    1    3    3    0    0 -0.44490395254E+01 -0.24666595702E+01 -0.10237344697E+02  0.11431604823E+02  0.51100000000E-03 0.  1.
        -12    1    3    3    0    0 -0.11946897877E+02 -0.22875824993E+01  0.16233538312E+02  0.20285195801E+02  0.00000000000E+00 0.  1.
</event>
<event>
 7    1  0.1290195E-011  0.5930200E+02  0.7816164E-02  0.1266605E+00
        -11   -1    0    0    0    0  0.00000000000E+00  0.00000000000E+00  0.45593999997E+02  0.45594000000E+02  0.51100000000E-03 0.  1.
         11   -1    0    0    0    0 -0.00000000000E+00 -0.00000000000E+00 -0.45593999997E+02  0.45594000000E+02  0.51100000000E-03 0. -1.
    9900012    2    1    2    0    0  0.22256959388E+02  0.90655771087E+01 -0.20956146300E+02  0.59301999980E+02  0.50000102043E+02 0.  0.
        -12    1    1    2    0    0 -0.22256959388E+02 -0.90655771087E+01  0.20956146300E+02  0.31886000020E+02  0.00000000000E+00 0.  1.
         11    1    3    3    0    0  0.75408550916E+01  0.59015211705E+01  0.94162590670E+01  0.13429757359E+02  0.51100000000E-03 0. -1.
        -11    1    3    3    0    0 -0.86718799429E+01 -0.14311338836E+01 -0.23775740894E+01  0.91050812599E+01  0.51100000000E-03 0.  1.
         12    1    3    3    0    0  0.23387984240E+02  0.45951898217E+01 -0.27994831278E+02  0.36767161361E+02  0.00000000000E+00 0. -1.
</event>
<event>
 7    1  0.1290195E-011  0.5930195E+02  0.7816164E-02  0.1266605E+00
        -11   -1    0    0    0    0  0.00000000000E+00  0.00000000000E+00  0.45593999997E+02  0.45594000000E+02  0.51100000000E-03 0. -1.
         11   -1    0    0    0    0 -0.00000000000E+00 -0.00000000000E+00 -0.45593999997E+02  0.45594000000E+02  0.51100000000E-03 0.  1.
    9900012    2    1    2    0    0  0.26685601918E+01  0.15033043611E+02  0.27992972207E+02  0.59301951222E+02  0.50000013120E+02 0.  0.
        -12    1    1    2    0    0 -0.26685601918E+01 -0.15033043611E+02 -0.27992972207E+02  0.31886048778E+02  0.00000000000E+00 0.  1.
         11    1    3    3    0    0  0.10263405991E+02  0.45011278650E+01 -0.29267439997E+01  0.11582896240E+02  0.51100000000E-03 0. -1.
        -11    1    3    3    0    0  0.28073218893E+01 -0.34676533544E+01 -0.56523634261E+01  0.72010338520E+01  0.51100000000E-03 0.  1.
        -12    1    3    3    0    0 -0.10402167689E+02  0.13999569100E+02  0.36572079633E+02  0.40518021130E+02  0.00000000000E+00 0.  1.
</event>
<event>
 7    1  0.1290195E-011  0.5930192E+02  0.7816164E-02  0.1266605E+00
        -11   -1    0    0    0    0  0.00000000000E+00  0.00000000000E+00  0.45593999997E+02  0.45594000000E+02  0.51100000000E-03 0. -1.
         11   -1    0    0    0    0 -0.00000000000E+00 -0.00000000000E+00 -0.45593999997E+02  0.45594000000E+02  0.51100000000E-03 0.  1.
    9900012    2    1    2    0    0 -0.53585662617E+01  0.19327986660E+02  0.24787837335E+02  0.59301918703E+02  0.49999953813E+02 0.  0.
        -12    1    1    2    0    0  0.53585662617E+01 -0.19327986660E+02 -0.24787837335E+02  0.31886081297E+02  0.00000000000E+00 0.  1.
         11    1    3    3    0    0  0.10316880930E+02  0.13304842083E+02  0.67856124508E+00  0.16849845714E+02  0.51100000000E-03 0. -1.
        -11    1    3    3    0    0 -0.14378964071E+02  0.17866068104E+02  0.17325694968E+02  0.28742489517E+02  0.51100000000E-03 0.  1.
         12    1    3    3    0    0 -0.12964831214E+01 -0.11842923526E+02  0.67835811223E+01  0.13709583472E+02  0.00000000000E+00 0. -1.
</event>
<event>
 7    1  0.1290195E-011  0.5930189E+02  0.7816164E-02  0.1266605E+00
        -11   -1    0    0    0    0  0.00000000000E+00  0.00000000000E+00  0.45593999997E+02  0.45594000000E+02  0.51100000000E-03 0.  1.
         11   -1    0    0    0    0 -0.00000000000E+00 -0.00000000000E+00 -0.45593999997E+02  0.45594000000E+02  0.51100000000E-03 0. -1.
    9900012    2    1    2    0    0 -0.16637325426E+02  0.19350648744E+02 -0.19117425692E+02  0.59301887518E+02  0.49999896940E+02 0.  0.
        -12    1    1    2    0    0  0.16637325426E+02 -0.19350648744E+02  0.19117425692E+02  0.31886112482E+02  0.00000000000E+00 0.  1.
         11    1    3    3    0    0  0.16500427493E+00  0.14382026671E+02 -0.28403930046E+02  0.31837920157E+02  0.51100000000E-03 0. -1.
        -11    1    3    3    0    0  0.32791197408E+00  0.83671004535E+01  0.33433845546E+01  0.90163250165E+01  0.51100000000E-03 0.  1.
        -12    1    3    3    0    0 -0.17130241675E+02 -0.33984783802E+01  0.59431197999E+01  0.18447642345E+02  0.00000000000E+00 0.  1.
</event>
<event>
 7    1  0.1290195E-011  0.5930188E+02  0.7816164E-02  0.1266605E+00
        -11   -1    0    0    0    0  0.00000000000E+00  0.00000000000E+00  0.45593999997E+02  0.45594000000E+02  0.51100000000E-03 0.  1.
         11   -1    0    0    0    0 -0.00000000000E+00 -0.00000000000E+00 -0.45593999997E+02  0.45594000000E+02  0.51100000000E-03 0. -1.
    9900012    2    1    2    0    0  0.17261343104E+02  0.16573265909E+02 -0.21073617924E+02  0.59301882628E+02  0.49999888022E+02 0.  0.
        -12    1    1    2    0    0 -0.17261343104E+02 -0.16573265909E+02  0.21073617924E+02  0.31886117372E+02  0.00000000000E+00 0.  1.
         11    1    3    3    0    0 -0.10542800778E+02  0.95723765244E+01 -0.13179056310E+02  0.19402797893E+02  0.51100000000E-03 0. -1.
        -11    1    3    3    0    0 -0.12661468025E+01 -0.55760488144E+01  0.29315996359E+01  0.64257081160E+01  0.51100000000E-03 0.  1.
        -12    1    3    3    0    0  0.29070290684E+02  0.12576938199E+02 -0.10826161249E+02  0.33473376620E+02  0.00000000000E+00 0.  1.
</event>
<event>
 7    1  0.1290195E-011  0.5930227E+02  0.7816164E-02  0.1266604E+00
        -11   -1    0    0    0    0  0.00000000000E+00  0.00000000000E+00  0.45593999997E+02  0.45594000000E+02  0.51100000000E-03 0. -1.
         11   -1    0    0    0    0 -0.00000000000E+00 -0.00000000000E+00 -0.45593999997E+02  0.45594000000E+02  0.51100000000E-03 0.  1.
    9900012    2    1    2    0    0 -0.26788402121E+02  0.16176963593E+02  0.61144816983E+01  0.59302273951E+02  0.50000601697E+02 0.  0.
        -12    1    1    2    0    0  0.26788402121E+02 -0.16176963593E+02 -0.61144816983E+01  0.31885726049E+02  0.00000000000E+00 0.  1.
         11    1    3    3    0    0 -0.30429244654E+01  0.64423580803E+01  0.10155795028E+02  0.12405786547E+02  0.51100000000E-03 0. -1.
        -11    1    3    3    0    0  0.10348769787E+02  0.51960295163E+00 -0.51298304018E+01  0.11562101174E+02  0.51100000000E-03 0.  1.
         12    1    3    3    0    0 -0.34094247442E+02  0.92150025607E+01  0.10885170725E+01  0.35334386230E+02  0.00000000000E+00 0. -1.
</event>
<event>
 7    1  0.1290195E-011  0.5930197E+02  0.7816164E-02  0.1266605E+00
        -11   -1    0    0    0    0  0.00000000000E+00  0.00000000000E+00  0.45593999997E+02  0.45594000000E+02  0.51100000000E-03 0.  1.
         11   -1    0    0    0    0 -0.00000000000E+00 -0.00000000000E+00 -0.45593999997E+02  0.45594000000E+02  0.51100000000E-03 0. -1.
    9900012    2    1    2    0    0  0.13122713912E+02 -0.26146406672E+02 -0.12683794383E+02  0.59301971049E+02  0.50000049281E+02 0.  0.
        -12    1    1    2    0    0 -0.13122713912E+02  0.26146406672E+02  0.12683794383E+02  0.31886028951E+02  0.00000000000E+00 0.  1.
         11    1    3    3    0    0 -0.46596052694E+01 -0.30844979164E+01  0.17256118903E+01  0.58484002359E+01  0.51100000000E-03 0. -1.
        -11    1    3    3    0    0 -0.10930652009E+02  0.33291536174E+01  0.11097633458E+01  0.11480156449E+02  0.51100000000E-03 0.  1.
         12    1    3    3    0    0  0.28712971190E+02 -0.26391062373E+02 -0.15519169619E+02  0.41973414365E+02  0.00000000000E+00 0. -1.
</event>
<event>
 7    1  0.1290195E-011  0.5930195E+02  0.7816164E-02  0.1266605E+00
        -11   -1    0    0    0    0  0.00000000000E+00  0.00000000000E+00  0.45593999997E+02  0.45594000000E+02  0.51100000000E-03 0.  1.
         11   -1    0    0    0    0 -0.00000000000E+00 -0.00000000000E+00 -0.45593999997E+02  0.45594000000E+02  0.51100000000E-03 0. -1.
    9900012    2    1    2    0    0  0.89289002161E+01  0.25559820465E+02  0.16843122976E+02  0.59301945480E+02  0.50000002649E+02 0.  0.
        -12    1    1    2    0    0 -0.89289002161E+01 -0.25559820465E+02 -0.16843122976E+02  0.31886054520E+02  0.00000000000E+00 0.  1.
         11    1    3    3    0    0  0.24255892719E+01  0.17845520155E+02 -0.70485709071E+01  0.19339814503E+02  0.51100000000E-03 0. -1.
        -11    1    3    3    0    0  0.14504034082E+02  0.11462807597E+02  0.50693811376E+01  0.19169287625E+02  0.51100000000E-03 0.  1.
        -12    1    3    3    0    0 -0.80007231381E+01 -0.37485072870E+01  0.18822312745E+02  0.20792843353E+02  0.00000000000E+00 0.  1.
</event>
<event>
 7    1  0.1290195E-011  0.5930192E+02  0.7816164E-02  0.1266605E+00
        -11   -1    0    0    0    0  0.00000000000E+00  0.00000000000E+00  0.45593999997E+02  0.45594000000E+02  0.51100000000E-03 0.  1.
         11   -1    0    0    0    0 -0.00000000000E+00 -0.00000000000E+00 -0.45593999997E+02  0.45594000000E+02  0.51100000000E-03 0. -1.
    9900012    2    1    2    0    0  0.78109559294E+01 -0.18922941177E+02 -0.24446537754E+02  0.59301922419E+02  0.49999960591E+02 0.  0.
        -12    1    1    2    0    0 -0.78109559294E+01  0.18922941177E+02  0.24446537754E+02  0.31886077581E+02  0.00000000000E+00 0.  1.
         11    1    3    3    0    0  0.11867067069E+02 -0.32180133780E+01 -0.10486565429E+02  0.16160165398E+02  0.51100000000E-03 0. -1.
        -11    1    3    3    0    0 -0.10682147750E+02  0.96216769958E+01 -0.73247212273E+01  0.16134946237E+02  0.51100000000E-03 0.  1.
         12    1    3    3    0    0  0.66260366104E+01 -0.25326604795E+02 -0.66352510975E+01  0.27006810784E+02  0.00000000000E+00 0. -1.
</event>
<event>
 7    1  0.1290195E-011  0.5930194E+02  0.7816164E-02  0.1266605E+00
        -11   -1    0    0    0    0  0.00000000000E+00  0.00000000000E+00  0.45593999997E+02  0.45594000000E+02  0.51100000000E-03 0.  1.
         11   -1    0    0    0    0 -0.00000000000E+00 -0.00000000000E+00 -0.45593999997E+02  0.45594000000E+02  0.51100000000E-03 0. -1.
    9900012    2    1    2    0    0 -0.16407406485E+02  0.34682126149E+01 -0.27119904329E+02  0.59301941963E+02  0.49999996235E+02 0.  0.
        -12    1    1    2    0    0  0.16407406485E+02 -0.34682126149E+01  0.27119904329E+02  0.31886058037E+02  0.00000000000E+00 0.  1.
         11    1    3    3    0    0  0.10503085948E+02  0.13990242671E+01 -0.15442067267E+02  0.18727774162E+02  0.51100000000E-03 0. -1.
        -11    1    3    3    0    0 -0.15184252289E+02 -0.12771813021E+02 -0.74419452974E+01  0.21191113125E+02  0.51100000000E-03 0.  1.
        -12    1    3    3    0    0 -0.11726240143E+02  0.14841001369E+02 -0.42358917653E+01  0.19383054676E+02  0.00000000000E+00 0.  1.
</event>
<event>
 7    1  0.1290195E-011  0.5930194E+02  0.7816164E-02  0.1266605E+00
        -11   -1    0    0    0    0  0.00000000000E+00  0.00000000000E+00  0.45593999997E+02  0.45594000000E+02  0.51100000000E-03 0. -1.
         11   -1    0    0    0    0 -0.00000000000E+00 -0.00000000000E+00 -0.45593999997E+02  0.45594000000E+02  0.51100000000E-03 0.  1.
    9900012    2    1    2    0    0  0.19196506489E+02  0.17728229525E+02  0.18273617614E+02  0.59301935894E+02  0.49999985166E+02 0.  0.
        -12    1    1    2    0    0 -0.19196506489E+02 -0.17728229525E+02 -0.18273617614E+02  0.31886064106E+02  0.00000000000E+00 0.  1.
         11    1    3    3    0    0  0.12852486182E+01  0.60432681423E+01  0.10124623076E+02  0.11860899904E+02  0.51100000000E-03 0. -1.
        -11    1    3    3    0    0  0.23649981679E+02  0.49743478400E+01  0.20886520591E+02  0.31942331044E+02  0.51100000000E-03 0.  1.
        -12    1    3    3    0    0 -0.57387238083E+01  0.67106135429E+01 -0.12737526052E+02  0.15498704946E+02  0.00000000000E+00 0.  1.
</event>
<event>
 7    1  0.1290195E-011  0.5930189E+02  0.7816164E-02  0.1266605E+00
        -11   -1    0    0    0    0  0.00000000000E+00  0.00000000000E+00  0.45593999997E+02  0.45594000000E+02  0.51100000000E-03 0.  1.
         11   -1    0    0    0    0 -0.00000000000E+00 -0.00000000000E+00 -0.45593999997E+02  0.45594000000E+02  0.51100000000E-03 0. -1.
    9900012    2    1    2    0    0  0.11539253757E+02 -0.25576728352E+02 -0.15145970352E+02  0.59301892863E+02  0.49999906688E+02 0.  0.
        -12    1    1    2    0    0 -0.11539253757E+02  0.25576728352E+02  0.15145970352E+02  0.31886107137E+02  0.00000000000E+00 0.  1.
         11    1    3    3    0    0  0.88979430655E+00 -0.58962751519E+01 -0.66420231476E+01  0.89260442711E+01  0.51100000000E-03 0. -1.
        -11    1    3    3    0    0  0.80908105411E+00 -0.32040546330E+02 -0.11949022546E+02  0.34205706562E+02  0.51100000000E-03 0.  1.
        -12    1    3    3    0    0  0.98403783961E+01  0.12360093130E+02  0.34450753425E+01  0.16170142030E+02  0.00000000000E+00 0.  1.
</event>
<event>
 7    1  0.1290195E-011  0.5930193E+02  0.7816164E-02  0.1266605E+00
        -11   -1    0    0    0    0  0.00000000000E+00  0.00000000000E+00  0.45593999997E+02  0.45594000000E+02  0.51100000000E-03 0.  1.
         11   -1    0    0    0    0 -0.00000000000E+00 -0.00000000000E+00 -0.45593999997E+02  0.45594000000E+02  0.51100000000E-03 0. -1.
    9900012    2    1    2    0    0  0.71204199595E+01  0.71375446934E+01 -0.30250228498E+02  0.59301933312E+02  0.49999980458E+02 0.  0.
        -12    1    1    2    0    0 -0.71204199595E+01 -0.71375446934E+01  0.30250228498E+02  0.31886066688E+02  0.00000000000E+00 0.  1.
         11    1    3    3    0    0  0.12182322782E+02 -0.20866646753E+00 -0.15409441864E+02  0.19644424880E+02  0.51100000000E-03 0. -1.
        -11    1    3    3    0    0  0.72639356815E+01 -0.19690346815E+01 -0.21540545697E+02  0.22817470682E+02  0.51100000000E-03 0.  1.
        -12    1    3    3    0    0 -0.12325838504E+02  0.93152458424E+01  0.66997590628E+01  0.16840037750E+02  0.00000000000E+00 0.  1.
</event>
<event>
 7    1  0.1290195E-011  0.5930192E+02  0.7816164E-02  0.1266605E+00
        -11   -1    0    0    0    0  0.00000000000E+00  0.00000000000E+00  0.45593999997E+02  0.45594000000E+02  0.51100000000E-03 0. -1.
         11   -1    0    0    0    0 -0.00000000000E+00 -0.00000000000E+00 -0.45593999997E+02  0.45594000000E+02  0.51100000000E-03 0.  1.
    9900012    2    1    2    0    0 -0.13724718663E+02 -0.49690389596E+01  0.28348944099E+02  0.59301923382E+02  0.49999962347E+02 0.  0.
        -12    1    1    2    0    0  0.13724718663E+02  0.49690389596E+01 -0.28348944099E+02  0.31886076618E+02  0.00000000000E+00 0.  1.
         11    1    3    3    0    0 -0.11345525434E+02 -0.23571746788E+01  0.31649834236E+02  0.33704439281E+02  0.51100000000E-03 0. -1.
        -11    1    3    3    0    0 -0.79574857481E+01 -0.26259697137E+00  0.89220308666E+01  0.11957975232E+02  0.51100000000E-03 0.  1.
        -12    1    3    3    0    0  0.55782925192E+01 -0.23492673095E+01 -0.12222921004E+02  0.13639508869E+02  0.00000000000E+00 0.  1.
</event>
<event>
 7    1  0.1290195E-011  0.5930197E+02  0.7816164E-02  0.1266605E+00
        -11   -1    0    0    0    0  0.00000000000E+00  0.00000000000E+00  0.45593999997E+02  0.45594000000E+02  0.51100000000E-03 0. -1.
         11   -1    0    0    0    0 -0.00000000000E+00 -0.00000000000E+00 -0.45593999997E+02  0.45594000000E+02  0.51100000000E-03 0.  1.
    9900012    2    1    2    0    0 -0.14368632071E+02  0.18453257800E+02  0.21673454248E+02  0.59301969672E+02  0.50000046770E+02 0.  0.
        -12    1    1    2    0    0  0.14368632071E+02 -0.18453257800E+02 -0.21673454248E+02  0.31886030328E+02  0.00000000000E+00 0.  1.
         11    1    3    3    0    0 -0.70488742472E+01  0.34089566450E+01  0.17928631104E+02  0.19563829561E+02  0.51100000000E-03 0. -1.
        -11    1    3    3    0    0  0.13917528118E+02  0.30413075496E+01  0.55224784766E+01  0.15278904061E+02  0.51100000000E-03 0.  1.
        -12    1    3    3    0    0 -0.21237285942E+02  0.12002993605E+02 -0.17776553329E+01  0.24459236050E+02  0.00000000000E+00 0.  1.
</event>
<event>
 7    1  0.1290195E-011  0.5930187E+02  0.7816164E-02  0.1266605E+00
        -11   -1    0    0    0    0  0.00000000000E+00  0.00000000000E+00  0.45593999997E+02  0.45594000000E+02  0.51100000000E-03 0. -1.
         11   -1    0    0    0    0 -0.00000000000E+00 -0.00000000000E+00 -0.45593999997E+02  0.45594000000E+02  0.51100000000E-03 0.  1.
    9900012    2    1    2    0    0 -0.67323468157E+01  0.22355273411E+01  0.31087023293E+02  0.59301873026E+02  0.49999870510E+02 0.  0.
        -12    1    1    2    0    0  0.67323468157E+01 -0.22355273411E+01 -0.31087023293E+02  0.31886126974E+02  0.00000000000E+00 0.  1.
         11    1    3    3    0    0 -0.89252078935E+01 -0.11715414210E+02 -0.67073350593E+00  0.14743139074E+02  0.51100000000E-03 0.  1.
        -11    1    3    3    0    0  0.14744977915E+02  0.50476325858E+01  0.12993215959E+02  0.20290801602E+02  0.51100000000E-03 0. -1.
        -12    1    3    3    0    0 -0.12552116837E+02  0.89033089654E+01  0.18764540840E+02  0.24267932350E+02  0.00000000000E+00 0.  1.
</event>
<event>
 7    1  0.1290195E-011  0.5930197E+02  0.7816164E-02  0.1266605E+00
        -11   -1    0    0    0    0  0.00000000000E+00  0.00000000000E+00  0.45593999997E+02  0.45594000000E+02  0.51100000000E-03 0.  1.
         11   -1    0    0    0    0 -0.00000000000E+00 -0.00000000000E+00 -0.45593999997E+02  0.45594000000E+02  0.51100000000E-03 0. -1.
    9900012    2    1    2    0    0  0.31699292140E+02 -0.27895611931E+01  0.20229472471E+01  0.59301967174E+02  0.50000042214E+02 0.  0.
        -12    1    1    2    0    0 -0.31699292140E+02  0.27895611931E+01 -0.20229472471E+01  0.31886032826E+02  0.00000000000E+00 0.  1.
         11    1    3    3    0    0  0.12760519668E+02 -0.11586501074E+02 -0.84915198660E+01  0.19214155699E+02  0.51100000000E-03 0. -1.
        -11    1    3    3    0    0  0.19637171806E+02  0.46045637798E+01 -0.75451253360E+01  0.21534842483E+02  0.51100000000E-03 0.  1.
         12    1    3    3    0    0 -0.69839933514E+00  0.41923761009E+01  0.18059592449E+02  0.18552968992E+02  0.00000000000E+00 0. -1.
</event>
<event>
 7    1  0.1290195E-011  0.5930201E+02  0.7816164E-02  0.1266605E+00
        -11   -1    0    0    0    0  0.00000000000E+00  0.00000000000E+00  0.45593999997E+02  0.45594000000E+02  0.51100000000E-03 0.  1.
         11   -1    0    0    0    0 -0.00000000000E+00 -0.00000000000E+00 -0.45593999997E+02  0.45594000000E+02  0.51100000000E-03 0. -1.
    9900012    2    1    2    0    0  0.24436337092E+02 -0.11253911793E+02 -0.17115230501E+02  0.59302012227E+02  0.50000124379E+02 0.  0.
        -12    1    1    2    0    0 -0.24436337092E+02  0.11253911793E+02  0.17115230501E+02  0.31885987773E+02  0.00000000000E+00 0.  1.
         11    1    3    3    0    0  0.20754554158E+02 -0.17619087989E+02 -0.26195564439E+02  0.37780833452E+02  0.51100000000E-03 0. -1.
        -11    1    3    3    0    0  0.97527655473E+01 -0.53000848731E+00  0.21182626624E+01  0.99942174174E+01  0.51100000000E-03 0.  1.
        -12    1    3    3    0    0 -0.60709826125E+01  0.68951846833E+01  0.69620712747E+01  0.11526961357E+02  0.00000000000E+00 0.  1.
</event>
<event>
 7    1  0.1290195E-011  0.5930204E+02  0.7816164E-02  0.1266604E+00
        -11   -1    0    0    0    0  0.00000000000E+00  0.00000000000E+00  0.45593999997E+02  0.45594000000E+02  0.51100000000E-03 0.  1.
         11   -1    0    0    0    0 -0.00000000000E+00 -0.00000000000E+00 -0.45593999997E+02  0.45594000000E+02  0.51100000000E-03 0. -1.
    9900012    2    1    2    0    0 -0.12162015100E+02  0.14862924159E+01 -0.29437916814E+02  0.59302037214E+02  0.50000169949E+02 0.  0.
        -12    1    1    2    0    0  0.12162015100E+02 -0.14862924159E+01  0.29437916814E+02  0.31885962786E+02  0.00000000000E+00 0.  1.
         11    1    3    3    0    0 -0.11607847641E+02  0.16066742184E+02 -0.89221867610E+01  0.21736783297E+02  0.51100000000E-03 0. -1.
        -11    1    3    3    0    0 -0.11773747682E+02 -0.13977488305E+01 -0.15553592739E+02  0.19557328131E+02  0.51100000000E-03 0.  1.
        -12    1    3    3    0    0  0.11219580223E+02 -0.13182700937E+02 -0.49621373144E+01  0.18007925786E+02  0.00000000000E+00 0.  1.
</event>
<event>
 7    1  0.1290195E-011  0.5930197E+02  0.7816164E-02  0.1266605E+00
        -11   -1    0    0    0    0  0.00000000000E+00  0.00000000000E+00  0.45593999997E+02  0.45594000000E+02  0.51100000000E-03 0.  1.
         11   -1    0    0    0    0 -0.00000000000E+00 -0.00000000000E+00 -0.45593999997E+02  0.45594000000E+02  0.51100000000E-03 0. -1.
    9900012    2    1    2    0    0  0.94859460674E+00  0.29175066068E+02 -0.12830998779E+02  0.59301971061E+02  0.50000049303E+02 0.  0.
        -12    1    1    2    0    0 -0.94859460674E+00 -0.29175066068E+02  0.12830998779E+02  0.31886028939E+02  0.00000000000E+00 0.  1.
         11    1    3    3    0    0 -0.47214682092E+01  0.16652689987E+01 -0.11487966766E+02  0.12531510826E+02  0.51100000000E-03 0. -1.
        -11    1    3    3    0    0  0.12562579407E+02  0.19434440486E+02 -0.16388201089E+02  0.28356463347E+02  0.51100000000E-03 0.  1.
        -12    1    3    3    0    0 -0.68925165910E+01  0.80753565836E+01  0.15045169076E+02  0.18413996889E+02  0.00000000000E+00 0.  1.
</event>
<event>
 7    1  0.1290195E-011  0.5930195E+02  0.7816164E-02  0.1266605E+00
        -11   -1    0    0    0    0  0.00000000000E+00  0.00000000000E+00  0.45593999997E+02  0.45594000000E+02  0.51100000000E-03 0. -1.
         11   -1    0    0    0    0 -0.00000000000E+00 -0.00000000000E+00 -0.45593999997E+02  0.45594000000E+02  0.51100000000E-03 0.  1.
    9900012    2    1    2    0    0  0.16102357310E+02 -0.19124307624E+02  0.19791295117E+02  0.59301946380E+02  0.50000004290E+02 0.  0.
        -12    1    1    2    0    0 -0.16102357310E+02  0.19124307624E+02 -0.19791295117E+02  0.31886053620E+02  0.00000000000E+00 0.  1.
         11    1    3    3    0    0  0.74934333719E+01 -0.80022707001E+01  0.26179886387E+02  0.28382641377E+02  0.51100000000E-03 0. -1.
        -11    1    3    3    0    0 -0.73466473633E+01 -0.64900502418E+01  0.47738935128E+01  0.10903395763E+02  0.51100000000E-03 0.  1.
         12    1    3    3    0    0  0.15955571302E+02 -0.46319866822E+01 -0.11162484783E+02  0.20015909240E+02  0.00000000000E+00 0. -1.
</event>
<event>
 7    1  0.1290195E-011  0.5930190E+02  0.7816164E-02  0.1266605E+00
        -11   -1    0    0    0    0  0.00000000000E+00  0.00000000000E+00  0.45593999997E+02  0.45594000000E+02  0.51100000000E-03 0.  1.
         11   -1    0    0    0    0 -0.00000000000E+00 -0.00000000000E+00 -0.45593999997E+02  0.45594000000E+02  0.51100000000E-03 0. -1.
    9900012    2    1    2    0    0  0.11863092148E+02 -0.15269316198E+02 -0.25354255944E+02  0.59301901666E+02  0.49999922742E+02 0.  0.
        -12    1    1    2    0    0 -0.11863092148E+02  0.15269316198E+02  0.25354255944E+02  0.31886098334E+02  0.00000000000E+00 0.  1.
         11    1    3    3    0    0  0.61330393794E+00  0.36588000500E+01 -0.11264453965E+02  0.11859632495E+02  0.51100000000E-03 0. -1.
        -11    1    3    3    0    0  0.22358201242E+02 -0.23402724263E+02 -0.14485595052E+02  0.35459965172E+02  0.51100000000E-03 0.  1.
        -12    1    3    3    0    0 -0.11108413032E+02  0.44746080146E+01  0.39579307263E+00  0.11982303999E+02  0.00000000000E+00 0.  1.
</event>
<event>
 7    1  0.1290195E-011  0.5930193E+02  0.7816164E-02  0.1266605E+00
        -11   -1    0    0    0    0  0.00000000000E+00  0.00000000000E+00  0.45593999997E+02  0.45594000000E+02  0.51100000000E-03 0. -1.
         11   -1    0    0    0    0 -0.00000000000E+00 -0.00000000000E+00 -0.45593999997E+02  0.45594000000E+02  0.51100000000E-03 0.  1.
    9900012    2    1    2    0    0  0.17079675860E+02  0.53130290490E+01  0.26396550618E+02  0.59301929535E+02  0.49999973569E+02 0.  0.
        -12    1    1    2    0    0 -0.17079675860E+02 -0.53130290490E+01 -0.26396550618E+02  0.31886070465E+02  0.00000000000E+00 0.  1.
         11    1    3    3    0    0 -0.46662500907E+01 -0.89076116001E+00 -0.36926691123E+01  0.60169054161E+01  0.51100000000E-03 0. -1.
        -11    1    3    3    0    0  0.11702969331E+02  0.11273821627E+02 -0.45416524510E+01  0.16872615461E+02  0.51100000000E-03 0.  1.
         12    1    3    3    0    0  0.10042956620E+02 -0.50700314183E+01  0.34630872181E+02  0.36412408658E+02  0.00000000000E+00 0. -1.
</event>
<event>
 7    1  0.1290195E-011  0.5930195E+02  0.7816164E-02  0.1266605E+00
        -11   -1    0    0    0    0  0.00000000000E+00  0.00000000000E+00  0.45593999997E+02  0.45594000000E+02  0.51100000000E-03 0. -1.
         11   -1    0    0    0    0 -0.00000000000E+00 -0.00000000000E+00 -0.45593999997E+02  0.45594000000E+02  0.51100000000E-03 0.  1.
    9900012    2    1    2    0    0  0.22769113524E+02  0.22127905732E+02  0.29400068212E+01  0.59301946891E+02  0.50000005222E+02 0.  0.
        -12    1    1    2    0    0 -0.22769113524E+02 -0.22127905732E+02 -0.29400068212E+01  0.31886053109E+02  0.00000000000E+00 0.  1.
         11    1    3    3    0    0  0.10100629622E+01  0.43246193525E+01 -0.23662785383E+01  0.50320804956E+01  0.51100000000E-03 0. -1.
        -11    1    3    3    0    0 -0.24253466666E+01  0.25857718717E+02 -0.55605507899E+01  0.26559812670E+02  0.51100000000E-03 0.  1.
         12    1    3    3    0    0  0.24184397229E+02 -0.80544323376E+01  0.10866836149E+02  0.27710053726E+02  0.00000000000E+00 0. -1.
</event>
<event>
 7    1  0.1290195E-011  0.5930185E+02  0.7816164E-02  0.1266605E+00
        -11   -1    0    0    0    0  0.00000000000E+00  0.00000000000E+00  0.45593999997E+02  0.45594000000E+02  0.51100000000E-03 0.  1.
         11   -1    0    0    0    0 -0.00000000000E+00 -0.00000000000E+00 -0.45593999997E+02  0.45594000000E+02  0.51100000000E-03 0. -1.
    9900012    2    1    2    0    0  0.61790358812E+01  0.27518895233E+02  0.14874683003E+02  0.59301854518E+02  0.49999836755E+02 0.  0.
        -12    1    1    2    0    0 -0.61790358812E+01 -0.27518895233E+02 -0.14874683003E+02  0.31886145482E+02  0.00000000000E+00 0.  1.
         11    1    3    3    0    0 -0.48653265820E+01 -0.20229080171E+01  0.92844874906E+01  0.10675451645E+02  0.51100000000E-03 0. -1.
        -11    1    3    3    0    0 -0.11769333244E+02  0.53379695170E+01 -0.47914248027E+01  0.13782919701E+02  0.51100000000E-03 0.  1.
         12    1    3    3    0    0  0.22813695707E+02  0.24203833733E+02  0.10381620315E+02  0.34843483172E+02  0.00000000000E+00 0. -1.
</event>
<event>
 7    1  0.1290195E-011  0.5930195E+02  0.7816164E-02  0.1266605E+00
        -11   -1    0    0    0    0  0.00000000000E+00  0.00000000000E+00  0.45593999997E+02  0.45594000000E+02  0.51100000000E-03 0.  1.
         11   -1    0    0    0    0 -0.00000000000E+00 -0.00000000000E+00 -0.45593999997E+02  0.45594000000E+02  0.51100000000E-03 0. -1.
    9900012    2    1    2    0    0 -0.38551290097E+01 -0.44850748886E+01 -0.31332767402E+02  0.59301949296E+02  0.50000009607E+02 0.  0.
        -12    1    1    2    0    0  0.38551290097E+01  0.44850748886E+01  0.31332767402E+02  0.31886050704E+02  0.00000000000E+00 0.  1.
         11    1    3    3    0    0  0.50081724035E+01  0.48156688239E+01  0.36931045094E+01  0.78683847278E+01  0.51100000000E-03 0. -1.
        -11    1    3    3    0    0  0.83097163351E+01 -0.41266071549E+01  0.26986706489E+01  0.96624580575E+01  0.51100000000E-03 0.  1.
         12    1    3    3    0    0 -0.17173017748E+02 -0.51741365577E+01 -0.37724542561E+02  0.41771106510E+02  0.00000000000E+00 0. -1.
</event>
<event>
 7    1  0.1290195E-011  0.5930195E+02  0.7816164E-02  0.1266605E+00
        -11   -1    0    0    0    0  0.00000000000E+00  0.00000000000E+00  0.45593999997E+02  0.45594000000E+02  0.51100000000E-03 0. -1.
         11   -1    0    0    0    0 -0.00000000000E+00 -0.00000000000E+00 -0.45593999997E+02  0.45594000000E+02  0.51100000000E-03 0.  1.
    9900012    2    1    2    0    0  0.12211308162E+02 -0.15866999322E+02  0.24816171136E+02  0.59301951885E+02  0.50000014330E+02 0.  0.
        -12    1    1    2    0    0 -0.12211308162E+02  0.15866999322E+02 -0.24816171136E+02  0.31886048115E+02  0.00000000000E+00 0.  1.
         11    1    3    3    0    0  0.81370750882E+01  0.31257704566E+01  0.26290056510E+02  0.27697463846E+02  0.51100000000E-03 0. -1.
        -11    1    3    3    0    0  0.12724133155E+02 -0.18649823118E+02  0.10066844459E+01  0.22599400008E+02  0.51100000000E-03 0.  1.
        -12    1    3    3    0    0 -0.86499000807E+01 -0.34294666111E+00 -0.24805698201E+01  0.90050880312E+01  0.00000000000E+00 0.  1.
</event>
<event>
 7    1  0.1290195E-011  0.5930193E+02  0.7816164E-02  0.1266605E+00
        -11   -1    0    0    0    0  0.00000000000E+00  0.00000000000E+00  0.45593999997E+02  0.45594000000E+02  0.51100000000E-03 0.  1.
         11   -1    0    0    0    0 -0.00000000000E+00 -0.00000000000E+00 -0.45593999997E+02  0.45594000000E+02  0.51100000000E-03 0. -1.
    9900012    2    1    2    0    0 -0.23983745763E+02  0.44427477539E+01 -0.20536879254E+02  0.59301929720E+02  0.49999973905E+02 0.  0.
        -12    1    1    2    0    0  0.23983745763E+02 -0.44427477539E+01  0.20536879254E+02  0.31886070280E+02  0.00000000000E+00 0.  1.
         11    1    3    3    0    0 -0.23127373512E+01  0.68323184311E+01 -0.24405040130E+02  0.25448679990E+02  0.51100000000E-03 0. -1.
        -11    1    3    3    0    0 -0.41328859197E+01 -0.10633356429E+02 -0.51040444046E+01  0.12498011223E+02  0.51100000000E-03 0.  1.
         12    1    3    3    0    0 -0.17538122492E+02  0.82437857521E+01  0.89722052810E+01  0.21355238507E+02  0.00000000000E+00 0. -1.
</event>
<event>
 7    1  0.1290195E-011  0.5930205E+02  0.7816164E-02  0.1266604E+00
        -11   -1    0    0    0    0  0.00000000000E+00  0.00000000000E+00  0.45593999997E+02  0.45594000000E+02  0.51100000000E-03 0.  1.
         11   -1    0    0    0    0 -0.00000000000E+00 -0.00000000000E+00 -0.45593999997E+02  0.45594000000E+02  0.51100000000E-03 0. -1.
    9900012    2    1    2    0    0  0.13948459614E+02  0.28554666201E+02 -0.26048596484E+01  0.59302050411E+02  0.50000194016E+02 0.  0.
        -12    1    1    2    0    0 -0.13948459614E+02 -0.28554666201E+02  0.26048596484E+01  0.31885949589E+02  0.00000000000E+00 0.  1.
         11    1    3    3    0    0  0.17471236776E+02  0.22285360558E+01 -0.19371200626E+02  0.26181174561E+02  0.51100000000E-03 0. -1.
        -11    1    3    3    0    0  0.12298968523E+01 -0.47513066036E+00  0.10848891285E+01  0.17074484162E+01  0.51100000000E-03 0.  1.
         12    1    3    3    0    0 -0.47526740139E+01  0.26801260805E+02  0.15681451849E+02  0.31413427434E+02  0.00000000000E+00 0. -1.
</event>
<event>
 7    1  0.1290195E-011  0.5930194E+02  0.7816164E-02  0.1266605E+00
        -11   -1    0    0    0    0  0.00000000000E+00  0.00000000000E+00  0.45593999997E+02  0.45594000000E+02  0.51100000000E-03 0.  1.
         11   -1    0    0    0    0 -0.00000000000E+00 -0.00000000000E+00 -0.45593999997E+02  0.45594000000E+02  0.51100000000E-03 0. -1.
    9900012    2    1    2    0    0  0.19395992610E+02 -0.17042963269E+02 -0.18709717036E+02  0.59301942892E+02  0.49999997929E+02 0.  0.
        -12    1    1    2    0    0 -0.19395992610E+02  0.17042963269E+02  0.18709717036E+02  0.31886057108E+02  0.00000000000E+00 0.  1.
         11    1    3    3    0    0 -0.85702631654E+01 -0.33153320244E+01 -0.96644449199E+00  0.92398513178E+01  0.51100000000E-03 0. -1.
        -11    1    3    3    0    0  0.36507813595E+01 -0.16943847884E+02 -0.18724426735E+02  0.25515217861E+02  0.51100000000E-03 0.  1.
         12    1    3    3    0    0  0.24315474416E+02  0.32162166396E+01  0.98115419161E+00  0.24546873714E+02  0.00000000000E+00 0. -1.
</event>
<event>
 7    1  0.1384251E-011  0.5930210E+02  0.7816164E-02  0.1266604E+00
        -11   -1    0    0    0    0  0.00000000000E+00  0.00000000000E+00  0.45593999997E+02  0.45594000000E+02  0.51100000000E-03 0. -1.
         11   -1    0    0    0    0 -0.00000000000E+00 -0.00000000000E+00 -0.45593999997E+02  0.45594000000E+02  0.51100000000E-03 0.  1.
    9900012    2    1    2    0    0  0.74805678203E+01 -0.17095768841E+02  0.25855101625E+02  0.59302102064E+02  0.50000288219E+02 0.  0.
        -12    1    1    2    0    0 -0.74805678203E+01  0.17095768841E+02 -0.25855101625E+02  0.31885897936E+02  0.00000000000E+00 0.  1.
         11    1    3    3    0    0  0.19135623831E+01 -0.21443508150E+01 -0.48238759533E+01  0.56151349837E+01  0.51100000000E-03 0. -1.
        -11    1    3    3    0    0  0.15249755932E+02  0.11037635335E+01 -0.25814846045E+01  0.15506044400E+02  0.51100000000E-03 0.  1.
         12    1    3    3    0    0 -0.96827504947E+01 -0.16055181559E+02  0.33260462183E+02  0.38180922680E+02  0.00000000000E+00 0. -1.
</event>
<event>
 7    1  0.1290195E-011  0.5930192E+02  0.7816164E-02  0.1266605E+00
        -11   -1    0    0    0    0  0.00000000000E+00  0.00000000000E+00  0.45593999997E+02  0.45594000000E+02  0.51100000000E-03 0.  1.
         11   -1    0    0    0    0 -0.00000000000E+00 -0.00000000000E+00 -0.45593999997E+02  0.45594000000E+02  0.51100000000E-03 0. -1.
    9900012    2    1    2    0    0 -0.28689258822E+02  0.10354272559E+02  0.92971682795E+01  0.59301923572E+02  0.49999962693E+02 0.  0.
        -12    1    1    2    0    0  0.28689258822E+02 -0.10354272559E+02 -0.92971682795E+01  0.31886076428E+02  0.00000000000E+00 0.  1.
         11    1    3    3    0    0 -0.15409739204E+02 -0.31727594507E+01 -0.52637140687E+01  0.16590152228E+02  0.51100000000E-03 0. -1.
        -11    1    3    3    0    0 -0.10074226674E+02 -0.10102288019E+02 -0.89527259738E+00  0.14295026393E+02  0.51100000000E-03 0.  1.
        -12    1    3    3    0    0 -0.32052929441E+01  0.23629320029E+02  0.15456154946E+02  0.28416744951E+02  0.00000000000E+00 0.  1.
</event>
<event>
 7    1  0.1290195E-011  0.5930194E+02  0.7816164E-02  0.1266605E+00
        -11   -1    0    0    0    0  0.00000000000E+00  0.00000000000E+00  0.45593999997E+02  0.45594000000E+02  0.51100000000E-03 0.  1.
         11   -1    0    0    0    0 -0.00000000000E+00 -0.00000000000E+00 -0.45593999997E+02  0.45594000000E+02  0.51100000000E-03 0. -1.
    9900012    2    1    2    0    0  0.22085805478E+01 -0.23176160721E+01 -0.31724939343E+02  0.59301938020E+02  0.49999989043E+02 0.  0.
        -12    1    1    2    0    0 -0.22085805478E+01  0.23176160721E+01  0.31724939343E+02  0.31886061980E+02  0.00000000000E+00 0.  1.
         11    1    3    3    0    0  0.42085796776E+01 -0.15753601843E+02 -0.14908678879E+02  0.22094271205E+02  0.51100000000E-03 0. -1.
        -11    1    3    3    0    0  0.11932066320E+02 -0.58609792731E+00 -0.11807108426E+01  0.12004657254E+02  0.51100000000E-03 0.  1.
        -12    1    3    3    0    0 -0.13932065450E+02  0.14022083698E+02 -0.15635549622E+02  0.25203009560E+02  0.00000000000E+00 0.  1.
</event>
<event>
 7    1  0.1290195E-011  0.5930194E+02  0.7816164E-02  0.1266605E+00
        -11   -1    0    0    0    0  0.00000000000E+00  0.00000000000E+00  0.45593999997E+02  0.45594000000E+02  0.51100000000E-03 0.  1.
         11   -1    0    0    0    0 -0.00000000000E+00 -0.00000000000E+00 -0.45593999997E+02  0.45594000000E+02  0.51100000000E-03 0. -1.
    9900012    2    1    2    0    0  0.71654389198E+01  0.10188796243E+02 -0.29352442874E+02  0.59301937426E+02  0.49999987960E+02 0.  0.
        -12    1    1    2    0    0 -0.71654389198E+01 -0.10188796243E+02  0.29352442874E+02  0.31886062574E+02  0.00000000000E+00 0.  1.
         11    1    3    3    0    0  0.29527900442E+01 -0.10140146119E+02 -0.29479991558E+02  0.31314715948E+02  0.51100000000E-03 0. -1.
        -11    1    3    3    0    0 -0.71284332483E+01  0.58975378252E+01  0.22185153589E+01  0.95140592616E+01  0.51100000000E-03 0.  1.
        -12    1    3    3    0    0  0.11341082124E+02  0.14431404537E+02 -0.20909666751E+01  0.18473162217E+02  0.00000000000E+00 0.  1.
</event>
<event>
 7    1  0.1290195E-011  0.5930195E+02  0.7816164E-02  0.1266605E+00
        -11   -1    0    0    0    0  0.00000000000E+00  0.00000000000E+00  0.45593999997E+02  0.45594000000E+02  0.51100000000E-03 0. -1.
         11   -1    0    0    0    0 -0.00000000000E+00 -0.00000000000E+00 -0.45593999997E+02  0.45594000000E+02  0.51100000000E-03 0.  1.
    9900012    2    1    2    0    0  0.15204974648E+02  0.76051334250E+01  0.26975743325E+02  0.59301952324E+02  0.50000015130E+02 0.  0.
        -12    1    1    2    0    0 -0.15204974648E+02 -0.76051334250E+01 -0.26975743325E+02  0.31886047676E+02  0.00000000000E+00 0.  1.
         11    1    3    3    0    0  0.10825978570E+02  0.37960487237E+01  0.13790513549E+02  0.17938507800E+02  0.51100000000E-03 0. -1.
        -11    1    3    3    0    0  0.14937131423E+02 -0.58245077294E+01 -0.62764025937E+01  0.17217317306E+02  0.51100000000E-03 0.  1.
        -12    1    3    3    0    0 -0.10558135345E+02  0.96335924307E+01  0.19461632370E+02  0.24146127217E+02  0.00000000000E+00 0.  1.
</event>
<event>
 7    1  0.1290195E-011  0.5930194E+02  0.7816164E-02  0.1266605E+00
        -11   -1    0    0    0    0  0.00000000000E+00  0.00000000000E+00  0.45593999997E+02  0.45594000000E+02  0.51100000000E-03 0.  1.
         11   -1    0    0    0    0 -0.00000000000E+00 -0.00000000000E+00 -0.45593999997E+02  0.45594000000E+02  0.51100000000E-03 0. -1.
    9900012    2    1    2    0    0  0.94791312118E+01 -0.17924677964E+02 -0.24608383267E+02  0.59301944495E+02  0.50000000852E+02 0.  0.
        -12    1    1    2    0    0 -0.94791312118E+01  0.17924677964E+02  0.24608383267E+02  0.31886055505E+02  0.00000000000E+00 0.  1.
         11    1    3    3    0    0 -0.52771670072E-01 -0.10801600293E+02 -0.11523060590E+02  0.15794248300E+02  0.51100000000E-03 0. -1.
        -11    1    3    3    0    0 -0.10371788847E+02 -0.12778111898E+02 -0.15584781493E+02  0.22665823656E+02  0.51100000000E-03 0.  1.
        -12    1    3    3    0    0  0.19903691729E+02  0.56550342266E+01  0.24994588157E+01  0.20841872539E+02  0.00000000000E+00 0.  1.
</event>
<event>
 7    1  0.1290195E-011  0.5930195E+02  0.7816164E-02  0.1266605E+00
        -11   -1    0    0    0    0  0.00000000000E+00  0.00000000000E+00  0.45593999997E+02  0.45594000000E+02  0.51100000000E-03 0. -1.
         11   -1    0    0    0    0 -0.00000000000E+00 -0.00000000000E+00 -0.45593999997E+02  0.45594000000E+02  0.51100000000E-03 0.  1.
    9900012    2    1    2    0    0  0.60767559520E+01  0.29298626605E+02 -0.11017438821E+02  0.59301945964E+02  0.50000003531E+02 0.  0.
        -12    1    1    2    0    0 -0.60767559520E+01 -0.29298626605E+02  0.11017438821E+02  0.31886054036E+02  0.00000000000E+00 0.  1.
         11    1    3    3    0    0  0.17556849604E+02  0.25435764590E+02 -0.19992533018E+02  0.36809271455E+02  0.51100000000E-03 0. -1.
        -11    1    3    3    0    0 -0.98435049005E+01  0.23506224292E+01 -0.28064979280E+01  0.10502211453E+02  0.51100000000E-03 0.  1.
        -12    1    3    3    0    0 -0.16365887517E+01  0.15122395852E+01  0.11781592125E+02  0.11990463056E+02  0.00000000000E+00 0.  1.
</event>
<event>
 7    1  0.1290195E-011  0.5930196E+02  0.7816164E-02  0.1266605E+00
        -11   -1    0    0    0    0  0.00000000000E+00  0.00000000000E+00  0.45593999997E+02  0.45594000000E+02  0.51100000000E-03 0.  1.
         11   -1    0    0    0    0 -0.00000000000E+00 -0.00000000000E+00 -0.45593999997E+02  0.45594000000E+02  0.51100000000E-03 0. -1.
    9900012    2    1    2    0    0 -0.54349939515E+00 -0.27413638556E+02 -0.16276264119E+02  0.59301956907E+02  0.50000023488E+02 0.  0.
        -12    1    1    2    0    0  0.54349939515E+00  0.27413638556E+02  0.16276264119E+02  0.31886043093E+02  0.00000000000E+00 0.  1.
         11    1    3    3    0    0 -0.44455399546E+01  0.46317202768E+01 -0.23432393800E+01  0.68342102151E+01  0.51100000000E-03 0. -1.
        -11    1    3    3    0    0  0.65906271025E+01  0.64538625031E+00 -0.18221458061E+02  0.19387481094E+02  0.51100000000E-03 0.  1.
         12    1    3    3    0    0 -0.26885865430E+01 -0.32690745083E+02  0.42884333217E+01  0.33080265598E+02  0.00000000000E+00 0. -1.
</event>
<event>
 7    1  0.1290195E-011  0.5930197E+02  0.7816164E-02  0.1266605E+00
        -11   -1    0    0    0    0  0.00000000000E+00  0.00000000000E+00  0.45593999997E+02  0.45594000000E+02  0.51100000000E-03 0. -1.
         11   -1    0    0    0    0 -0.00000000000E+00 -0.00000000000E+00 -0.45593999997E+02  0.45594000000E+02  0.51100000000E-03 0.  1.
    9900012    2    1    2    0    0  0.40459265666E+01 -0.18259627744E+02  0.25825092650E+02  0.59301969556E+02  0.50000046557E+02 0.  0.
        -12    1    1    2    0    0 -0.40459265666E+01  0.18259627744E+02 -0.25825092650E+02  0.31886030444E+02  0.00000000000E+00 0.  1.
         11    1    3    3    0    0  0.80237317674E+01 -0.10326060403E+02  0.36947750391E+02  0.39193673649E+02  0.51100000000E-03 0. -1.
        -11    1    3    3    0    0 -0.12738778518E+01 -0.86708682882E+01 -0.13096658641E+00  0.87649229409E+01  0.51100000000E-03 0.  1.
        -12    1    3    3    0    0 -0.27039273490E+01  0.73730094730E+00 -0.10991691155E+02  0.11343372966E+02  0.00000000000E+00 0.  1.
</event>
<event>
 7    1  0.1290195E-011  0.5930196E+02  0.7816164E-02  0.1266605E+00
        -11   -1    0    0    0    0  0.00000000000E+00  0.00000000000E+00  0.45593999997E+02  0.45594000000E+02  0.51100000000E-03 0.  1.
         11   -1    0    0    0    0 -0.00000000000E+00 -0.00000000000E+00 -0.45593999997E+02  0.45594000000E+02  0.51100000000E-03 0. -1.
    9900012    2    1    2    0    0  0.25393820011E+02 -0.17406131502E+02  0.83006200212E+01  0.59301956009E+02  0.50000021852E+02 0.  0.
        -12    1    1    2    0    0 -0.25393820011E+02  0.17406131502E+02 -0.83006200212E+01  0.31886043991E+02  0.00000000000E+00 0.  1.
         11    1    3    3    0    0  0.20594643610E+02 -0.65588221321E+01 -0.12063805549E+02  0.24752634159E+02  0.51100000000E-03 0. -1.
        -11    1    3    3    0    0  0.12191233040E+02 -0.88896772259E+01  0.22050772498E+02  0.26718703042E+02  0.51100000000E-03 0.  1.
         12    1    3    3    0    0 -0.73920566393E+01 -0.19576321439E+01 -0.16863469276E+01  0.78306188089E+01  0.00000000000E+00 0. -1.
</event>
<event>
 7    1  0.1290195E-011  0.5930195E+02  0.7816164E-02  0.1266605E+00
        -11   -1    0    0    0    0  0.00000000000E+00  0.00000000000E+00  0.45593999997E+02  0.45594000000E+02  0.51100000000E-03 0.  1.
         11   -1    0    0    0    0 -0.00000000000E+00 -0.00000000000E+00 -0.45593999997E+02  0.45594000000E+02  0.51100000000E-03 0. -1.
    9900012    2    1    2    0    0 -0.21444398761E+01 -0.29131801550E+02 -0.12785137488E+02  0.59301949374E+02  0.50000009751E+02 0.  0.
        -12    1    1    2    0    0  0.21444398761E+01  0.29131801550E+02  0.12785137488E+02  0.31886050626E+02  0.00000000000E+00 0.  1.
         11    1    3    3    0    0  0.30015374020E+01 -0.98153009817E+01  0.13486016259E+02  0.16947625053E+02  0.51100000000E-03 0. -1.
        -11    1    3    3    0    0 -0.10941263834E+02  0.27444285615E+00 -0.29201605169E+01  0.11327573035E+02  0.51100000000E-03 0.  1.
         12    1    3    3    0    0  0.57952865556E+01 -0.19590943424E+02 -0.23350993230E+02  0.31026751286E+02  0.00000000000E+00 0. -1.
</event>
<event>
 7    1  0.1290195E-011  0.5930190E+02  0.7816164E-02  0.1266605E+00
        -11   -1    0    0    0    0  0.00000000000E+00  0.00000000000E+00  0.45593999997E+02  0.45594000000E+02  0.51100000000E-03 0. -1.
         11   -1    0    0    0    0 -0.00000000000E+00 -0.00000000000E+00 -0.45593999997E+02  0.45594000000E+02  0.51100000000E-03 0.  1.
    9900012    2    1    2    0    0 -0.20037300398E+02 -0.22495808062E+02  0.10448368395E+02  0.59301902877E+02  0.49999924951E+02 0.  0.
        -12    1    1    2    0    0  0.20037300398E+02  0.22495808062E+02 -0.10448368395E+02  0.31886097123E+02  0.00000000000E+00 0.  1.
         11    1    3    3    0    0 -0.11783054497E+02  0.31610227114E+01  0.94184391823E+01  0.15412314387E+02  0.51100000000E-03 0. -1.
        -11    1    3    3    0    0 -0.45160566343E+01 -0.14315113232E+02 -0.16737127149E+02  0.22482185388E+02  0.51100000000E-03 0.  1.
         12    1    3    3    0    0 -0.37381892667E+01 -0.11341717542E+02  0.17767056362E+02  0.21407403102E+02  0.00000000000E+00 0. -1.
</event>
<event>
 7    1  0.1290195E-011  0.5930193E+02  0.7816164E-02  0.1266605E+00
        -11   -1    0    0    0    0  0.00000000000E+00  0.00000000000E+00  0.45593999997E+02  0.45594000000E+02  0.51100000000E-03 0.  1.
         11   -1    0    0    0    0 -0.00000000000E+00 -0.00000000000E+00 -0.45593999997E+02  0.45594000000E+02  0.51100000000E-03 0. -1.
    9900012    2    1    2    0    0  0.20486267517E+02 -0.23565695902E+02  0.64569691652E+01  0.59301927320E+02  0.49999969530E+02 0.  0.
        -12    1    1    2    0    0 -0.20486267517E+02  0.23565695902E+02 -0.64569691652E+01  0.31886072680E+02  0.00000000000E+00 0.  1.
         11    1    3    3    0    0  0.29160943270E+02 -0.85733457367E+01  0.80228643591E+01  0.31436113346E+02  0.51100000000E-03 0. -1.
        -11    1    3    3    0    0  0.42004603679E+01 -0.30430008617E+01 -0.76790662082E+01  0.92667027382E+01  0.51100000000E-03 0.  1.
        -12    1    3    3    0    0 -0.12875136121E+02 -0.11949349304E+02  0.61131710144E+01  0.18599111236E+02  0.00000000000E+00 0.  1.
</event>
<event>
 7    1  0.1290195E-011  0.5930193E+02  0.7816164E-02  0.1266605E+00
        -11   -1    0    0    0    0  0.00000000000E+00  0.00000000000E+00  0.45593999997E+02  0.45594000000E+02  0.51100000000E-03 0. -1.
         11   -1    0    0    0    0 -0.00000000000E+00 -0.00000000000E+00 -0.45593999997E+02  0.45594000000E+02  0.51100000000E-03 0.  1.
    9900012    2    1    2    0    0 -0.31552995202E+02 -0.22497784492E+00  0.45912143672E+01  0.59301931402E+02  0.49999976974E+02 0.  0.
        -12    1    1    2    0    0  0.31552995202E+02  0.22497784492E+00 -0.45912143672E+01  0.31886068598E+02  0.00000000000E+00 0.  1.
         11    1    3    3    0    0 -0.12790060161E+01  0.18887357587E+02 -0.26025502681E+01  0.19108673454E+02  0.51100000000E-03 0. -1.
        -11    1    3    3    0    0 -0.67735956274E+01  0.18763652282E+01  0.49659033073E+01  0.86059595695E+01  0.51100000000E-03 0.  1.
        -12    1    3    3    0    0 -0.23500393559E+02 -0.20988700660E+02  0.22278613279E+01  0.31587298379E+02  0.00000000000E+00 0.  1.
</event>
<event>
 7    1  0.1290195E-011  0.5930193E+02  0.7816164E-02  0.1266605E+00
        -11   -1    0    0    0    0  0.00000000000E+00  0.00000000000E+00  0.45593999997E+02  0.45594000000E+02  0.51100000000E-03 0.  1.
         11   -1    0    0    0    0 -0.00000000000E+00 -0.00000000000E+00 -0.45593999997E+02  0.45594000000E+02  0.51100000000E-03 0. -1.
    9900012    2    1    2    0    0  0.17198123258E+02 -0.24531796381E+02 -0.10914977514E+02  0.59301933899E+02  0.49999981527E+02 0.  0.
        -12    1    1    2    0    0 -0.17198123258E+02  0.24531796381E+02  0.10914977514E+02  0.31886066101E+02  0.00000000000E+00 0.  1.
         11    1    3    3    0    0  0.57371112428E+01 -0.14393712101E+02 -0.13964170114E+01  0.15557743223E+02  0.51100000000E-03 0. -1.
        -11    1    3    3    0    0 -0.11067496243E+02 -0.12699109830E+02 -0.12360022648E+02  0.20893229135E+02  0.51100000000E-03 0.  1.
        -12    1    3    3    0    0  0.22528508258E+02  0.25610255501E+01  0.28414621457E+01  0.22850961541E+02  0.00000000000E+00 0.  1.
</event>
<event>
 7    1  0.1290195E-011  0.5930196E+02  0.7816164E-02  0.1266605E+00
        -11   -1    0    0    0    0  0.00000000000E+00  0.00000000000E+00  0.45593999997E+02  0.45594000000E+02  0.51100000000E-03 0.  1.
         11   -1    0    0    0    0 -0.00000000000E+00 -0.00000000000E+00 -0.45593999997E+02  0.45594000000E+02  0.51100000000E-03 0. -1.
    9900012    2    1    2    0    0  0.69992240641E+01 -0.17280122807E+02 -0.25867505140E+02  0.59301959106E+02  0.50000027498E+02 0.  0.
        -12    1    1    2    0    0 -0.69992240641E+01  0.17280122807E+02  0.25867505140E+02  0.31886040894E+02  0.00000000000E+00 0.  1.
         11    1    3    3    0    0  0.31229944863E+01 -0.23413242134E+02 -0.43075896304E+01  0.24010171396E+02  0.51100000000E-03 0. -1.
        -11    1    3    3    0    0 -0.32720064044E+01  0.33276940102E+01  0.54711295122E+01  0.71911634480E+01  0.51100000000E-03 0.  1.
         12    1    3    3    0    0  0.71482359821E+01  0.28054253168E+01 -0.27031045022E+02  0.28100624261E+02  0.00000000000E+00 0. -1.
</event>
<event>
 7    1  0.1290195E-011  0.5930196E+02  0.7816164E-02  0.1266605E+00
        -11   -1    0    0    0    0  0.00000000000E+00  0.00000000000E+00  0.45593999997E+02  0.45594000000E+02  0.51100000000E-03 0. -1.
         11   -1    0    0    0    0 -0.00000000000E+00 -0.00000000000E+00 -0.45593999997E+02  0.45594000000E+02  0.51100000000E-03 0.  1.
    9900012    2    1    2    0    0 -0.46045911138E+01  0.27198420331E+02  0.15992599925E+02  0.59301959478E+02  0.50000028177E+02 0.  0.
        -12    1    1    2    0    0  0.46045911138E+01 -0.27198420331E+02 -0.15992599925E+02  0.31886040522E+02  0.00000000000E+00 0.  1.
         11    1    3    3    0    0  0.24173410142E+00  0.56805089347E+01  0.90995533657E+01  0.10729794446E+02  0.51100000000E-03 0. -1.
        -11    1    3    3    0    0  0.56736169982E+01  0.32397146011E+02  0.58139583540E+01  0.33400106459E+02  0.51100000000E-03 0.  1.
         12    1    3    3    0    0 -0.10519942213E+02 -0.10879234614E+02  0.10790882051E+01  0.15172058572E+02  0.00000000000E+00 0. -1.
</event>
<event>
 7    1  0.1290195E-011  0.5930195E+02  0.7816164E-02  0.1266605E+00
        -11   -1    0    0    0    0  0.00000000000E+00  0.00000000000E+00  0.45593999997E+02  0.45594000000E+02  0.51100000000E-03 0.  1.
         11   -1    0    0    0    0 -0.00000000000E+00 -0.00000000000E+00 -0.45593999997E+02  0.45594000000E+02  0.51100000000E-03 0. -1.
    9900012    2    1    2    0    0 -0.11272991905E+01 -0.27590940139E+02 -0.15943322782E+02  0.59301947837E+02  0.50000006948E+02 0.  0.
        -12    1    1    2    0    0  0.11272991905E+01  0.27590940139E+02  0.15943322782E+02  0.31886052163E+02  0.00000000000E+00 0.  1.
         11    1    3    3    0    0 -0.16681038660E+02 -0.13439281936E+02 -0.19261879859E+02  0.28807835144E+02  0.51100000000E-03 0. -1.
        -11    1    3    3    0    0  0.46375375739E+01 -0.17895611909E+02  0.24960523874E-02  0.18486743543E+02  0.51100000000E-03 0.  1.
         12    1    3    3    0    0  0.10916201896E+02  0.37439537064E+01  0.33160610254E+01  0.12007369150E+02  0.00000000000E+00 0. -1.
</event>
<event>
 7    1  0.1290195E-011  0.5930200E+02  0.7816164E-02  0.1266605E+00
        -11   -1    0    0    0    0  0.00000000000E+00  0.00000000000E+00  0.45593999997E+02  0.45594000000E+02  0.51100000000E-03 0. -1.
         11   -1    0    0    0    0 -0.00000000000E+00 -0.00000000000E+00 -0.45593999997E+02  0.45594000000E+02  0.51100000000E-03 0.  1.
    9900012    2    1    2    0    0 -0.24092009721E+02 -0.12456682325E+02 -0.16766723185E+02  0.59302001924E+02  0.50000105588E+02 0.  0.
        -12    1    1    2    0    0  0.24092009721E+02  0.12456682325E+02  0.16766723185E+02  0.31885998076E+02  0.00000000000E+00 0.  1.
         11    1    3    3    0    0 -0.39584332469E+01 -0.63854025602E-01  0.13608581055E+02  0.14172746724E+02  0.51100000000E-03 0. -1.
        -11    1    3    3    0    0  0.35278913072E+00 -0.46110747166E+01  0.27727695246E+01  0.53920980435E+01  0.51100000000E-03 0.  1.
        -12    1    3    3    0    0 -0.20486365605E+02 -0.77817535830E+01 -0.33148073765E+02  0.39737157156E+02  0.00000000000E+00 0.  1.
</event>
<event>
 7    1  0.1290195E-011  0.5930194E+02  0.7816164E-02  0.1266605E+00
        -11   -1    0    0    0    0  0.00000000000E+00  0.00000000000E+00  0.45593999997E+02  0.45594000000E+02  0.51100000000E-03 0. -1.
         11   -1    0    0    0    0 -0.00000000000E+00 -0.00000000000E+00 -0.45593999997E+02  0.45594000000E+02  0.51100000000E-03 0.  1.
    9900012    2    1    2    0    0  0.82895791523E+01 -0.65841176082E+01  0.30077452055E+02  0.59301939577E+02  0.49999991882E+02 0.  0.
        -12    1    1    2    0    0 -0.82895791523E+01  0.65841176082E+01 -0.30077452055E+02  0.31886060423E+02  0.00000000000E+00 0.  1.
         11    1    3    3    0    0  0.12347910482E+01  0.18109805403E+01 -0.57402958054E+01  0.61445386844E+01  0.51100000000E-03 0.  1.
        -11    1    3    3    0    0 -0.29064906043E+01 -0.19628741841E+02  0.32021085919E+02  0.37670746443E+02  0.51100000000E-03 0. -1.
         12    1    3    3    0    0  0.99612787084E+01  0.11233643693E+02  0.37966619411E+01  0.15486654449E+02  0.00000000000E+00 0. -1.
</event>
<event>
 7    1  0.1290195E-011  0.5930193E+02  0.7816164E-02  0.1266605E+00
        -11   -1    0    0    0    0  0.00000000000E+00  0.00000000000E+00  0.45593999997E+02  0.45594000000E+02  0.51100000000E-03 0.  1.
         11   -1    0    0    0    0 -0.00000000000E+00 -0.00000000000E+00 -0.45593999997E+02  0.45594000000E+02  0.51100000000E-03 0. -1.
    9900012    2    1    2    0    0 -0.10151468638E+01 -0.72127864922E+01 -0.31042977575E+02  0.59301932998E+02  0.49999979884E+02 0.  0.
        -12    1    1    2    0    0  0.10151468638E+01  0.72127864922E+01  0.31042977575E+02  0.31886067002E+02  0.00000000000E+00 0.  1.
         11    1    3    3    0    0 -0.95583542957E+00 -0.50420082410E+01  0.25141229534E+01  0.57145676088E+01  0.51100000000E-03 0.  1.
        -11    1    3    3    0    0  0.66673618430E+01  0.17570694367E+02 -0.24428597469E+02  0.30821086760E+02  0.51100000000E-03 0. -1.
         12    1    3    3    0    0 -0.67266732772E+01 -0.19741472619E+02 -0.91285030597E+01  0.22766278630E+02  0.00000000000E+00 0. -1.
</event>
<event>
 7    1  0.1290195E-011  0.5930186E+02  0.7816164E-02  0.1266605E+00
        -11   -1    0    0    0    0  0.00000000000E+00  0.00000000000E+00  0.45593999997E+02  0.45594000000E+02  0.51100000000E-03 0. -1.
         11   -1    0    0    0    0 -0.00000000000E+00 -0.00000000000E+00 -0.45593999997E+02  0.45594000000E+02  0.51100000000E-03 0.  1.
    9900012    2    1    2    0    0  0.51454915506E+01  0.24211998476E+02  0.20100471332E+02  0.59301860357E+02  0.49999847405E+02 0.  0.
        -12    1    1    2    0    0 -0.51454915506E+01 -0.24211998476E+02 -0.20100471332E+02  0.31886139643E+02  0.00000000000E+00 0.  1.
         11    1    3    3    0    0 -0.52875928204E+01  0.71619375699E+00  0.11245094781E+02  0.12446836073E+02  0.51100000000E-03 0. -1.
        -11    1    3    3    0    0 -0.14137541018E+02  0.12747621232E+02  0.55804726575E+01  0.19837176927E+02  0.51100000000E-03 0.  1.
        -12    1    3    3    0    0  0.24570625389E+02  0.10748183488E+02  0.32749038943E+01  0.27017847357E+02  0.00000000000E+00 0.  1.
</event>
<event>
 7    1  0.1290195E-011  0.5930188E+02  0.7816164E-02  0.1266605E+00
        -11   -1    0    0    0    0  0.00000000000E+00  0.00000000000E+00  0.45593999997E+02  0.45594000000E+02  0.51100000000E-03 0.  1.
         11   -1    0    0    0    0 -0.00000000000E+00 -0.00000000000E+00 -0.45593999997E+02  0.45594000000E+02  0.51100000000E-03 0. -1.
    9900012    2    1    2    0    0 -0.17842931624E+02 -0.25431864298E+02 -0.71815367432E+01  0.59301883889E+02  0.49999890322E+02 0.  0.
        -12    1    1    2    0    0  0.17842931624E+02  0.25431864298E+02  0.71815367432E+01  0.31886116111E+02  0.00000000000E+00 0.  1.
         11    1    3    3    0    0 -0.16899750885E+02 -0.24123527159E+02  0.62538542154E+00  0.29460774765E+02  0.51100000000E-03 0. -1.
        -11    1    3    3    0    0  0.82603818166E+01 -0.11486534751E+02 -0.77222724771E+01  0.16118557033E+02  0.51100000000E-03 0.  1.
        -12    1    3    3    0    0 -0.92035625556E+01  0.10178197612E+02 -0.84649687603E-01  0.13722552092E+02  0.00000000000E+00 0.  1.
</event>
<event>
 7    1  0.1290195E-011  0.5930196E+02  0.7816164E-02  0.1266605E+00
        -11   -1    0    0    0    0  0.00000000000E+00  0.00000000000E+00  0.45593999997E+02  0.45594000000E+02  0.51100000000E-03 0.  1.
         11   -1    0    0    0    0 -0.00000000000E+00 -0.00000000000E+00 -0.45593999997E+02  0.45594000000E+02  0.51100000000E-03 0. -1.
    9900012    2    1    2    0    0 -0.24752344843E+02 -0.19773993798E+02  0.36097322340E+01  0.59301959594E+02  0.50000028390E+02 0.  0.
        -12    1    1    2    0    0  0.24752344843E+02  0.19773993798E+02 -0.36097322340E+01  0.31886040406E+02  0.00000000000E+00 0.  1.
         11    1    3    3    0    0  0.82284040999E+01 -0.87055151089E+01  0.11031102047E+02  0.16284281991E+02  0.51100000000E-03 0. -1.
        -11    1    3    3    0    0 -0.13211562026E+02 -0.64294858675E+01  0.87128709817E+01  0.17082089471E+02  0.51100000000E-03 0.  1.
         12    1    3    3    0    0 -0.19769186917E+02 -0.46389928215E+01 -0.16134240794E+02  0.25935588132E+02  0.00000000000E+00 0. -1.
</event>
<event>
 7    1  0.1290195E-011  0.5930196E+02  0.7816164E-02  0.1266605E+00
        -11   -1    0    0    0    0  0.00000000000E+00  0.00000000000E+00  0.45593999997E+02  0.45594000000E+02  0.51100000000E-03 0.  1.
         11   -1    0    0    0    0 -0.00000000000E+00 -0.00000000000E+00 -0.45593999997E+02  0.45594000000E+02  0.51100000000E-03 0. -1.
    9900012    2    1    2    0    0 -0.18815604354E+02 -0.97004281231E+00 -0.25724536564E+02  0.59301957102E+02  0.50000023844E+02 0.  0.
        -12    1    1    2    0    0  0.18815604354E+02  0.97004281231E+00  0.25724536564E+02  0.31886042898E+02  0.00000000000E+00 0.  1.
         11    1    3    3    0    0 -0.55176400949E+01 -0.22537965345E+02 -0.20180620053E+02  0.30751612317E+02  0.51100000000E-03 0. -1.
        -11    1    3    3    0    0 -0.84805731082E+01  0.40746064806E+01  0.51020724962E+00  0.94224651718E+01  0.51100000000E-03 0.  1.
        -12    1    3    3    0    0 -0.48173911506E+01  0.17493316052E+02 -0.60541237614E+01  0.19127879614E+02  0.00000000000E+00 0.  1.
</event>
<event>
 7    1  0.1290195E-011  0.5930196E+02  0.7816164E-02  0.1266605E+00
        -11   -1    0    0    0    0  0.00000000000E+00  0.00000000000E+00  0.45593999997E+02  0.45594000000E+02  0.51100000000E-03 0.  1.
         11   -1    0    0    0    0 -0.00000000000E+00 -0.00000000000E+00 -0.45593999997E+02  0.45594000000E+02  0.51100000000E-03 0. -1.
    9900012    2    1    2    0    0 -0.92702336002E+01 -0.16791409446E+02 -0.25472157587E+02  0.59301961137E+02  0.50000031204E+02 0.  0.
        -12    1    1    2    0    0  0.92702336002E+01  0.16791409446E+02  0.25472157587E+02  0.31886038863E+02  0.00000000000E+00 0.  1.
         11    1    3    3    0    0  0.36203875215E+01 -0.12010268307E+02 -0.21867435577E+01  0.12733247750E+02  0.51100000000E-03 0. -1.
        -11    1    3    3    0    0 -0.53651854159E+01  0.49610359166E+00  0.10367047393E+02  0.11683621238E+02  0.51100000000E-03 0.  1.
         12    1    3    3    0    0 -0.75254357058E+01 -0.52772447307E+01 -0.33652461422E+02  0.34885092150E+02  0.00000000000E+00 0. -1.
</event>
<event>
 7    1  0.1290195E-011  0.5930188E+02  0.7816164E-02  0.1266605E+00
        -11   -1    0    0    0    0  0.00000000000E+00  0.00000000000E+00  0.45593999997E+02  0.45594000000E+02  0.51100000000E-03 0.  1.
         11   -1    0    0    0    0 -0.00000000000E+00 -0.00000000000E+00 -0.45593999997E+02  0.45594000000E+02  0.51100000000E-03 0. -1.
    9900012    2    1    2    0    0 -0.26606012105E+02  0.13234250260E+02 -0.11562832629E+02  0.59301884550E+02  0.49999891527E+02 0.  0.
        -12    1    1    2    0    0  0.26606012105E+02 -0.13234250260E+02  0.11562832629E+02  0.31886115450E+02  0.00000000000E+00 0.  1.
         11    1    3    3    0    0  0.11626346045E+01  0.10817157619E+02  0.42689011610E+01  0.11687007126E+02  0.51100000000E-03 0. -1.
        -11    1    3    3    0    0 -0.93949832454E+01  0.12264111728E+02  0.67702517962E+01  0.16867437751E+02  0.51100000000E-03 0.  1.
        -12    1    3    3    0    0 -0.18373663464E+02 -0.98470190866E+01 -0.22601985586E+02  0.30747439673E+02  0.00000000000E+00 0.  1.
</event>
<event>
 7    1  0.1290195E-011  0.5930199E+02  0.7816164E-02  0.1266605E+00
        -11   -1    0    0    0    0  0.00000000000E+00  0.00000000000E+00  0.45593999997E+02  0.45594000000E+02  0.51100000000E-03 0.  1.
         11   -1    0    0    0    0 -0.00000000000E+00 -0.00000000000E+00 -0.45593999997E+02  0.45594000000E+02  0.51100000000E-03 0. -1.
    9900012    2    1    2    0    0  0.32475034369E+01 -0.25011726691E+01 -0.31621445029E+02  0.59301985369E+02  0.50000075397E+02 0.  0.
        -12    1    1    2    0    0 -0.32475034369E+01  0.25011726691E+01  0.31621445029E+02  0.31886014631E+02  0.00000000000E+00 0.  1.
         11    1    3    3    0    0 -0.14475988601E+02  0.31431105894E+01 -0.63065358808E+01  0.16099869106E+02  0.51100000000E-03 0. -1.
        -11    1    3    3    0    0  0.78497564628E+01 -0.23393409945E+01 -0.30492645189E+02  0.31573606124E+02  0.51100000000E-03 0.  1.
        -12    1    3    3    0    0  0.98737355746E+01 -0.33049422640E+01  0.51777360403E+01  0.11628510140E+02  0.00000000000E+00 0.  1.
</event>
<event>
 7    1  0.1290195E-011  0.5930194E+02  0.7816164E-02  0.1266605E+00
        -11   -1    0    0    0    0  0.00000000000E+00  0.00000000000E+00  0.45593999997E+02  0.45594000000E+02  0.51100000000E-03 0.  1.
         11   -1    0    0    0    0 -0.00000000000E+00 -0.00000000000E+00 -0.45593999997E+02  0.45594000000E+02  0.51100000000E-03 0. -1.
    9900012    2    1    2    0    0 -0.22482868598E+02  0.93688352842E+01 -0.20578294599E+02  0.59301942489E+02  0.49999997194E+02 0.  0.
        -12    1    1    2    0    0  0.22482868598E+02 -0.93688352842E+01  0.20578294599E+02  0.31886057511E+02  0.00000000000E+00 0.  1.
         11    1    3    3    0    0 -0.22229796830E+02  0.15820747663E+02 -0.15634571087E+02  0.31446776259E+02  0.51100000000E-03 0. -1.
        -11    1    3    3    0    0 -0.29949905104E+01  0.49595591490E+01  0.83238371433E+01  0.10141669496E+02  0.51100000000E-03 0.  1.
        -12    1    3    3    0    0  0.27419187426E+01 -0.11411471528E+02 -0.13267560655E+02  0.17713496735E+02  0.00000000000E+00 0.  1.
</event>
<event>
 7    1  0.1290195E-011  0.5930192E+02  0.7816164E-02  0.1266605E+00
        -11   -1    0    0    0    0  0.00000000000E+00  0.00000000000E+00  0.45593999997E+02  0.45594000000E+02  0.51100000000E-03 0.  1.
         11   -1    0    0    0    0 -0.00000000000E+00 -0.00000000000E+00 -0.45593999997E+02  0.45594000000E+02  0.51100000000E-03 0. -1.
    9900012    2    1    2    0    0  0.69770968749E+01 -0.12583065933E+02 -0.28455379705E+02  0.59301920542E+02  0.49999957167E+02 0.  0.
        -12    1    1    2    0    0 -0.69770968749E+01  0.12583065933E+02  0.28455379705E+02  0.31886079458E+02  0.00000000000E+00 0.  1.
         11    1    3    3    0    0 -0.80661121894E+01  0.94743183948E+01 -0.61159219658E+01  0.13864680907E+02  0.51100000000E-03 0. -1.
        -11    1    3    3    0    0  0.52622557948E+01 -0.56400650905E+01 -0.24981568988E+02  0.26145371668E+02  0.51100000000E-03 0.  1.
        -12    1    3    3    0    0  0.97809532695E+01 -0.16417319238E+02  0.26421112493E+01  0.19291867967E+02  0.00000000000E+00 0.  1.
</event>
<event>
 7    1  0.1290195E-011  0.5930193E+02  0.7816164E-02  0.1266605E+00
        -11   -1    0    0    0    0  0.00000000000E+00  0.00000000000E+00  0.45593999997E+02  0.45594000000E+02  0.51100000000E-03 0. -1.
         11   -1    0    0    0    0 -0.00000000000E+00 -0.00000000000E+00 -0.45593999997E+02  0.45594000000E+02  0.51100000000E-03 0.  1.
    9900012    2    1    2    0    0  0.10282184467E+02 -0.30039300708E+02 -0.29391266502E+01  0.59301931414E+02  0.49999976995E+02 0.  0.
        -12    1    1    2    0    0 -0.10282184467E+02  0.30039300708E+02  0.29391266502E+01  0.31886068586E+02  0.00000000000E+00 0.  1.
         11    1    3    3    0    0  0.12761189594E+02 -0.54229523130E+01 -0.10061714601E+02  0.17131680380E+02  0.51100000000E-03 0. -1.
        -11    1    3    3    0    0  0.44039550921E+01 -0.21530872687E+02 -0.94802943903E+01  0.23934270014E+02  0.51100000000E-03 0.  1.
        -12    1    3    3    0    0 -0.68829602200E+01 -0.30854757082E+01  0.16602882341E+02  0.18235981020E+02  0.00000000000E+00 0.  1.
</event>
<event>
 7    1  0.1290195E-011  0.5930190E+02  0.7816164E-02  0.1266605E+00
        -11   -1    0    0    0    0  0.00000000000E+00  0.00000000000E+00  0.45593999997E+02  0.45594000000E+02  0.51100000000E-03 0.  1.
         11   -1    0    0    0    0 -0.00000000000E+00 -0.00000000000E+00 -0.45593999997E+02  0.45594000000E+02  0.51100000000E-03 0. -1.
    9900012    2    1    2    0    0  0.51412258987E+01  0.20251410662E+02 -0.24086751677E+02  0.59301898892E+02  0.49999917683E+02 0.  0.
        -12    1    1    2    0    0 -0.51412258987E+01 -0.20251410662E+02  0.24086751677E+02  0.31886101108E+02  0.00000000000E+00 0.  1.
         11    1    3    3    0    0  0.33216201385E+01  0.11398656656E+02 -0.16309785882E+02  0.20173538353E+02  0.51100000000E-03 0. -1.
        -11    1    3    3    0    0 -0.12461538476E+02  0.17532798216E+02 -0.59419617124E+01  0.22315820929E+02  0.51100000000E-03 0.  1.
        -12    1    3    3    0    0  0.14281144236E+02 -0.86800442090E+01 -0.18350040826E+01  0.16812539610E+02  0.00000000000E+00 0.  1.
</event>
<event>
 7    1  0.1290195E-011  0.5930227E+02  0.7816164E-02  0.1266604E+00
        -11   -1    0    0    0    0  0.00000000000E+00  0.00000000000E+00  0.45593999997E+02  0.45594000000E+02  0.51100000000E-03 0. -1.
         11   -1    0    0    0    0 -0.00000000000E+00 -0.00000000000E+00 -0.45593999997E+02  0.45594000000E+02  0.51100000000E-03 0.  1.
    9900012    2    1    2    0    0 -0.19920982053E+02 -0.30139879035E+01  0.24713761331E+02  0.59302272030E+02  0.50000598194E+02 0.  0.
        -12    1    1    2    0    0  0.19920982053E+02  0.30139879035E+01 -0.24713761331E+02  0.31885727970E+02  0.00000000000E+00 0.  1.
         11    1    3    3    0    0  0.22428144081E+01  0.11686394620E+02  0.12522873692E+02  0.17274964586E+02  0.51100000000E-03 0. -1.
        -11    1    3    3    0    0 -0.50597487779E+01 -0.16091199082E+02  0.17260071800E+02  0.24133748661E+02  0.51100000000E-03 0.  1.
         12    1    3    3    0    0 -0.17104047684E+02  0.13908165586E+01 -0.50691841612E+01  0.17893558783E+02  0.00000000000E+00 0. -1.
</event>
<event>
 7    1  0.1290195E-011  0.5930194E+02  0.7816164E-02  0.1266605E+00
        -11   -1    0    0    0    0  0.00000000000E+00  0.00000000000E+00  0.45593999997E+02  0.45594000000E+02  0.51100000000E-03 0.  1.
         11   -1    0    0    0    0 -0.00000000000E+00 -0.00000000000E+00 -0.45593999997E+02  0.45594000000E+02  0.51100000000E-03 0. -1.
    9900012    2    1    2    0    0  0.19677063024E+02 -0.25817363454E+01 -0.24957331882E+02  0.59301943699E+02  0.49999999400E+02 0.  0.
        -12    1    1    2    0    0 -0.19677063024E+02  0.25817363454E+01  0.24957331882E+02  0.31886056301E+02  0.00000000000E+00 0.  1.
         11    1    3    3    0    0  0.13277212691E+02  0.30169318226E+01 -0.17555512444E+01  0.13728372624E+02  0.51100000000E-03 0. -1.
        -11    1    3    3    0    0  0.18876792473E+02  0.80719321927E+01 -0.14414115168E+02  0.25084977570E+02  0.51100000000E-03 0.  1.
        -12    1    3    3    0    0 -0.12476942140E+02 -0.13670600361E+02 -0.87876654698E+01  0.20488593504E+02  0.00000000000E+00 0.  1.
</event>
<event>
 7    1  0.1290195E-011  0.5930195E+02  0.7816164E-02  0.1266605E+00
        -11   -1    0    0    0    0  0.00000000000E+00  0.00000000000E+00  0.45593999997E+02  0.45594000000E+02  0.51100000000E-03 0.  1.
         11   -1    0    0    0    0 -0.00000000000E+00 -0.00000000000E+00 -0.45593999997E+02  0.45594000000E+02  0.51100000000E-03 0. -1.
    9900012    2    1    2    0    0  0.16908544263E+02  0.58590600283E+01 -0.26391144606E+02  0.59301953410E+02  0.50000017112E+02 0.  0.
        -12    1    1    2    0    0 -0.16908544263E+02 -0.58590600283E+01  0.26391144606E+02  0.31886046590E+02  0.00000000000E+00 0.  1.
         11    1    3    3    0    0  0.19890299820E+02  0.13155771515E+02 -0.19113650388E+02  0.30561904105E+02  0.51100000000E-03 0. -1.
        -11    1    3    3    0    0  0.86611652882E+01 -0.73215367639E+01  0.44793921448E+01  0.12193672088E+02  0.51100000000E-03 0.  1.
         12    1    3    3    0    0 -0.11642920845E+02  0.24825277564E-01 -0.11756886363E+02  0.16546377218E+02  0.00000000000E+00 0. -1.
</event>
<event>
 7    1  0.1290195E-011  0.5930175E+02  0.7816164E-02  0.1266605E+00
        -11   -1    0    0    0    0  0.00000000000E+00  0.00000000000E+00  0.45593999997E+02  0.45594000000E+02  0.51100000000E-03 0. -1.
         11   -1    0    0    0    0 -0.00000000000E+00 -0.00000000000E+00 -0.45593999997E+02  0.45594000000E+02  0.51100000000E-03 0.  1.
    9900012    2    1    2    0    0  0.57908137168E+00  0.31174927125E+02 -0.66724605625E+01  0.59301746748E+02  0.49999640208E+02 0.  0.
        -12    1    1    2    0    0 -0.57908137168E+00 -0.31174927125E+02  0.66724605625E+01  0.31886253252E+02  0.00000000000E+00 0.  1.
         11    1    3    3    0    0 -0.17061292899E+01  0.89889106692E+01  0.45941950840E+01  0.10238067245E+02  0.51100000000E-03 0. -1.
        -11    1    3    3    0    0  0.12524483166E+02  0.28895152926E+01  0.11690088477E+02  0.17374410668E+02  0.51100000000E-03 0.  1.
         12    1    3    3    0    0 -0.10239272505E+02  0.19296501163E+02 -0.22956744123E+02  0.31689268835E+02  0.00000000000E+00 0. -1.
</event>
<event>
 7    1  0.1290195E-011  0.5930194E+02  0.7816164E-02  0.1266605E+00
        -11   -1    0    0    0    0  0.00000000000E+00  0.00000000000E+00  0.45593999997E+02  0.45594000000E+02  0.51100000000E-03 0.  1.
         11   -1    0    0    0    0 -0.00000000000E+00 -0.00000000000E+00 -0.45593999997E+02  0.45594000000E+02  0.51100000000E-03 0. -1.
    9900012    2    1    2    0    0 -0.47873202654E+01 -0.26856908055E+02 -0.16507841982E+02  0.59301940467E+02  0.49999993506E+02 0.  0.
        -12    1    1    2    0    0  0.47873202654E+01  0.26856908055E+02  0.16507841982E+02  0.31886059533E+02  0.00000000000E+00 0.  1.
         11    1    3    3    0    0 -0.30050171133E+01 -0.12205189103E+02 -0.12458678468E+02  0.17697893613E+02  0.51100000000E-03 0. -1.
        -11    1    3    3    0    0  0.20496063201E+01 -0.26022787498E+02 -0.10314651695E+02  0.28067390243E+02  0.51100000000E-03 0.  1.
         12    1    3    3    0    0 -0.38319094723E+01  0.11371068546E+02  0.62654881807E+01  0.13536656611E+02  0.00000000000E+00 0. -1.
</event>
<event>
 7    1  0.1290195E-011  0.5930195E+02  0.7816164E-02  0.1266605E+00
        -11   -1    0    0    0    0  0.00000000000E+00  0.00000000000E+00  0.45593999997E+02  0.45594000000E+02  0.51100000000E-03 0.  1.
         11   -1    0    0    0    0 -0.00000000000E+00 -0.00000000000E+00 -0.45593999997E+02  0.45594000000E+02  0.51100000000E-03 0. -1.
    9900012    2    1    2    0    0 -0.25857765789E+02 -0.78179378070E+01 -0.16940356221E+02  0.59301954901E+02  0.50000019830E+02 0.  0.
        -12    1    1    2    0    0  0.25857765789E+02  0.78179378070E+01  0.16940356221E+02  0.31886045099E+02  0.00000000000E+00 0.  1.
         11    1    3    3    0    0 -0.14307932256E+02 -0.10071681538E+01 -0.12511497277E+01  0.14397801534E+02  0.51100000000E-03 0.  1.
        -11    1    3    3    0    0 -0.16083956380E+02  0.51353809295E+01  0.74631968168E+01  0.18459823865E+02  0.51100000000E-03 0. -1.
         12    1    3    3    0    0  0.45341228468E+01 -0.11946150583E+02 -0.23152403310E+02  0.26444329501E+02  0.00000000000E+00 0. -1.
</event>
<event>
 7    1  0.1290195E-011  0.5930193E+02  0.7816164E-02  0.1266605E+00
        -11   -1    0    0    0    0  0.00000000000E+00  0.00000000000E+00  0.45593999997E+02  0.45594000000E+02  0.51100000000E-03 0.  1.
         11   -1    0    0    0    0 -0.00000000000E+00 -0.00000000000E+00 -0.45593999997E+02  0.45594000000E+02  0.51100000000E-03 0. -1.
    9900012    2    1    2    0    0 -0.64802390908E+01  0.18834065412E+02 -0.24899912835E+02  0.59301934426E+02  0.49999982489E+02 0.  0.
        -12    1    1    2    0    0  0.64802390908E+01 -0.18834065412E+02  0.24899912835E+02  0.31886065574E+02  0.00000000000E+00 0.  1.
         11    1    3    3    0    0 -0.56975073693E+01 -0.10505580292E+02 -0.93215186192E+01  0.15156500821E+02  0.51100000000E-03 0.  1.
        -11    1    3    3    0    0  0.86528566801E+01 -0.25520088992E+00 -0.88154742603E+01  0.12355146414E+02  0.51100000000E-03 0. -1.
        -12    1    3    3    0    0 -0.94355884017E+01  0.29594846594E+02 -0.67629199552E+01  0.31790287191E+02  0.00000000000E+00 0.  1.
</event>
<event>
 7    1  0.1290195E-011  0.5930196E+02  0.7816164E-02  0.1266605E+00
        -11   -1    0    0    0    0  0.00000000000E+00  0.00000000000E+00  0.45593999997E+02  0.45594000000E+02  0.51100000000E-03 0.  1.
         11   -1    0    0    0    0 -0.00000000000E+00 -0.00000000000E+00 -0.45593999997E+02  0.45594000000E+02  0.51100000000E-03 0. -1.
    9900012    2    1    2    0    0  0.32934358718E+01 -0.22196707233E+02 -0.22653458916E+02  0.59301957086E+02  0.50000023816E+02 0.  0.
        -12    1    1    2    0    0 -0.32934358718E+01  0.22196707233E+02  0.22653458916E+02  0.31886042914E+02  0.00000000000E+00 0.  1.
         11    1    3    3    0    0  0.50143078866E+01 -0.23735987436E+02 -0.27097501226E+00  0.24261364571E+02  0.51100000000E-03 0. -1.
        -11    1    3    3    0    0  0.92848352596E+01 -0.26748250616E+01  0.92911358041E-01  0.96628923045E+01  0.51100000000E-03 0.  1.
         12    1    3    3    0    0 -0.11005707274E+02  0.42141052650E+01 -0.22475395262E+02  0.25377700211E+02  0.00000000000E+00 0. -1.
</event>
<event>
 7    1  0.1290195E-011  0.5930200E+02  0.7816164E-02  0.1266605E+00
        -11   -1    0    0    0    0  0.00000000000E+00  0.00000000000E+00  0.45593999997E+02  0.45594000000E+02  0.51100000000E-03 0.  1.
         11   -1    0    0    0    0 -0.00000000000E+00 -0.00000000000E+00 -0.45593999997E+02  0.45594000000E+02  0.51100000000E-03 0. -1.
    9900012    2    1    2    0    0 -0.42517755794E+01  0.27325717279E+02 -0.15872761392E+02  0.59302000335E+02  0.50000102691E+02 0.  0.
        -12    1    1    2    0    0  0.42517755794E+01 -0.27325717279E+02  0.15872761392E+02  0.31885999665E+02  0.00000000000E+00 0.  1.
         11    1    3    3    0    0  0.97618364670E+01 -0.16515042975E+01  0.21026486927E+01  0.10121365987E+02  0.51100000000E-03 0. -1.
        -11    1    3    3    0    0 -0.19370775950E+02  0.13515352421E+02  0.15913149409E+01  0.23673275977E+02  0.51100000000E-03 0.  1.
         12    1    3    3    0    0  0.53571639035E+01  0.15461869155E+02 -0.19566725026E+02  0.25507358372E+02  0.00000000000E+00 0. -1.
</event>
<event>
 7    1  0.1290195E-011  0.5930195E+02  0.7816164E-02  0.1266605E+00
        -11   -1    0    0    0    0  0.00000000000E+00  0.00000000000E+00  0.45593999997E+02  0.45594000000E+02  0.51100000000E-03 0.  1.
         11   -1    0    0    0    0 -0.00000000000E+00 -0.00000000000E+00 -0.45593999997E+02  0.45594000000E+02  0.51100000000E-03 0. -1.
    9900012    2    1    2    0    0 -0.19544444730E+02  0.88160964262E+01 -0.23601092898E+02  0.59301945651E+02  0.50000002960E+02 0.  0.
        -12    1    1    2    0    0  0.19544444730E+02 -0.88160964262E+01  0.23601092898E+02  0.31886054349E+02  0.00000000000E+00 0.  1.
         11    1    3    3    0    0 -0.63061845926E+01  0.34370732188E+01 -0.28290975619E+02  0.29188366487E+02  0.51100000000E-03 0. -1.
        -11    1    3    3    0    0 -0.15976931360E+02 -0.67253506226E+01  0.26062213497E+01  0.17529548387E+02  0.51100000000E-03 0.  1.
        -12    1    3    3    0    0  0.27386712224E+01  0.12104373830E+02  0.20836613713E+01  0.12584030777E+02  0.00000000000E+00 0.  1.
</event>
<event>
 7    1  0.1290195E-011  0.5930216E+02  0.7816164E-02  0.1266604E+00
        -11   -1    0    0    0    0  0.00000000000E+00  0.00000000000E+00  0.45593999997E+02  0.45594000000E+02  0.51100000000E-03 0.  1.
         11   -1    0    0    0    0 -0.00000000000E+00 -0.00000000000E+00 -0.45593999997E+02  0.45594000000E+02  0.51100000000E-03 0. -1.
    9900012    2    1    2    0    0 -0.21936622707E+02 -0.67293207567E+01 -0.22140634457E+02  0.59302158819E+02  0.50000391726E+02 0.  0.
        -12    1    1    2    0    0  0.21936622707E+02  0.67293207567E+01  0.22140634457E+02  0.31885841181E+02  0.00000000000E+00 0.  1.
         11    1    3    3    0    0  0.17120082997E+01 -0.20857969052E+02 -0.98867243150E+01  0.23145910294E+02  0.51100000000E-03 0. -1.
        -11    1    3    3    0    0 -0.15877184387E+02 -0.14600257370E+01 -0.23424933254E+01  0.16115332279E+02  0.51100000000E-03 0.  1.
        -12    1    3    3    0    0 -0.77714466200E+01  0.15588674032E+02 -0.99114168170E+01  0.20040916246E+02  0.00000000000E+00 0.  1.
</event>
<event>
 7    1  0.1290195E-011  0.5930186E+02  0.7816164E-02  0.1266605E+00
        -11   -1    0    0    0    0  0.00000000000E+00  0.00000000000E+00  0.45593999997E+02  0.45594000000E+02  0.51100000000E-03 0.  1.
         11   -1    0    0    0    0 -0.00000000000E+00 -0.00000000000E+00 -0.45593999997E+02  0.45594000000E+02  0.51100000000E-03 0. -1.
    9900012    2    1    2    0    0  0.21460730138E+02  0.22197174298E+02 -0.79654644630E+01  0.59301857100E+02  0.49999841465E+02 0.  0.
        -12    1    1    2    0    0 -0.21460730138E+02 -0.22197174298E+02  0.79654644630E+01  0.31886142900E+02  0.00000000000E+00 0.  1.
         11    1    3    3    0    0  0.24355417741E+02  0.13660445164E+02 -0.57453255420E+01  0.28509698372E+02  0.51100000000E-03 0.  1.
        -11    1    3    3    0    0 -0.41560233266E+01  0.18161097146E+02  0.42725648326E+01  0.19114203879E+02  0.51100000000E-03 0. -1.
        -12    1    3    3    0    0  0.12613357240E+01 -0.96243680115E+01 -0.64927037536E+01  0.11677954849E+02  0.00000000000E+00 0.  1.
</event>
<event>
 7    1  0.1290195E-011  0.5930194E+02  0.7816164E-02  0.1266605E+00
        -11   -1    0    0    0    0  0.00000000000E+00  0.00000000000E+00  0.45593999997E+02  0.45594000000E+02  0.51100000000E-03 0. -1.
         11   -1    0    0    0    0 -0.00000000000E+00 -0.00000000000E+00 -0.45593999997E+02  0.45594000000E+02  0.51100000000E-03 0.  1.
    9900012    2    1    2    0    0  0.44546687515E+01 -0.18190263344E+02 -0.25806800443E+02  0.59301941866E+02  0.49999996057E+02 0.  0.
        -12    1    1    2    0    0 -0.44546687515E+01  0.18190263344E+02  0.25806800443E+02  0.31886058134E+02  0.00000000000E+00 0.  1.
         11    1    3    3    0    0 -0.12606020126E+02 -0.21160427274E+01  0.50194465037E+00  0.12792237058E+02  0.51100000000E-03 0. -1.
        -11    1    3    3    0    0  0.23217829822E+02 -0.19251474267E+02 -0.16148770830E+02  0.34212127713E+02  0.51100000000E-03 0.  1.
         12    1    3    3    0    0 -0.61571409441E+01  0.31772536503E+01 -0.10159974264E+02  0.12297577095E+02  0.00000000000E+00 0. -1.
</event>
<event>
 7    1  0.1290195E-011  0.5930194E+02  0.7816164E-02  0.1266605E+00
        -11   -1    0    0    0    0  0.00000000000E+00  0.00000000000E+00  0.45593999997E+02  0.45594000000E+02  0.51100000000E-03 0.  1.
         11   -1    0    0    0    0 -0.00000000000E+00 -0.00000000000E+00 -0.45593999997E+02  0.45594000000E+02  0.51100000000E-03 0. -1.
    9900012    2    1    2    0    0 -0.33044521337E+01 -0.29607431090E+02 -0.11366683215E+02  0.59301939300E+02  0.49999991378E+02 0.  0.
        -12    1    1    2    0    0  0.33044521337E+01  0.29607431090E+02  0.11366683215E+02  0.31886060700E+02  0.00000000000E+00 0.  1.
         11    1    3    3    0    0 -0.14153608080E+02 -0.15086485816E+01 -0.70146313918E+01  0.15868386687E+02  0.51100000000E-03 0. -1.
        -11    1    3    3    0    0 -0.52449654690E+01  0.41666705916E+01 -0.30318954314E+01  0.73527679658E+01  0.51100000000E-03 0.  1.
         12    1    3    3    0    0  0.16094121416E+02 -0.32265453100E+02 -0.13201563922E+01  0.36080784647E+02  0.00000000000E+00 0. -1.
</event>
<event>
 7    1  0.1290195E-011  0.5930196E+02  0.7816164E-02  0.1266605E+00
        -11   -1    0    0    0    0  0.00000000000E+00  0.00000000000E+00  0.45593999997E+02  0.45594000000E+02  0.51100000000E-03 0. -1.
         11   -1    0    0    0    0 -0.00000000000E+00 -0.00000000000E+00 -0.45593999997E+02  0.45594000000E+02  0.51100000000E-03 0.  1.
    9900012    2    1    2    0    0  0.45079420706E+01 -0.31445050614E+02 -0.27580190616E+01  0.59301962006E+02  0.50000032787E+02 0.  0.
        -12    1    1    2    0    0 -0.45079420706E+01  0.31445050614E+02  0.27580190616E+01  0.31886037994E+02  0.00000000000E+00 0.  1.
         11    1    3    3    0    0  0.53230039447E+01 -0.15579976979E+02  0.52150811187E+01  0.17270411836E+02  0.51100000000E-03 0. -1.
        -11    1    3    3    0    0  0.14138186526E+02 -0.43972560227E+01  0.84388919228E+01  0.17042273203E+02  0.51100000000E-03 0.  1.
        -12    1    3    3    0    0 -0.14953248400E+02 -0.11467817612E+02 -0.16411992103E+02  0.24989276966E+02  0.00000000000E+00 0.  1.
</event>
<event>
 7    1  0.1290195E-011  0.5930196E+02  0.7816164E-02  0.1266605E+00
        -11   -1    0    0    0    0  0.00000000000E+00  0.00000000000E+00  0.45593999997E+02  0.45594000000E+02  0.51100000000E-03 0.  1.
         11   -1    0    0    0    0 -0.00000000000E+00 -0.00000000000E+00 -0.45593999997E+02  0.45594000000E+02  0.51100000000E-03 0. -1.
    9900012    2    1    2    0    0 -0.25974920844E+02 -0.10407390774E+01  0.18464562433E+02  0.59301957339E+02  0.50000024277E+02 0.  0.
        -12    1    1    2    0    0  0.25974920844E+02  0.10407390774E+01 -0.18464562433E+02  0.31886042661E+02  0.00000000000E+00 0.  1.
         11    1    3    3    0    0 -0.20832534426E+02 -0.14923970968E+01 -0.61879109771E+01  0.21783295945E+02  0.51100000000E-03 0. -1.
        -11    1    3    3    0    0 -0.79526760667E+01 -0.12134903462E+02  0.83780647778E+01  0.16753892334E+02  0.51100000000E-03 0.  1.
         12    1    3    3    0    0  0.28102896479E+01  0.12586561481E+02  0.16274408633E+02  0.20764769061E+02  0.00000000000E+00 0. -1.
</event>
<event>
 7    1  0.1290195E-011  0.5930195E+02  0.7816164E-02  0.1266605E+00
        -11   -1    0    0    0    0  0.00000000000E+00  0.00000000000E+00  0.45593999997E+02  0.45594000000E+02  0.51100000000E-03 0.  1.
         11   -1    0    0    0    0 -0.00000000000E+00 -0.00000000000E+00 -0.45593999997E+02  0.45594000000E+02  0.51100000000E-03 0. -1.
    9900012    2    1    2    0    0  0.28885287677E+02 -0.71774701254E+01 -0.11438720941E+02  0.59301948844E+02  0.50000008783E+02 0.  0.
        -12    1    1    2    0    0 -0.28885287677E+02  0.71774701254E+01  0.11438720941E+02  0.31886051156E+02  0.00000000000E+00 0.  1.
         11    1    3    3    0    0  0.21245827007E+02 -0.14100793996E+02 -0.87457264811E+01  0.26957471849E+02  0.51100000000E-03 0. -1.
        -11    1    3    3    0    0  0.15378314934E+02 -0.33823437161E+01  0.59436739510E+01  0.16830332128E+02  0.51100000000E-03 0.  1.
         12    1    3    3    0    0 -0.77388542644E+01  0.10305667586E+02 -0.86366684107E+01  0.15514144867E+02  0.00000000000E+00 0. -1.
</event>
<event>
 7    1  0.1290195E-011  0.5930180E+02  0.7816164E-02  0.1266605E+00
        -11   -1    0    0    0    0  0.00000000000E+00  0.00000000000E+00  0.45593999997E+02  0.45594000000E+02  0.51100000000E-03 0. -1.
         11   -1    0    0    0    0 -0.00000000000E+00 -0.00000000000E+00 -0.45593999997E+02  0.45594000000E+02  0.51100000000E-03 0.  1.
    9900012    2    1    2    0    0  0.25902561088E+02 -0.15877061143E+02  0.96801819028E+01  0.59301801369E+02  0.49999739824E+02 0.  0.
        -12    1    1    2    0    0 -0.25902561088E+02  0.15877061143E+02 -0.96801819028E+01  0.31886198631E+02  0.00000000000E+00 0.  1.
         11    1    3    3    0    0  0.72084275046E+01  0.62108057262E+01 -0.16230337051E+01  0.96524490948E+01  0.51100000000E-03 0. -1.
        -11    1    3    3    0    0  0.93201283345E+01  0.10666318164E+02  0.17922364014E+01  0.14277508428E+02  0.51100000000E-03 0.  1.
         12    1    3    3    0    0  0.93740052490E+01 -0.32754185033E+02  0.95109792065E+01  0.35371843846E+02  0.00000000000E+00 0. -1.
</event>
<event>
 7    1  0.1290195E-011  0.5930194E+02  0.7816164E-02  0.1266605E+00
        -11   -1    0    0    0    0  0.00000000000E+00  0.00000000000E+00  0.45593999997E+02  0.45594000000E+02  0.51100000000E-03 0.  1.
         11   -1    0    0    0    0 -0.00000000000E+00 -0.00000000000E+00 -0.45593999997E+02  0.45594000000E+02  0.51100000000E-03 0. -1.
    9900012    2    1    2    0    0 -0.29779588396E+02 -0.23705866540E+01 -0.11147966161E+02  0.59301941673E+02  0.49999995705E+02 0.  0.
        -12    1    1    2    0    0  0.29779588396E+02  0.23705866540E+01  0.11147966161E+02  0.31886058327E+02  0.00000000000E+00 0.  1.
         11    1    3    3    0    0 -0.43757580509E+01 -0.52390448269E+01 -0.29594020241E+01  0.74399536168E+01  0.51100000000E-03 0. -1.
        -11    1    3    3    0    0 -0.13117696199E+02 -0.12744040970E+02  0.13287216951E+02  0.22606075917E+02  0.51100000000E-03 0.  1.
         12    1    3    3    0    0 -0.12286134146E+02  0.15612499143E+02 -0.21475781088E+02  0.29255912139E+02  0.00000000000E+00 0. -1.
</event>
<event>
 7    1  0.1290195E-011  0.5930224E+02  0.7816164E-02  0.1266604E+00
        -11   -1    0    0    0    0  0.00000000000E+00  0.00000000000E+00  0.45593999997E+02  0.45594000000E+02  0.51100000000E-03 0. -1.
         11   -1    0    0    0    0 -0.00000000000E+00 -0.00000000000E+00 -0.45593999997E+02  0.45594000000E+02  0.51100000000E-03 0.  1.
    9900012    2    1    2    0    0  0.16355865791E+02  0.39801121093E+01  0.27080366384E+02  0.59302237007E+02  0.50000534321E+02 0.  0.
        -12    1    1    2    0    0 -0.16355865791E+02 -0.39801121093E+01 -0.27080366384E+02  0.31885762993E+02  0.00000000000E+00 0.  1.
         11    1    3    3    0    0  0.71370088667E+01 -0.10672931193E+02  0.10723338627E+02  0.16728369538E+02  0.51100000000E-03 0. -1.
        -11    1    3    3    0    0 -0.11958271135E+02  0.20701159636E+01  0.12879087842E+02  0.17696229332E+02  0.51100000000E-03 0.  1.
        -12    1    3    3    0    0  0.21177128059E+02  0.12582927339E+02  0.34779399146E+01  0.24877638138E+02  0.00000000000E+00 0.  1.
</event>
<event>
 7    1  0.1290195E-011  0.5930194E+02  0.7816164E-02  0.1266605E+00
        -11   -1    0    0    0    0  0.00000000000E+00  0.00000000000E+00  0.45593999997E+02  0.45594000000E+02  0.51100000000E-03 0.  1.
         11   -1    0    0    0    0 -0.00000000000E+00 -0.00000000000E+00 -0.45593999997E+02  0.45594000000E+02  0.51100000000E-03 0. -1.
    9900012    2    1    2    0    0  0.42153000259E+01  0.23794737457E+02 -0.20802939585E+02  0.59301943794E+02  0.49999999574E+02 0.  0.
        -12    1    1    2    0    0 -0.42153000259E+01 -0.23794737457E+02  0.20802939585E+02  0.31886056206E+02  0.00000000000E+00 0.  1.
         11    1    3    3    0    0  0.32542298857E+01  0.80896430988E+01 -0.18186160327E+01  0.89072836572E+01  0.51100000000E-03 0. -1.
        -11    1    3    3    0    0 -0.11187394888E+02  0.21611645383E+02  0.30738341144E+01  0.24528951811E+02  0.51100000000E-03 0.  1.
         12    1    3    3    0    0  0.12148465028E+02 -0.59065510245E+01 -0.22058157667E+02  0.25865708326E+02  0.00000000000E+00 0. -1.
</event>
<event>
 7    1  0.1290195E-011  0.5930192E+02  0.7816164E-02  0.1266605E+00
        -11   -1    0    0    0    0  0.00000000000E+00  0.00000000000E+00  0.45593999997E+02  0.45594000000E+02  0.51100000000E-03 0.  1.
         11   -1    0    0    0    0 -0.00000000000E+00 -0.00000000000E+00 -0.45593999997E+02  0.45594000000E+02  0.51100000000E-03 0. -1.
    9900012    2    1    2    0    0 -0.23210637185E+02  0.11033129284E+02 -0.18874814416E+02  0.59301917777E+02  0.49999952125E+02 0.  0.
        -12    1    1    2    0    0  0.23210637185E+02 -0.11033129284E+02  0.18874814416E+02  0.31886082223E+02  0.00000000000E+00 0.  1.
         11    1    3    3    0    0 -0.55340745050E+01 -0.97854349211E+01 -0.16374927333E+02  0.19862501420E+02  0.51100000000E-03 0.  1.
        -11    1    3    3    0    0 -0.18907524140E+02  0.26245278154E+02  0.18154979214E+01  0.32397609903E+02  0.51100000000E-03 0. -1.
         12    1    3    3    0    0  0.12309614607E+01 -0.54267139487E+01 -0.43153850040E+01  0.70418064537E+01  0.00000000000E+00 0. -1.
</event>
<event>
 7    1  0.1290195E-011  0.5930192E+02  0.7816164E-02  0.1266605E+00
        -11   -1    0    0    0    0  0.00000000000E+00  0.00000000000E+00  0.45593999997E+02  0.45594000000E+02  0.51100000000E-03 0. -1.
         11   -1    0    0    0    0 -0.00000000000E+00 -0.00000000000E+00 -0.45593999997E+02  0.45594000000E+02  0.51100000000E-03 0.  1.
    9900012    2    1    2    0    0  0.90175208812E+01  0.24757893687E+02  0.17956971019E+02  0.59301924813E+02  0.49999964957E+02 0.  0.
        -12    1    1    2    0    0 -0.90175208812E+01 -0.24757893687E+02 -0.17956971019E+02  0.31886075187E+02  0.00000000000E+00 0.  1.
         11    1    3    3    0    0  0.14810918395E+02  0.97727097640E+01  0.24970069629E+02  0.30632883269E+02  0.51100000000E-03 0. -1.
        -11    1    3    3    0    0  0.29535919374E+01  0.18135548073E+02 -0.59375870424E+01  0.19310016815E+02  0.51100000000E-03 0.  1.
        -12    1    3    3    0    0 -0.87469894515E+01 -0.31503641496E+01 -0.10755115680E+01  0.93590247287E+01  0.00000000000E+00 0.  1.
</event>
<event>
 7    1  0.1290195E-011  0.5930195E+02  0.7816164E-02  0.1266605E+00
        -11   -1    0    0    0    0  0.00000000000E+00  0.00000000000E+00  0.45593999997E+02  0.45594000000E+02  0.51100000000E-03 0. -1.
         11   -1    0    0    0    0 -0.00000000000E+00 -0.00000000000E+00 -0.45593999997E+02  0.45594000000E+02  0.51100000000E-03 0.  1.
    9900012    2    1    2    0    0  0.39902435546E+01 -0.76742394431E+01  0.30690456280E+02  0.59301951306E+02  0.50000013274E+02 0.  0.
        -12    1    1    2    0    0 -0.39902435546E+01  0.76742394431E+01 -0.30690456280E+02  0.31886048694E+02  0.00000000000E+00 0.  1.
         11    1    3    3    0    0 -0.13761127919E+02  0.64923137578E+01  0.71607913196E+01  0.16816530918E+02  0.51100000000E-03 0. -1.
        -11    1    3    3    0    0  0.63547092556E+00 -0.85930694799E+01  0.22907208847E+02  0.24474167683E+02  0.51100000000E-03 0.  1.
        -12    1    3    3    0    0  0.17115900548E+02 -0.55734837211E+01  0.62245611363E+00  0.18011252705E+02  0.00000000000E+00 0.  1.
</event>
<event>
 7    1  0.1290195E-011  0.5930195E+02  0.7816164E-02  0.1266605E+00
        -11   -1    0    0    0    0  0.00000000000E+00  0.00000000000E+00  0.45593999997E+02  0.45594000000E+02  0.51100000000E-03 0.  1.
         11   -1    0    0    0    0 -0.00000000000E+00 -0.00000000000E+00 -0.45593999997E+02  0.45594000000E+02  0.51100000000E-03 0. -1.
    9900012    2    1    2    0    0  0.28899066683E+02  0.10901852800E+02  0.79192106633E+01  0.59301947451E+02  0.50000006244E+02 0.  0.
        -12    1    1    2    0    0 -0.28899066683E+02 -0.10901852800E+02 -0.79192106633E+01  0.31886052549E+02  0.00000000000E+00 0.  1.
         11    1    3    3    0    0  0.17682323000E+02  0.83027374214E+01 -0.28555675523E+01  0.19742194955E+02  0.51100000000E-03 0. -1.
        -11    1    3    3    0    0  0.17491615993E+02 -0.83300128689E+01  0.16751747312E+02  0.25611848483E+02  0.51100000000E-03 0.  1.
         12    1    3    3    0    0 -0.62748723100E+01  0.10929128248E+02 -0.59769690966E+01  0.13947904013E+02  0.00000000000E+00 0. -1.
</event>
<event>
 7    1  0.1290195E-011  0.5930197E+02  0.7816164E-02  0.1266605E+00
        -11   -1    0    0    0    0  0.00000000000E+00  0.00000000000E+00  0.45593999997E+02  0.45594000000E+02  0.51100000000E-03 0.  1.
         11   -1    0    0    0    0 -0.00000000000E+00 -0.00000000000E+00 -0.45593999997E+02  0.45594000000E+02  0.51100000000E-03 0. -1.
    9900012    2    1    2    0    0 -0.13535775140E+02 -0.23410057055E+02 -0.16895891402E+02  0.59301966596E+02  0.50000041160E+02 0.  0.
        -12    1    1    2    0    0  0.13535775140E+02  0.23410057055E+02  0.16895891402E+02  0.31886033404E+02  0.00000000000E+00 0.  1.
         11    1    3    3    0    0  0.74223233119E+01 -0.13442636276E+02  0.10912089629E+01  0.15394352557E+02  0.51100000000E-03 0. -1.
        -11    1    3    3    0    0 -0.66268018103E+00 -0.15900397855E+02  0.35164228123E+00  0.15918085611E+02  0.51100000000E-03 0.  1.
        -12    1    3    3    0    0 -0.20295418271E+02  0.59329770761E+01 -0.18338742646E+02  0.27989528428E+02  0.00000000000E+00 0.  1.
</event>
<event>
 7    1  0.1290195E-011  0.5930193E+02  0.7816164E-02  0.1266605E+00
        -11   -1    0    0    0    0  0.00000000000E+00  0.00000000000E+00  0.45593999997E+02  0.45594000000E+02  0.51100000000E-03 0.  1.
         11   -1    0    0    0    0 -0.00000000000E+00 -0.00000000000E+00 -0.45593999997E+02  0.45594000000E+02  0.51100000000E-03 0. -1.
    9900012    2    1    2    0    0  0.31265611161E+02  0.39734453635E+01 -0.48368157956E+01  0.59301929430E+02  0.49999973377E+02 0.  0.
        -12    1    1    2    0    0 -0.31265611161E+02 -0.39734453635E+01  0.48368157956E+01  0.31886070570E+02  0.00000000000E+00 0.  1.
         11    1    3    3    0    0  0.37614143661E+02  0.81850183559E+01  0.14934461075E+01  0.38523352792E+02  0.51100000000E-03 0. -1.
        -11    1    3    3    0    0  0.40973844264E+01  0.29110928471E+01  0.22417217113E+01  0.55034840959E+01  0.51100000000E-03 0.  1.
        -12    1    3    3    0    0 -0.10445916926E+02 -0.71226658395E+01 -0.85719836143E+01  0.15275092542E+02  0.00000000000E+00 0.  1.
</event>
<event>
 7    1  0.1290195E-011  0.5930194E+02  0.7816164E-02  0.1266605E+00
        -11   -1    0    0    0    0  0.00000000000E+00  0.00000000000E+00  0.45593999997E+02  0.45594000000E+02  0.51100000000E-03 0.  1.
         11   -1    0    0    0    0 -0.00000000000E+00 -0.00000000000E+00 -0.45593999997E+02  0.45594000000E+02  0.51100000000E-03 0. -1.
    9900012    2    1    2    0    0 -0.27336212965E+02  0.14476427903E+02 -0.77385558549E+01  0.59301941121E+02  0.49999994700E+02 0.  0.
        -12    1    1    2    0    0  0.27336212965E+02 -0.14476427903E+02  0.77385558549E+01  0.31886058879E+02  0.00000000000E+00 0.  1.
         11    1    3    3    0    0 -0.10383952827E+01 -0.64470678070E+01 -0.12956641540E+02  0.14509221492E+02  0.51100000000E-03 0. -1.
        -11    1    3    3    0    0 -0.51314456980E+01 -0.62337594239E+01 -0.41933103538E+01  0.90980955970E+01  0.51100000000E-03 0.  1.
        -12    1    3    3    0    0 -0.21166371984E+02  0.27157255134E+02  0.94113960385E+01  0.35694624032E+02  0.00000000000E+00 0.  1.
</event>
<event>
 7    1  0.1290195E-011  0.5930195E+02  0.7816164E-02  0.1266605E+00
        -11   -1    0    0    0    0  0.00000000000E+00  0.00000000000E+00  0.45593999997E+02  0.45594000000E+02  0.51100000000E-03 0. -1.
         11   -1    0    0    0    0 -0.00000000000E+00 -0.00000000000E+00 -0.45593999997E+02  0.45594000000E+02  0.51100000000E-03 0.  1.
    9900012    2    1    2    0    0  0.11003274910E+02 -0.24301789292E+02  0.17466293012E+02  0.59301946416E+02  0.50000004356E+02 0.  0.
        -12    1    1    2    0    0 -0.11003274910E+02  0.24301789292E+02 -0.17466293012E+02  0.31886053584E+02  0.00000000000E+00 0.  1.
         11    1    3    3    0    0 -0.63259568373E+00 -0.31978729732E+02  0.25005214348E+02  0.40599262030E+02  0.51100000000E-03 0. -1.
        -11    1    3    3    0    0  0.17028959600E+01 -0.22894014340E+01 -0.23807377260E+01  0.37160632337E+01  0.51100000000E-03 0.  1.
        -12    1    3    3    0    0  0.99329746333E+01  0.99663418735E+01 -0.51581836096E+01  0.14986621152E+02  0.00000000000E+00 0.  1.
</event>
<event>
 7    1  0.1290195E-011  0.5930193E+02  0.7816164E-02  0.1266605E+00
        -11   -1    0    0    0    0  0.00000000000E+00  0.00000000000E+00  0.45593999997E+02  0.45594000000E+02  0.51100000000E-03 0.  1.
         11   -1    0    0    0    0 -0.00000000000E+00 -0.00000000000E+00 -0.45593999997E+02  0.45594000000E+02  0.51100000000E-03 0. -1.
    9900012    2    1    2    0    0 -0.66801417332E+01 -0.30213149024E+02  0.76982235727E+01  0.59301932295E+02  0.49999978602E+02 0.  0.
        -12    1    1    2    0    0  0.66801417332E+01  0.30213149024E+02 -0.76982235727E+01  0.31886067705E+02  0.00000000000E+00 0.  1.
         11    1    3    3    0    0  0.26805136975E+01  0.22780611869E+01 -0.79039938595E+01  0.86514643642E+01  0.51100000000E-03 0. -1.
        -11    1    3    3    0    0  0.98029513642E+01 -0.11287104429E+01 -0.17243198613E+01  0.10017241235E+02  0.51100000000E-03 0.  1.
        -12    1    3    3    0    0 -0.19163606795E+02 -0.31362499768E+02  0.17326537294E+02  0.40633226696E+02  0.00000000000E+00 0.  1.
</event>
<event>
 7    1  0.1290195E-011  0.5930188E+02  0.7816164E-02  0.1266605E+00
        -11   -1    0    0    0    0  0.00000000000E+00  0.00000000000E+00  0.45593999997E+02  0.45594000000E+02  0.51100000000E-03 0.  1.
         11   -1    0    0    0    0 -0.00000000000E+00 -0.00000000000E+00 -0.45593999997E+02  0.45594000000E+02  0.51100000000E-03 0. -1.
    9900012    2    1    2    0    0 -0.23749723149E+01  0.24202747240E+02 -0.20623075663E+02  0.59301878924E+02  0.49999881266E+02 0.  0.
        -12    1    1    2    0    0  0.23749723149E+01 -0.24202747240E+02  0.20623075663E+02  0.31886121076E+02  0.00000000000E+00 0.  1.
         11    1    3    3    0    0 -0.13010090991E+01 -0.38114515816E+01 -0.34326544877E+01  0.52917771049E+01  0.51100000000E-03 0. -1.
        -11    1    3    3    0    0 -0.40701297675E+01 -0.10438037285E+02  0.12252858474E+01  0.11270310748E+02  0.51100000000E-03 0.  1.
        -12    1    3    3    0    0  0.29961665517E+01  0.38452236107E+02 -0.18415707023E+02  0.42739791071E+02  0.00000000000E+00 0.  1.
</event>
<event>
 7    1  0.2145102E-011  0.5930192E+02  0.7816164E-02  0.1266605E+00
        -11   -1    0    0    0    0  0.00000000000E+00  0.00000000000E+00  0.45593999997E+02  0.45594000000E+02  0.51100000000E-03 0. -1.
         11   -1    0    0    0    0 -0.00000000000E+00 -0.00000000000E+00 -0.45593999997E+02  0.45594000000E+02  0.51100000000E-03 0.  1.
    9900012    2    1    2    0    0  0.13278013035E+02  0.15208824028E+02  0.24680115591E+02  0.59301920529E+02  0.49999957144E+02 0.  0.
        -12    1    1    2    0    0 -0.13278013035E+02 -0.15208824028E+02 -0.24680115591E+02  0.31886079471E+02  0.00000000000E+00 0.  1.
         11    1    3    3    0    0  0.13318007290E+02  0.70911786891E+01  0.30677805642E+02  0.34187452269E+02  0.51100000000E-03 0. -1.
        -11    1    3    3    0    0  0.43214570737E+01 -0.62575694869E+01  0.23102302090E+01  0.79479136257E+01  0.51100000000E-03 0.  1.
        -12    1    3    3    0    0 -0.43614513286E+01  0.14375214826E+02 -0.83079202599E+01  0.17166554635E+02  0.00000000000E+00 0.  1.
</event>
<event>
 7    1  0.1290195E-011  0.5930196E+02  0.7816164E-02  0.1266605E+00
        -11   -1    0    0    0    0  0.00000000000E+00  0.00000000000E+00  0.45593999997E+02  0.45594000000E+02  0.51100000000E-03 0.  1.
         11   -1    0    0    0    0 -0.00000000000E+00 -0.00000000000E+00 -0.45593999997E+02  0.45594000000E+02  0.51100000000E-03 0. -1.
    9900012    2    1    2    0    0 -0.19077063422E+02  0.21847734880E+02 -0.13246204511E+02  0.59301955998E+02  0.50000021830E+02 0.  0.
        -12    1    1    2    0    0  0.19077063422E+02 -0.21847734880E+02  0.13246204511E+02  0.31886044002E+02  0.00000000000E+00 0.  1.
         11    1    3    3    0    0 -0.33423991582E+02  0.57565374196E+01 -0.75572577395E+01  0.34747850021E+02  0.51100000000E-03 0. -1.
        -11    1    3    3    0    0  0.42952873520E+01  0.31141404080E+01 -0.61637862548E+01  0.81326271999E+01  0.51100000000E-03 0.  1.
        -12    1    3    3    0    0  0.10051640808E+02  0.12977057052E+02  0.47483948331E+00  0.16421478776E+02  0.00000000000E+00 0.  1.
</event>
<event>
 7    1  0.1290195E-011  0.5930195E+02  0.7816164E-02  0.1266605E+00
        -11   -1    0    0    0    0  0.00000000000E+00  0.00000000000E+00  0.45593999997E+02  0.45594000000E+02  0.51100000000E-03 0.  1.
         11   -1    0    0    0    0 -0.00000000000E+00 -0.00000000000E+00 -0.45593999997E+02  0.45594000000E+02  0.51100000000E-03 0. -1.
    9900012    2    1    2    0    0 -0.25331685966E+02  0.27059890050E+01 -0.19175592699E+02  0.59301952178E+02  0.50000014863E+02 0.  0.
        -12    1    1    2    0    0  0.25331685966E+02 -0.27059890050E+01  0.19175592699E+02  0.31886047822E+02  0.00000000000E+00 0.  1.
         11    1    3    3    0    0  0.12522179554E+01  0.16445267550E+02 -0.83112698167E+01  0.18468678372E+02  0.51100000000E-03 0.  1.
        -11    1    3    3    0    0 -0.63477913653E+01  0.49332956075E+00 -0.14491781503E+02  0.15828757394E+02  0.51100000000E-03 0. -1.
         12    1    3    3    0    0 -0.20236112556E+02 -0.14232608106E+02  0.36274586207E+01  0.25004516411E+02  0.00000000000E+00 0. -1.
</event>
<event>
 7    1  0.1290195E-011  0.5930194E+02  0.7816164E-02  0.1266605E+00
        -11   -1    0    0    0    0  0.00000000000E+00  0.00000000000E+00  0.45593999997E+02  0.45594000000E+02  0.51100000000E-03 0.  1.
         11   -1    0    0    0    0 -0.00000000000E+00 -0.00000000000E+00 -0.45593999997E+02  0.45594000000E+02  0.51100000000E-03 0. -1.
    9900012    2    1    2    0    0 -0.14941469657E+02 -0.27175713073E+02  0.74131071538E+01  0.59301936364E+02  0.49999986022E+02 0.  0.
        -12    1    1    2    0    0  0.14941469657E+02  0.27175713073E+02 -0.74131071538E+01  0.31886063636E+02  0.00000000000E+00 0.  1.
         11    1    3    3    0    0 -0.22096236241E+02 -0.43195877077E+01  0.30215646131E+01  0.22716345369E+02  0.51100000000E-03 0. -1.
        -11    1    3    3    0    0 -0.91569161120E+01 -0.62085294237E+01 -0.40730321758E+01  0.11789170524E+02  0.51100000000E-03 0.  1.
        -12    1    3    3    0    0  0.16311682695E+02 -0.16647595942E+02  0.84645747165E+01  0.24796420470E+02  0.00000000000E+00 0.  1.
</event>
<event>
 7    1  0.1290195E-011  0.5930197E+02  0.7816164E-02  0.1266605E+00
        -11   -1    0    0    0    0  0.00000000000E+00  0.00000000000E+00  0.45593999997E+02  0.45594000000E+02  0.51100000000E-03 0. -1.
         11   -1    0    0    0    0 -0.00000000000E+00 -0.00000000000E+00 -0.45593999997E+02  0.45594000000E+02  0.51100000000E-03 0.  1.
    9900012    2    1    2    0    0  0.14722777624E+02  0.17321049060E+02 -0.22359337039E+02  0.59301970546E+02  0.50000048363E+02 0.  0.
        -12    1    1    2    0    0 -0.14722777624E+02 -0.17321049060E+02  0.22359337039E+02  0.31886029454E+02  0.00000000000E+00 0.  1.
         11    1    3    3    0    0  0.81361418539E+01  0.17843843198E+02 -0.43787758351E+01  0.20094109147E+02  0.51100000000E-03 0. -1.
        -11    1    3    3    0    0 -0.52582309885E+01  0.13142208459E+02 -0.15439353964E+02  0.20946128219E+02  0.51100000000E-03 0.  1.
         12    1    3    3    0    0  0.11844866759E+02 -0.13665002597E+02 -0.25412072401E+01  0.18261733180E+02  0.00000000000E+00 0. -1.
</event>
<event>
 7    1  0.1290195E-011  0.5930199E+02  0.7816164E-02  0.1266605E+00
        -11   -1    0    0    0    0  0.00000000000E+00  0.00000000000E+00  0.45593999997E+02  0.45594000000E+02  0.51100000000E-03 0. -1.
         11   -1    0    0    0    0 -0.00000000000E+00 -0.00000000000E+00 -0.45593999997E+02  0.45594000000E+02  0.51100000000E-03 0.  1.
    9900012    2    1    2    0    0 -0.47666159389E+01  0.26752395497E+02 -0.16682510298E+02  0.59301993004E+02  0.50000089321E+02 0.  0.
        -12    1    1    2    0    0  0.47666159389E+01 -0.26752395497E+02  0.16682510298E+02  0.31886006996E+02  0.00000000000E+00 0.  1.
         11    1    3    3    0    0 -0.31817751465E+01 -0.57844599600E+01 -0.42370525537E+01  0.78445066585E+01  0.51100000000E-03 0. -1.
        -11    1    3    3    0    0  0.13167735024E+02  0.31787633217E+01 -0.12745958117E+02  0.18599818024E+02  0.51100000000E-03 0.  1.
         12    1    3    3    0    0 -0.14752575817E+02  0.29358092135E+02  0.30050037357E+00  0.32857668321E+02  0.00000000000E+00 0. -1.
</event>
<event>
 7    1  0.1290195E-011  0.5930195E+02  0.7816164E-02  0.1266605E+00
        -11   -1    0    0    0    0  0.00000000000E+00  0.00000000000E+00  0.45593999997E+02  0.45594000000E+02  0.51100000000E-03 0.  1.
         11   -1    0    0    0    0 -0.00000000000E+00 -0.00000000000E+00 -0.45593999997E+02  0.45594000000E+02  0.51100000000E-03 0. -1.
    9900012    2    1    2    0    0 -0.24610170290E+02 -0.39277098861E+01  0.19890527149E+02  0.59301945730E+02  0.50000003105E+02 0.  0.
        -12    1    1    2    0    0  0.24610170290E+02  0.39277098861E+01 -0.19890527149E+02  0.31886054270E+02  0.00000000000E+00 0.  1.
         11    1    3    3    0    0  0.30936076899E+01  0.11546295988E+01  0.12385005364E+02  0.12817641599E+02  0.51100000000E-03 0. -1.
        -11    1    3    3    0    0  0.88039789276E+01  0.27720879031E+00 -0.10312831403E+00  0.88089457588E+01  0.51100000000E-03 0.  1.
         12    1    3    3    0    0 -0.36507756907E+02 -0.53595482752E+01  0.76086500991E+01  0.37675358372E+02  0.00000000000E+00 0. -1.
</event>
<event>
 7    1  0.1290195E-011  0.5930193E+02  0.7816164E-02  0.1266605E+00
        -11   -1    0    0    0    0  0.00000000000E+00  0.00000000000E+00  0.45593999997E+02  0.45594000000E+02  0.51100000000E-03 0.  1.
         11   -1    0    0    0    0 -0.00000000000E+00 -0.00000000000E+00 -0.45593999997E+02  0.45594000000E+02  0.51100000000E-03 0. -1.
    9900012    2    1    2    0    0 -0.30815227283E+02  0.80419554614E+01  0.15717580389E+01  0.59301926182E+02  0.49999967454E+02 0.  0.
        -12    1    1    2    0    0  0.30815227283E+02 -0.80419554614E+01 -0.15717580389E+01  0.31886073818E+02  0.00000000000E+00 0.  1.
         11    1    3    3    0    0 -0.10462779086E+02  0.99042123500E+01 -0.12247555006E+02  0.18909409624E+02  0.51100000000E-03 0. -1.
        -11    1    3    3    0    0 -0.22013494551E+02 -0.38288780224E+01 -0.37319182681E+01  0.22653508856E+02  0.51100000000E-03 0.  1.
        -12    1    3    3    0    0  0.16610463533E+01  0.19666211338E+01  0.17551231313E+02  0.17739007702E+02  0.00000000000E+00 0.  1.
</event>
<event>
 7    1  0.1290195E-011  0.5930193E+02  0.7816164E-02  0.1266605E+00
        -11   -1    0    0    0    0  0.00000000000E+00  0.00000000000E+00  0.45593999997E+02  0.45594000000E+02  0.51100000000E-03 0.  1.
         11   -1    0    0    0    0 -0.00000000000E+00 -0.00000000000E+00 -0.45593999997E+02  0.45594000000E+02  0.51100000000E-03 0. -1.
    9900012    2    1    2    0    0  0.15803775619E+02  0.10357528535E+01 -0.27674705162E+02  0.59301930728E+02  0.49999975745E+02 0.  0.
        -12    1    1    2    0    0 -0.15803775619E+02 -0.10357528535E+01  0.27674705162E+02  0.31886069272E+02  0.00000000000E+00 0.  1.
         11    1    3    3    0    0  0.55857192254E+00  0.43584769892E+01 -0.28968464535E+02  0.29299833822E+02  0.51100000000E-03 0. -1.
        -11    1    3    3    0    0 -0.22559943536E+01  0.64689146640E+01  0.63273887994E+01  0.93258895947E+01  0.51100000000E-03 0.  1.
         12    1    3    3    0    0  0.17501198050E+02 -0.97916387997E+01 -0.50336294266E+01  0.20676207311E+02  0.00000000000E+00 0. -1.
</event>
<event>
 7    1  0.1290195E-011  0.5930195E+02  0.7816164E-02  0.1266605E+00
        -11   -1    0    0    0    0  0.00000000000E+00  0.00000000000E+00  0.45593999997E+02  0.45594000000E+02  0.51100000000E-03 0.  1.
         11   -1    0    0    0    0 -0.00000000000E+00 -0.00000000000E+00 -0.45593999997E+02  0.45594000000E+02  0.51100000000E-03 0. -1.
    9900012    2    1    2    0    0 -0.77437046167E+01  0.12409496814E+01 -0.30906561968E+02  0.59301945212E+02  0.50000002159E+02 0.  0.
        -12    1    1    2    0    0  0.77437046167E+01 -0.12409496814E+01  0.30906561968E+02  0.31886054788E+02  0.00000000000E+00 0.  1.
         11    1    3    3    0    0  0.97683438077E+01  0.52712979850E+01 -0.92908961941E+01  0.14475077739E+02  0.51100000000E-03 0. -1.
        -11    1    3    3    0    0 -0.16362237015E+02 -0.63135348886E+01 -0.30718197711E+02  0.35372181072E+02  0.51100000000E-03 0.  1.
         12    1    3    3    0    0 -0.11498114091E+01  0.22831865851E+01  0.91025319375E+01  0.94546864005E+01  0.00000000000E+00 0. -1.
</event>
<event>
 7    1  0.1290195E-011  0.5930193E+02  0.7816164E-02  0.1266605E+00
        -11   -1    0    0    0    0  0.00000000000E+00  0.00000000000E+00  0.45593999997E+02  0.45594000000E+02  0.51100000000E-03 0. -1.
         11   -1    0    0    0    0 -0.00000000000E+00 -0.00000000000E+00 -0.45593999997E+02  0.45594000000E+02  0.51100000000E-03 0.  1.
    9900012    2    1    2    0    0 -0.20356302478E+02 -0.21407919458E+02  0.12001805775E+02  0.59301930817E+02  0.49999975907E+02 0.  0.
        -12    1    1    2    0    0  0.20356302478E+02  0.21407919458E+02 -0.12001805775E+02  0.31886069183E+02  0.00000000000E+00 0.  1.
         11    1    3    3    0    0 -0.12949291390E+02 -0.30985111572E+02 -0.35600777900E+01  0.33770333738E+02  0.51100000000E-03 0.  1.
        -11    1    3    3    0    0 -0.11143731916E+02  0.59239005237E+01  0.46805295361E+01  0.13460412900E+02  0.51100000000E-03 0. -1.
        -12    1    3    3    0    0  0.37367208286E+01  0.36532915900E+01  0.10881354029E+02  0.12071184180E+02  0.00000000000E+00 0.  1.
</event>
<event>
 7    1  0.1290195E-011  0.5930193E+02  0.7816164E-02  0.1266605E+00
        -11   -1    0    0    0    0  0.00000000000E+00  0.00000000000E+00  0.45593999997E+02  0.45594000000E+02  0.51100000000E-03 0.  1.
         11   -1    0    0    0    0 -0.00000000000E+00 -0.00000000000E+00 -0.45593999997E+02  0.45594000000E+02  0.51100000000E-03 0. -1.
    9900012    2    1    2    0    0 -0.10726662006E+02 -0.19703719992E+02 -0.22658856125E+02  0.59301927488E+02  0.49999969836E+02 0.  0.
        -12    1    1    2    0    0  0.10726662006E+02  0.19703719992E+02  0.22658856125E+02  0.31886072512E+02  0.00000000000E+00 0.  1.
         11    1    3    3    0    0 -0.36228319481E+01 -0.72587307745E+01 -0.23251926516E+02  0.24626533876E+02  0.51100000000E-03 0. -1.
        -11    1    3    3    0    0 -0.70671782920E+01  0.75198472820E+01 -0.78828224644E+01  0.12985838534E+02  0.51100000000E-03 0.  1.
        -12    1    3    3    0    0 -0.36651765636E-01 -0.19964836500E+02  0.84758928553E+01  0.21689555079E+02  0.00000000000E+00 0.  1.
</event>
<event>
 7    1  0.1290195E-011  0.5930194E+02  0.7816164E-02  0.1266605E+00
        -11   -1    0    0    0    0  0.00000000000E+00  0.00000000000E+00  0.45593999997E+02  0.45594000000E+02  0.51100000000E-03 0.  1.
         11   -1    0    0    0    0 -0.00000000000E+00 -0.00000000000E+00 -0.45593999997E+02  0.45594000000E+02  0.51100000000E-03 0. -1.
    9900012    2    1    2    0    0 -0.16416947531E+02 -0.23884867145E+02 -0.13293522629E+02  0.59301940528E+02  0.49999993618E+02 0.  0.
        -12    1    1    2    0    0  0.16416947531E+02  0.23884867145E+02  0.13293522629E+02  0.31886059472E+02  0.00000000000E+00 0.  1.
         11    1    3    3    0    0 -0.26179785815E+01  0.54762746488E-01  0.72926203322E+01  0.77484916198E+01  0.51100000000E-03 0.  1.
        -11    1    3    3    0    0 -0.88810918188E+01 -0.67311001904E+01 -0.29517692324E+02  0.31551159441E+02  0.51100000000E-03 0. -1.
         12    1    3    3    0    0 -0.49178771303E+01 -0.17208529701E+02  0.89315493626E+01  0.20002289468E+02  0.00000000000E+00 0. -1.
</event>
<event>
 7    1  0.1290195E-011  0.5930197E+02  0.7816164E-02  0.1266605E+00
        -11   -1    0    0    0    0  0.00000000000E+00  0.00000000000E+00  0.45593999997E+02  0.45594000000E+02  0.51100000000E-03 0.  1.
         11   -1    0    0    0    0 -0.00000000000E+00 -0.00000000000E+00 -0.45593999997E+02  0.45594000000E+02  0.51100000000E-03 0. -1.
    9900012    2    1    2    0    0  0.42330153940E+01  0.21077697933E+02 -0.23548485278E+02  0.59301969699E+02  0.50000046817E+02 0.  0.
        -12    1    1    2    0    0 -0.42330153940E+01 -0.21077697933E+02  0.23548485278E+02  0.31886030301E+02  0.00000000000E+00 0.  1.
         11    1    3    3    0    0 -0.42230975501E+01  0.15604970055E+02 -0.18890484910E+02  0.24863629335E+02  0.51100000000E-03 0. -1.
        -11    1    3    3    0    0  0.50247222997E+01  0.19180393174E+02 -0.43765526891E+01  0.20304913942E+02  0.51100000000E-03 0.  1.
        -12    1    3    3    0    0  0.34313906444E+01 -0.13707665296E+02 -0.28144767916E+00  0.14133426421E+02  0.00000000000E+00 0.  1.
</event>
<event>
 7    1  0.1290195E-011  0.5930191E+02  0.7816164E-02  0.1266605E+00
        -11   -1    0    0    0    0  0.00000000000E+00  0.00000000000E+00  0.45593999997E+02  0.45594000000E+02  0.51100000000E-03 0. -1.
         11   -1    0    0    0    0 -0.00000000000E+00 -0.00000000000E+00 -0.45593999997E+02  0.45594000000E+02  0.51100000000E-03 0.  1.
    9900012    2    1    2    0    0 -0.22134675060E+01  0.29994870297E+02 -0.10589180915E+02  0.59301914712E+02  0.49999946535E+02 0.  0.
        -12    1    1    2    0    0  0.22134675060E+01 -0.29994870297E+02  0.10589180915E+02  0.31886085288E+02  0.00000000000E+00 0.  1.
         11    1    3    3    0    0 -0.10731546970E+02  0.20836345505E+02  0.58881208443E+01  0.24165871839E+02  0.51100000000E-03 0. -1.
        -11    1    3    3    0    0  0.15266383926E+02 -0.32304127871E+01 -0.35541833686E+01  0.16004070252E+02  0.51100000000E-03 0.  1.
         12    1    3    3    0    0 -0.67483044619E+01  0.12388937579E+02 -0.12923118390E+02  0.19131972621E+02  0.00000000000E+00 0. -1.
</event>
<event>
 7    1  0.1290195E-011  0.5930187E+02  0.7816164E-02  0.1266605E+00
        -11   -1    0    0    0    0  0.00000000000E+00  0.00000000000E+00  0.45593999997E+02  0.45594000000E+02  0.51100000000E-03 0.  1.
         11   -1    0    0    0    0 -0.00000000000E+00 -0.00000000000E+00 -0.45593999997E+02  0.45594000000E+02  0.51100000000E-03 0. -1.
    9900012    2    1    2    0    0  0.30761091223E+02  0.74315000279E+01 -0.39055625370E+01  0.59301869087E+02  0.49999863325E+02 0.  0.
        -12    1    1    2    0    0 -0.30761091223E+02 -0.74315000279E+01  0.39055625370E+01  0.31886130913E+02  0.00000000000E+00 0.  1.
         11    1    3    3    0    0  0.13891231130E+02 -0.17604597557E+01 -0.94565690251E+01  0.16896514991E+02  0.51100000000E-03 0. -1.
        -11    1    3    3    0    0  0.46283618628E+01 -0.14540602944E+02  0.32578766908E+01  0.15603353111E+02  0.51100000000E-03 0.  1.
        -12    1    3    3    0    0  0.12241498230E+02  0.23732562727E+02  0.22931297972E+01  0.26802000985E+02  0.00000000000E+00 0.  1.
</event>
<event>
 7    1  0.1290195E-011  0.5930196E+02  0.7816164E-02  0.1266605E+00
        -11   -1    0    0    0    0  0.00000000000E+00  0.00000000000E+00  0.45593999997E+02  0.45594000000E+02  0.51100000000E-03 0.  1.
         11   -1    0    0    0    0 -0.00000000000E+00 -0.00000000000E+00 -0.45593999997E+02  0.45594000000E+02  0.51100000000E-03 0. -1.
    9900012    2    1    2    0    0 -0.15651469595E+02  0.20672340827E+02 -0.18558170272E+02  0.59301955097E+02  0.50000020188E+02 0.  0.
        -12    1    1    2    0    0  0.15651469595E+02 -0.20672340827E+02  0.18558170272E+02  0.31886044903E+02  0.00000000000E+00 0.  1.
         11    1    3    3    0    0 -0.30899246092E+01  0.44036660063E+01 -0.15176830336E+02  0.16102052282E+02  0.51100000000E-03 0. -1.
        -11    1    3    3    0    0 -0.21527962221E+02 -0.19644912853E+01 -0.66564939795E+01  0.22619047189E+02  0.51100000000E-03 0.  1.
        -12    1    3    3    0    0  0.89664172351E+01  0.18233166106E+02  0.32751540439E+01  0.20580855625E+02  0.00000000000E+00 0.  1.
</event>
<event>
 7    1  0.1290195E-011  0.5930193E+02  0.7816164E-02  0.1266605E+00
        -11   -1    0    0    0    0  0.00000000000E+00  0.00000000000E+00  0.45593999997E+02  0.45594000000E+02  0.51100000000E-03 0.  1.
         11   -1    0    0    0    0 -0.00000000000E+00 -0.00000000000E+00 -0.45593999997E+02  0.45594000000E+02  0.51100000000E-03 0. -1.
    9900012    2    1    2    0    0  0.29070055889E+02 -0.97852725052E+01 -0.87121461488E+01  0.59301934110E+02  0.49999981913E+02 0.  0.
        -12    1    1    2    0    0 -0.29070055889E+02  0.97852725052E+01  0.87121461488E+01  0.31886065890E+02  0.00000000000E+00 0.  1.
         11    1    3    3    0    0  0.18821590740E+02 -0.47164014501E+00 -0.88525785528E+01  0.20804876104E+02  0.51100000000E-03 0. -1.
        -11    1    3    3    0    0  0.67451977411E+01  0.13554480547E+02  0.20741668657E+01  0.15281485658E+02  0.51100000000E-03 0.  1.
        -12    1    3    3    0    0  0.35032674079E+01 -0.22868112907E+02 -0.19337344618E+01  0.23215572348E+02  0.00000000000E+00 0.  1.
</event>
<event>
 7    1  0.1290195E-011  0.5930202E+02  0.7816164E-02  0.1266605E+00
        -11   -1    0    0    0    0  0.00000000000E+00  0.00000000000E+00  0.45593999997E+02  0.45594000000E+02  0.51100000000E-03 0.  1.
         11   -1    0    0    0    0 -0.00000000000E+00 -0.00000000000E+00 -0.45593999997E+02  0.45594000000E+02  0.51100000000E-03 0. -1.
    9900012    2    1    2    0    0 -0.22169294382E+02  0.22914534416E+02  0.40314282193E+00  0.59302015226E+02  0.50000129848E+02 0.  0.
        -12    1    1    2    0    0  0.22169294382E+02 -0.22914534416E+02 -0.40314282193E+00  0.31885984774E+02  0.00000000000E+00 0.  1.
         11    1    3    3    0    0  0.45897157441E+01  0.10698456462E+02 -0.49942617235E+01  0.12667482453E+02  0.51100000000E-03 0. -1.
        -11    1    3    3    0    0  0.32683268062E+01  0.92559733315E+01 -0.88959387762E+01  0.13247366885E+02  0.51100000000E-03 0.  1.
         12    1    3    3    0    0 -0.30027336933E+02  0.29601046221E+01  0.14293343322E+02  0.33387165887E+02  0.00000000000E+00 0. -1.
</event>
<event>
 7    1  0.1290195E-011  0.5930195E+02  0.7816164E-02  0.1266605E+00
        -11   -1    0    0    0    0  0.00000000000E+00  0.00000000000E+00  0.45593999997E+02  0.45594000000E+02  0.51100000000E-03 0.  1.
         11   -1    0    0    0    0 -0.00000000000E+00 -0.00000000000E+00 -0.45593999997E+02  0.45594000000E+02  0.51100000000E-03 0. -1.
    9900012    2    1    2    0    0 -0.91530418707E+01 -0.27743021586E+02 -0.12777590473E+02  0.59301949123E+02  0.50000009293E+02 0.  0.
        -12    1    1    2    0    0  0.91530418707E+01  0.27743021586E+02  0.12777590473E+02  0.31886050877E+02  0.00000000000E+00 0.  1.
         11    1    3    3    0    0 -0.84571806241E+01 -0.14283101233E+02 -0.11215626204E+02  0.20033001681E+02  0.51100000000E-03 0. -1.
        -11    1    3    3    0    0 -0.12893106366E+02 -0.19270803847E+02  0.57751679251E+01  0.23894531540E+02  0.51100000000E-03 0.  1.
        -12    1    3    3    0    0  0.12197245120E+02  0.58108834941E+01 -0.73371321936E+01  0.15374415902E+02  0.00000000000E+00 0.  1.
</event>
<event>
 7    1  0.1290195E-011  0.5930192E+02  0.7816164E-02  0.1266605E+00
        -11   -1    0    0    0    0  0.00000000000E+00  0.00000000000E+00  0.45593999997E+02  0.45594000000E+02  0.51100000000E-03 0.  1.
         11   -1    0    0    0    0 -0.00000000000E+00 -0.00000000000E+00 -0.45593999997E+02  0.45594000000E+02  0.51100000000E-03 0. -1.
    9900012    2    1    2    0    0  0.28393687695E+02 -0.37069536883E+01  0.14027807823E+02  0.59301915278E+02  0.49999947568E+02 0.  0.
        -12    1    1    2    0    0 -0.28393687695E+02  0.37069536883E+01 -0.14027807823E+02  0.31886084722E+02  0.00000000000E+00 0.  1.
         11    1    3    3    0    0  0.15686574824E+02  0.70767819474E+01 -0.10490816870E+01  0.17240940957E+02  0.51100000000E-03 0. -1.
        -11    1    3    3    0    0  0.13095506010E+02  0.64119354324E+01 -0.51919267769E+01  0.15477767848E+02  0.51100000000E-03 0.  1.
         12    1    3    3    0    0 -0.38839313912E+00 -0.17195671068E+02  0.20268816287E+02  0.26583206473E+02  0.00000000000E+00 0. -1.
</event>
<event>
 7    1  0.1290195E-011  0.5930194E+02  0.7816164E-02  0.1266605E+00
        -11   -1    0    0    0    0  0.00000000000E+00  0.00000000000E+00  0.45593999997E+02  0.45594000000E+02  0.51100000000E-03 0.  1.
         11   -1    0    0    0    0 -0.00000000000E+00 -0.00000000000E+00 -0.45593999997E+02  0.45594000000E+02  0.51100000000E-03 0. -1.
    9900012    2    1    2    0    0  0.27947953403E+01  0.30128899155E+02  0.10057788432E+02  0.59301944216E+02  0.50000000344E+02 0.  0.
        -12    1    1    2    0    0 -0.27947953403E+01 -0.30128899155E+02 -0.10057788432E+02  0.31886055784E+02  0.00000000000E+00 0.  1.
         11    1    3    3    0    0 -0.95338132794E+01 -0.31460281596E+00 -0.13833690735E+02  0.16803677282E+02  0.51100000000E-03 0. -1.
        -11    1    3    3    0    0  0.16751892198E+01  0.54313391396E+00 -0.11196510550E+01  0.20868330352E+01  0.51100000000E-03 0.  1.
        -12    1    3    3    0    0  0.10653419400E+02  0.29900368057E+02  0.25011130222E+02  0.40411433900E+02  0.00000000000E+00 0.  1.
</event>
<event>
 7    1  0.1290195E-011  0.5930194E+02  0.7816164E-02  0.1266605E+00
        -11   -1    0    0    0    0  0.00000000000E+00  0.00000000000E+00  0.45593999997E+02  0.45594000000E+02  0.51100000000E-03 0. -1.
         11   -1    0    0    0    0 -0.00000000000E+00 -0.00000000000E+00 -0.45593999997E+02  0.45594000000E+02  0.51100000000E-03 0.  1.
    9900012    2    1    2    0    0  0.24449043983E+01  0.29793470488E+02  0.11094710138E+02  0.59301936677E+02  0.49999986594E+02 0.  0.
        -12    1    1    2    0    0 -0.24449043983E+01 -0.29793470488E+02 -0.11094710138E+02  0.31886063323E+02  0.00000000000E+00 0.  1.
         11    1    3    3    0    0  0.11978461514E+01  0.63289339838E+01 -0.14904548444E+02  0.16236865626E+02  0.51100000000E-03 0.  1.
        -11    1    3    3    0    0 -0.12918743248E+01 -0.26735338980E+01 -0.28062537847E+01  0.40855578982E+01  0.51100000000E-03 0. -1.
        -12    1    3    3    0    0  0.25389325717E+01  0.26138070402E+02  0.28805512366E+02  0.38979513153E+02  0.00000000000E+00 0.  1.
</event>
<event>
 7    1  0.1290195E-011  0.5930195E+02  0.7816164E-02  0.1266605E+00
        -11   -1    0    0    0    0  0.00000000000E+00  0.00000000000E+00  0.45593999997E+02  0.45594000000E+02  0.51100000000E-03 0. -1.
         11   -1    0    0    0    0 -0.00000000000E+00 -0.00000000000E+00 -0.45593999997E+02  0.45594000000E+02  0.51100000000E-03 0.  1.
    9900012    2    1    2    0    0  0.15594834679E+02 -0.23650522148E+02  0.14634697677E+02  0.59301945954E+02  0.50000003513E+02 0.  0.
        -12    1    1    2    0    0 -0.15594834679E+02  0.23650522148E+02 -0.14634697677E+02  0.31886054046E+02  0.00000000000E+00 0.  1.
         11    1    3    3    0    0 -0.67726521426E+01 -0.36993413720E+01  0.12704120891E+02  0.14864340938E+02  0.51100000000E-03 0. -1.
        -11    1    3    3    0    0  0.14333276055E+02 -0.25772074762E+02  0.10524835532E+02  0.31311576186E+02  0.51100000000E-03 0.  1.
        -12    1    3    3    0    0  0.80342107661E+01  0.58208939863E+01 -0.85942587464E+01  0.13126028830E+02  0.00000000000E+00 0.  1.
</event>
<event>
 7    1  0.1290195E-011  0.5930197E+02  0.7816164E-02  0.1266605E+00
        -11   -1    0    0    0    0  0.00000000000E+00  0.00000000000E+00  0.45593999997E+02  0.45594000000E+02  0.51100000000E-03 0.  1.
         11   -1    0    0    0    0 -0.00000000000E+00 -0.00000000000E+00 -0.45593999997E+02  0.45594000000E+02  0.51100000000E-03 0. -1.
    9900012    2    1    2    0    0 -0.20058278132E+02  0.32829631478E+01 -0.24568403944E+02  0.59301971068E+02  0.50000049316E+02 0.  0.
        -12    1    1    2    0    0  0.20058278132E+02 -0.32829631478E+01  0.24568403944E+02  0.31886028932E+02  0.00000000000E+00 0.  1.
         11    1    3    3    0    0  0.75288398937E+01  0.14041488631E+02 -0.54089278051E+01  0.16825674827E+02  0.51100000000E-03 0. -1.
        -11    1    3    3    0    0 -0.30847084411E+01 -0.38571650985E+01  0.52503139851E+01  0.72082554038E+01  0.51100000000E-03 0.  1.
         12    1    3    3    0    0 -0.24502409585E+02 -0.69013603845E+01 -0.24409790124E+02  0.35268040838E+02  0.00000000000E+00 0. -1.
</event>
<event>
 7    1  0.1290195E-011  0.5930205E+02  0.7816164E-02  0.1266604E+00
        -11   -1    0    0    0    0  0.00000000000E+00  0.00000000000E+00  0.45593999997E+02  0.45594000000E+02  0.51100000000E-03 0.  1.
         11   -1    0    0    0    0 -0.00000000000E+00 -0.00000000000E+00 -0.45593999997E+02  0.45594000000E+02  0.51100000000E-03 0. -1.
    9900012    2    1    2    0    0 -0.13560049934E+02  0.30436066220E+01 -0.28697998594E+02  0.59302052957E+02  0.50000198661E+02 0.  0.
        -12    1    1    2    0    0  0.13560049934E+02 -0.30436066220E+01  0.28697998594E+02  0.31885947043E+02  0.00000000000E+00 0.  1.
         11    1    3    3    0    0 -0.29106278659E+01 -0.80771176719E+01  0.52218669143E+01  0.10048854601E+02  0.51100000000E-03 0. -1.
        -11    1    3    3    0    0 -0.15059155665E+02 -0.10398592387E+01 -0.25340259617E+01  0.15306232861E+02  0.51100000000E-03 0.  1.
         12    1    3    3    0    0  0.44097335964E+01  0.12160583533E+02 -0.31385839547E+02  0.33946965495E+02  0.00000000000E+00 0. -1.
</event>
<event>
 7    1  0.1290195E-011  0.5930193E+02  0.7816164E-02  0.1266605E+00
        -11   -1    0    0    0    0  0.00000000000E+00  0.00000000000E+00  0.45593999997E+02  0.45594000000E+02  0.51100000000E-03 0.  1.
         11   -1    0    0    0    0 -0.00000000000E+00 -0.00000000000E+00 -0.45593999997E+02  0.45594000000E+02  0.51100000000E-03 0. -1.
    9900012    2    1    2    0    0  0.17852406184E+01  0.28388538073E+02 -0.14409200054E+02  0.59301933698E+02  0.49999981162E+02 0.  0.
        -12    1    1    2    0    0 -0.17852406184E+01 -0.28388538073E+02  0.14409200054E+02  0.31886066302E+02  0.00000000000E+00 0.  1.
         11    1    3    3    0    0 -0.36516549386E+01  0.18713520816E+02  0.75740756253E+01  0.20515776050E+02  0.51100000000E-03 0. -1.
        -11    1    3    3    0    0 -0.80860770807E+01  0.64276061184E+01  0.25007952529E+01  0.10627922663E+02  0.51100000000E-03 0.  1.
         12    1    3    3    0    0  0.13522972638E+02  0.32474111388E+01 -0.24484070932E+02  0.28158234985E+02  0.00000000000E+00 0. -1.
</event>
<event>
 7    1  0.1290195E-011  0.5930195E+02  0.7816164E-02  0.1266605E+00
        -11   -1    0    0    0    0  0.00000000000E+00  0.00000000000E+00  0.45593999997E+02  0.45594000000E+02  0.51100000000E-03 0.  1.
         11   -1    0    0    0    0 -0.00000000000E+00 -0.00000000000E+00 -0.45593999997E+02  0.45594000000E+02  0.51100000000E-03 0. -1.
    9900012    2    1    2    0    0 -0.26099028486E+02 -0.17784376834E+02  0.43905607161E+01  0.59301947082E+02  0.50000005571E+02 0.  0.
        -12    1    1    2    0    0  0.26099028486E+02  0.17784376834E+02 -0.43905607161E+01  0.31886052918E+02  0.00000000000E+00 0.  1.
         11    1    3    3    0    0 -0.33882067682E+01 -0.25423645423E+02 -0.23337335285E+01  0.25754378349E+02  0.51100000000E-03 0.  1.
        -11    1    3    3    0    0  0.38026786443E+01 -0.81229704179E+00  0.40129604471E+01  0.55878478118E+01  0.51100000000E-03 0. -1.
         12    1    3    3    0    0 -0.26513500362E+02  0.84515656306E+01  0.27113337974E+01  0.27959720922E+02  0.00000000000E+00 0. -1.
</event>
<event>
 7    1  0.1290195E-011  0.5930194E+02  0.7816164E-02  0.1266605E+00
        -11   -1    0    0    0    0  0.00000000000E+00  0.00000000000E+00  0.45593999997E+02  0.45594000000E+02  0.51100000000E-03 0. -1.
         11   -1    0    0    0    0 -0.00000000000E+00 -0.00000000000E+00 -0.45593999997E+02  0.45594000000E+02  0.51100000000E-03 0.  1.
    9900012    2    1    2    0    0  0.45340432666E+01  0.26741157973E+02  0.16765251779E+02  0.59301941208E+02  0.49999994857E+02 0.  0.
        -12    1    1    2    0    0 -0.45340432666E+01 -0.26741157973E+02 -0.16765251779E+02  0.31886058792E+02  0.00000000000E+00 0.  1.
         11    1    3    3    0    0  0.66775171119E+01 -0.44440457671E+01  0.17145461532E+02  0.18928962702E+02  0.51100000000E-03 0. -1.
        -11    1    3    3    0    0 -0.56807215430E+01  0.22258828754E+01 -0.81507309024E+01  0.10181334212E+02  0.51100000000E-03 0.  1.
        -12    1    3    3    0    0  0.35372476977E+01  0.28959320865E+02  0.77705211491E+01  0.30191644294E+02  0.00000000000E+00 0.  1.
</event>
<event>
 7    1  0.1290195E-011  0.5930194E+02  0.7816164E-02  0.1266605E+00
        -11   -1    0    0    0    0  0.00000000000E+00  0.00000000000E+00  0.45593999997E+02  0.45594000000E+02  0.51100000000E-03 0. -1.
         11   -1    0    0    0    0 -0.00000000000E+00 -0.00000000000E+00 -0.45593999997E+02  0.45594000000E+02  0.51100000000E-03 0.  1.
    9900012    2    1    2    0    0  0.22652517317E+02  0.27532560305E+01  0.22271147433E+02  0.59301937723E+02  0.49999988502E+02 0.  0.
        -12    1    1    2    0    0 -0.22652517317E+02 -0.27532560305E+01 -0.22271147433E+02  0.31886062277E+02  0.00000000000E+00 0.  1.
         11    1    3    3    0    0  0.17026086526E+01  0.27304317173E+01  0.21312684039E+02  0.21554225452E+02  0.51100000000E-03 0. -1.
        -11    1    3    3    0    0  0.64374524980E-01  0.99744258129E+01 -0.81531747869E+01  0.12882840282E+02  0.51100000000E-03 0.  1.
         12    1    3    3    0    0  0.20885534139E+02 -0.99516014997E+01  0.91116381803E+01  0.24864871989E+02  0.00000000000E+00 0. -1.
</event>
<event>
 7    1  0.1290195E-011  0.5930158E+02  0.7816164E-02  0.1266606E+00
        -11   -1    0    0    0    0  0.00000000000E+00  0.00000000000E+00  0.45593999997E+02  0.45594000000E+02  0.51100000000E-03 0.  1.
         11   -1    0    0    0    0 -0.00000000000E+00 -0.00000000000E+00 -0.45593999997E+02  0.45594000000E+02  0.51100000000E-03 0. -1.
    9900012    2    1    2    0    0 -0.92033707888E+01 -0.26776160912E+02 -0.14665578290E+02  0.59301576342E+02  0.49999329426E+02 0.  0.
        -12    1    1    2    0    0  0.92033707888E+01  0.26776160912E+02  0.14665578290E+02  0.31886423658E+02  0.00000000000E+00 0.  1.
         11    1    3    3    0    0 -0.26924472208E+01 -0.11438559330E+02 -0.53829748016E+01  0.12925414097E+02  0.51100000000E-03 0. -1.
        -11    1    3    3    0    0  0.46114019563E+01 -0.28069692902E+02 -0.44408295023E+01  0.28790513273E+02  0.51100000000E-03 0.  1.
        -12    1    3    3    0    0 -0.11122325524E+02  0.12732091320E+02 -0.48417739865E+01  0.17585648973E+02  0.00000000000E+00 0.  1.
</event>
<event>
 7    1  0.1290195E-011  0.5930191E+02  0.7816164E-02  0.1266605E+00
        -11   -1    0    0    0    0  0.00000000000E+00  0.00000000000E+00  0.45593999997E+02  0.45594000000E+02  0.51100000000E-03 0. -1.
         11   -1    0    0    0    0 -0.00000000000E+00 -0.00000000000E+00 -0.45593999997E+02  0.45594000000E+02  0.51100000000E-03 0.  1.
    9900012    2    1    2    0    0  0.20575355177E+02 -0.19676268315E+02  0.14360419340E+02  0.59301914961E+02  0.49999946990E+02 0.  0.
        -12    1    1    2    0    0 -0.20575355177E+02  0.19676268315E+02 -0.14360419340E+02  0.31886085039E+02  0.00000000000E+00 0.  1.
         11    1    3    3    0    0  0.73852376444E+01 -0.15035099788E+02 -0.11371746673E+02  0.20246298016E+02  0.51100000000E-03 0. -1.
        -11    1    3    3    0    0  0.20159773195E+01 -0.13359941940E+02  0.60560981282E+01  0.14806368157E+02  0.51100000000E-03 0.  1.
         12    1    3    3    0    0  0.11174140213E+02  0.87187734138E+01  0.19676067885E+02  0.24249248788E+02  0.00000000000E+00 0. -1.
</event>
<event>
 7    1  0.1290195E-011  0.5930193E+02  0.7816164E-02  0.1266605E+00
        -11   -1    0    0    0    0  0.00000000000E+00  0.00000000000E+00  0.45593999997E+02  0.45594000000E+02  0.51100000000E-03 0. -1.
         11   -1    0    0    0    0 -0.00000000000E+00 -0.00000000000E+00 -0.45593999997E+02  0.45594000000E+02  0.51100000000E-03 0.  1.
    9900012    2    1    2    0    0 -0.66341534721E+01 -0.26527796394E+02  0.16400769444E+02  0.59301933887E+02  0.49999981505E+02 0.  0.
        -12    1    1    2    0    0  0.66341534721E+01  0.26527796394E+02 -0.16400769444E+02  0.31886066113E+02  0.00000000000E+00 0.  1.
         11    1    3    3    0    0 -0.96347831234E+00 -0.41787637763E+01  0.82315464399E+01  0.92816331650E+01  0.51100000000E-03 0. -1.
        -11    1    3    3    0    0  0.88590380629E+01 -0.23286072045E+02  0.19445339582E+02  0.31604508197E+02  0.51100000000E-03 0.  1.
        -12    1    3    3    0    0 -0.14529713223E+02  0.93703942666E+00 -0.11276116578E+02  0.18415792524E+02  0.00000000000E+00 0.  1.
</event>
<event>
 7    1  0.1290195E-011  0.5930195E+02  0.7816164E-02  0.1266605E+00
        -11   -1    0    0    0    0  0.00000000000E+00  0.00000000000E+00  0.45593999997E+02  0.45594000000E+02  0.51100000000E-03 0. -1.
         11   -1    0    0    0    0 -0.00000000000E+00 -0.00000000000E+00 -0.45593999997E+02  0.45594000000E+02  0.51100000000E-03 0.  1.
    9900012    2    1    2    0    0 -0.35438352378E+01  0.31268433559E+02  0.51426026747E+01  0.59301951833E+02  0.50000014235E+02 0.  0.
        -12    1    1    2    0    0  0.35438352378E+01 -0.31268433559E+02 -0.51426026747E+01  0.31886048167E+02  0.00000000000E+00 0.  1.
         11    1    3    3    0    0 -0.21567863169E+01  0.57152251001E+01  0.97262808607E+01  0.11485471902E+02  0.51100000000E-03 0. -1.
        -11    1    3    3    0    0 -0.12135143118E+02  0.86947804496E+01  0.14039693393E+02  0.20493264659E+02  0.51100000000E-03 0.  1.
         12    1    3    3    0    0  0.10748094197E+02  0.16858428009E+02 -0.18623371579E+02  0.27323215272E+02  0.00000000000E+00 0. -1.
</event>
<event>
 7    1  0.1290195E-011  0.5930194E+02  0.7816164E-02  0.1266605E+00
        -11   -1    0    0    0    0  0.00000000000E+00  0.00000000000E+00  0.45593999997E+02  0.45594000000E+02  0.51100000000E-03 0.  1.
         11   -1    0    0    0    0 -0.00000000000E+00 -0.00000000000E+00 -0.45593999997E+02  0.45594000000E+02  0.51100000000E-03 0. -1.
    9900012    2    1    2    0    0 -0.31780180185E+02  0.24975923587E+01  0.70920768492E+00  0.59301940417E+02  0.49999993415E+02 0.  0.
        -12    1    1    2    0    0  0.31780180185E+02 -0.24975923587E+01 -0.70920768492E+00  0.31886059583E+02  0.00000000000E+00 0.  1.
         11    1    3    3    0    0  0.61089713298E-01  0.68588931228E+01  0.49556274387E+01  0.84620559202E+01  0.51100000000E-03 0.  1.
        -11    1    3    3    0    0 -0.35009106448E+02  0.96188408406E+01 -0.37063027492E+01  0.36495154661E+02  0.51100000000E-03 0. -1.
         12    1    3    3    0    0  0.31678365491E+01 -0.13980141605E+02 -0.54011700459E+00  0.14344729836E+02  0.00000000000E+00 0. -1.
</event>
<event>
 7    1  0.1290195E-011  0.5930194E+02  0.7816164E-02  0.1266605E+00
        -11   -1    0    0    0    0  0.00000000000E+00  0.00000000000E+00  0.45593999997E+02  0.45594000000E+02  0.51100000000E-03 0.  1.
         11   -1    0    0    0    0 -0.00000000000E+00 -0.00000000000E+00 -0.45593999997E+02  0.45594000000E+02  0.51100000000E-03 0. -1.
    9900012    2    1    2    0    0  0.11480098126E+02 -0.15246685874E+02 -0.25543432050E+02  0.59301937151E+02  0.49999987459E+02 0.  0.
        -12    1    1    2    0    0 -0.11480098126E+02  0.15246685874E+02  0.25543432050E+02  0.31886062849E+02  0.00000000000E+00 0.  1.
         11    1    3    3    0    0  0.27526000577E+01  0.82923274196E+00  0.82354689284E+01  0.87228081917E+01  0.51100000000E-03 0. -1.
        -11    1    3    3    0    0  0.91043192428E+01  0.49640190251E+01  0.47188734700E+00  0.10380404216E+02  0.51100000000E-03 0.  1.
         12    1    3    3    0    0 -0.37682117497E+00 -0.21039937641E+02 -0.34250788325E+02  0.40198724744E+02  0.00000000000E+00 0. -1.
</event>
<event>
 7    1  0.1290195E-011  0.5930194E+02  0.7816164E-02  0.1266605E+00
        -11   -1    0    0    0    0  0.00000000000E+00  0.00000000000E+00  0.45593999997E+02  0.45594000000E+02  0.51100000000E-03 0.  1.
         11   -1    0    0    0    0 -0.00000000000E+00 -0.00000000000E+00 -0.45593999997E+02  0.45594000000E+02  0.51100000000E-03 0. -1.
    9900012    2    1    2    0    0 -0.20377378167E+02  0.51788420546E+01 -0.23972127894E+02  0.59301939382E+02  0.49999991528E+02 0.  0.
        -12    1    1    2    0    0  0.20377378167E+02 -0.51788420546E+01  0.23972127894E+02  0.31886060618E+02  0.00000000000E+00 0.  1.
         11    1    3    3    0    0 -0.11866317941E+02 -0.20420549350E+01 -0.31170333946E+02  0.33415104495E+02  0.51100000000E-03 0. -1.
        -11    1    3    3    0    0 -0.83118914214E+01  0.12205058963E+02 -0.25041090858E+01  0.14977368456E+02  0.51100000000E-03 0.  1.
        -12    1    3    3    0    0 -0.19916880421E+00 -0.49841619732E+01  0.97023151381E+01  0.10909466432E+02  0.00000000000E+00 0.  1.
</event>
<event>
 7    1  0.1290195E-011  0.5930195E+02  0.7816164E-02  0.1266605E+00
        -11   -1    0    0    0    0  0.00000000000E+00  0.00000000000E+00  0.45593999997E+02  0.45594000000E+02  0.51100000000E-03 0.  1.
         11   -1    0    0    0    0 -0.00000000000E+00 -0.00000000000E+00 -0.45593999997E+02  0.45594000000E+02  0.51100000000E-03 0. -1.
    9900012    2    1    2    0    0 -0.24450770159E+02 -0.46316357006E+00 -0.20461320345E+02  0.59301948001E+02  0.50000007245E+02 0.  0.
        -12    1    1    2    0    0  0.24450770159E+02  0.46316357006E+00  0.20461320345E+02  0.31886051999E+02  0.00000000000E+00 0.  1.
         11    1    3    3    0    0  0.63348224103E+01 -0.32882236474E+01  0.15780058026E+01  0.73097532311E+01  0.51100000000E-03 0. -1.
        -11    1    3    3    0    0 -0.71448669032E+01 -0.85533841123E+01  0.67591965059E+01  0.13034425208E+02  0.51100000000E-03 0.  1.
         12    1    3    3    0    0 -0.23640725666E+02  0.11378444190E+02 -0.28798522653E+02  0.38957769561E+02  0.00000000000E+00 0. -1.
</event>
<event>
 7    1  0.1290195E-011  0.5930202E+02  0.7816164E-02  0.1266604E+00
        -11   -1    0    0    0    0  0.00000000000E+00  0.00000000000E+00  0.45593999997E+02  0.45594000000E+02  0.51100000000E-03 0.  1.
         11   -1    0    0    0    0 -0.00000000000E+00 -0.00000000000E+00 -0.45593999997E+02  0.45594000000E+02  0.51100000000E-03 0. -1.
    9900012    2    1    2    0    0  0.18067598200E+02 -0.12891418206E+02 -0.22892989806E+02  0.59302019533E+02  0.50000137704E+02 0.  0.
        -12    1    1    2    0    0 -0.18067598200E+02  0.12891418206E+02  0.22892989806E+02  0.31885980467E+02  0.00000000000E+00 0.  1.
         11    1    3    3    0    0  0.24219665922E+02 -0.31242276021E+01 -0.20489515194E+02  0.31877472432E+02  0.51100000000E-03 0. -1.
        -11    1    3    3    0    0  0.93471218954E+00 -0.10911505270E+02 -0.11471064004E+02  0.15859380308E+02  0.51100000000E-03 0.  1.
        -12    1    3    3    0    0 -0.70867799120E+01  0.11443146662E+01  0.90675893918E+01  0.11565166793E+02  0.00000000000E+00 0.  1.
</event>
<event>
 7    1  0.1574993E-011  0.5930186E+02  0.7816164E-02  0.1266605E+00
        -11   -1    0    0    0    0  0.00000000000E+00  0.00000000000E+00  0.45593999997E+02  0.45594000000E+02  0.51100000000E-03 0. -1.
         11   -1    0    0    0    0 -0.00000000000E+00 -0.00000000000E+00 -0.45593999997E+02  0.45594000000E+02  0.51100000000E-03 0.  1.
    9900012    2    1    2    0    0  0.10369840960E+01  0.30336189432E+02  0.97655533221E+01  0.59301862621E+02  0.49999851534E+02 0.  0.
        -12    1    1    2    0    0 -0.10369840960E+01 -0.30336189432E+02 -0.97655533221E+01  0.31886137379E+02  0.00000000000E+00 0.  1.
         11    1    3    3    0    0  0.13118424516E+02  0.28037951293E+02  0.25380666622E+01  0.31059001226E+02  0.51100000000E-03 0. -1.
        -11    1    3    3    0    0 -0.93091473716E+01  0.53702247624E+01 -0.73954172433E+01  0.13045755450E+02  0.51100000000E-03 0.  1.
        -12    1    3    3    0    0 -0.27722930484E+01 -0.30719866239E+01  0.14622903903E+02  0.15197105946E+02  0.00000000000E+00 0.  1.
</event>
<event>
 7    1  0.1290195E-011  0.5930193E+02  0.7816164E-02  0.1266605E+00
        -11   -1    0    0    0    0  0.00000000000E+00  0.00000000000E+00  0.45593999997E+02  0.45594000000E+02  0.51100000000E-03 0.  1.
         11   -1    0    0    0    0 -0.00000000000E+00 -0.00000000000E+00 -0.45593999997E+02  0.45594000000E+02  0.51100000000E-03 0. -1.
    9900012    2    1    2    0    0 -0.24283861573E+02  0.18034581441E+02 -0.10088067452E+02  0.59301934617E+02  0.49999982838E+02 0.  0.
        -12    1    1    2    0    0  0.24283861573E+02 -0.18034581441E+02  0.10088067452E+02  0.31886065383E+02  0.00000000000E+00 0.  1.
         11    1    3    3    0    0  0.69926701511E+01  0.44695877925E+01  0.38034475829E+01  0.91291217899E+01  0.51100000000E-03 0. -1.
        -11    1    3    3    0    0 -0.19043624252E+02  0.80640771837E+01  0.98483609028E+01  0.22905876499E+02  0.51100000000E-03 0.  1.
         12    1    3    3    0    0 -0.12232907473E+02  0.55009164651E+01 -0.23739875938E+02  0.27266936328E+02  0.00000000000E+00 0. -1.
</event>
<event>
 7    1  0.1290195E-011  0.5930193E+02  0.7816164E-02  0.1266605E+00
        -11   -1    0    0    0    0  0.00000000000E+00  0.00000000000E+00  0.45593999997E+02  0.45594000000E+02  0.51100000000E-03 0.  1.
         11   -1    0    0    0    0 -0.00000000000E+00 -0.00000000000E+00 -0.45593999997E+02  0.45594000000E+02  0.51100000000E-03 0. -1.
    9900012    2    1    2    0    0 -0.26720892541E+02  0.12481152747E+01 -0.17353891276E+02  0.59301930435E+02  0.49999975209E+02 0.  0.
        -12    1    1    2    0    0  0.26720892541E+02 -0.12481152747E+01  0.17353891276E+02  0.31886069565E+02  0.00000000000E+00 0.  1.
         11    1    3    3    0    0 -0.21213454657E+02 -0.13517247784E+02 -0.48301975748E+01  0.25613618545E+02  0.51100000000E-03 0. -1.
        -11    1    3    3    0    0  0.35861269679E+01  0.11995924317E+01 -0.16460164240E+02  0.16888941225E+02  0.51100000000E-03 0.  1.
        -12    1    3    3    0    0 -0.90935648521E+01  0.13565770627E+02  0.39364705385E+01  0.16799370664E+02  0.00000000000E+00 0.  1.
</event>
<event>
 7    1  0.1290195E-011  0.5930198E+02  0.7816164E-02  0.1266605E+00
        -11   -1    0    0    0    0  0.00000000000E+00  0.00000000000E+00  0.45593999997E+02  0.45594000000E+02  0.51100000000E-03 0.  1.
         11   -1    0    0    0    0 -0.00000000000E+00 -0.00000000000E+00 -0.45593999997E+02  0.45594000000E+02  0.51100000000E-03 0. -1.
    9900012    2    1    2    0    0  0.31783042293E+02 -0.24534677593E+01  0.73291460644E+00  0.59301977274E+02  0.50000060633E+02 0.  0.
        -12    1    1    2    0    0 -0.31783042293E+02  0.24534677593E+01 -0.73291460644E+00  0.31886022726E+02  0.00000000000E+00 0.  1.
         11    1    3    3    0    0  0.58679348722E+01 -0.10441456468E+02  0.48488534095E+01  0.12921611838E+02  0.51100000000E-03 0. -1.
        -11    1    3    3    0    0 -0.16648575893E+01 -0.11921062728E+01  0.12656328943E+02  0.12820902103E+02  0.51100000000E-03 0.  1.
         12    1    3    3    0    0  0.27579965011E+02  0.91800949818E+01 -0.16772267746E+02  0.33559463333E+02  0.00000000000E+00 0. -1.
</event>
<event>
 7    1  0.1290195E-011  0.5930192E+02  0.7816164E-02  0.1266605E+00
        -11   -1    0    0    0    0  0.00000000000E+00  0.00000000000E+00  0.45593999997E+02  0.45594000000E+02  0.51100000000E-03 0. -1.
         11   -1    0    0    0    0 -0.00000000000E+00 -0.00000000000E+00 -0.45593999997E+02  0.45594000000E+02  0.51100000000E-03 0.  1.
    9900012    2    1    2    0    0 -0.16844924189E+02  0.24701954770E+02 -0.11080806675E+02  0.59301916562E+02  0.49999949910E+02 0.  0.
        -12    1    1    2    0    0  0.16844924189E+02 -0.24701954770E+02  0.11080806675E+02  0.31886083438E+02  0.00000000000E+00 0.  1.
         11    1    3    3    0    0 -0.13467778259E+02  0.10810864427E+02  0.11245705627E+02  0.20608778135E+02  0.51100000000E-03 0. -1.
        -11    1    3    3    0    0  0.34166209871E+01  0.16460974601E+02 -0.17862957559E+01  0.16906443640E+02  0.51100000000E-03 0.  1.
         12    1    3    3    0    0 -0.67937669173E+01 -0.25698842570E+01 -0.20540216546E+02  0.21786694788E+02  0.00000000000E+00 0. -1.
</event>
<event>
 7    1  0.1290195E-011  0.5930195E+02  0.7816164E-02  0.1266605E+00
        -11   -1    0    0    0    0  0.00000000000E+00  0.00000000000E+00  0.45593999997E+02  0.45594000000E+02  0.51100000000E-03 0.  1.
         11   -1    0    0    0    0 -0.00000000000E+00 -0.00000000000E+00 -0.45593999997E+02  0.45594000000E+02  0.51100000000E-03 0. -1.
    9900012    2    1    2    0    0 -0.54971961042E+01 -0.28975279466E+02 -0.12121630905E+02  0.59301954134E+02  0.50000018432E+02 0.  0.
        -12    1    1    2    0    0  0.54971961042E+01  0.28975279466E+02  0.12121630905E+02  0.31886045866E+02  0.00000000000E+00 0.  1.
         11    1    3    3    0    0 -0.17847459673E+02 -0.35124678390E+01 -0.11035338456E+02  0.21275524487E+02  0.51100000000E-03 0. -1.
        -11    1    3    3    0    0 -0.78237932326E+01 -0.50890307447E+01  0.15094806600E-01  0.93332846620E+01  0.51100000000E-03 0.  1.
         12    1    3    3    0    0  0.20174056801E+02 -0.20373780883E+02 -0.11013872558E+01  0.28693144986E+02  0.00000000000E+00 0. -1.
</event>
<event>
 7    1  0.1290195E-011  0.5930195E+02  0.7816164E-02  0.1266605E+00
        -11   -1    0    0    0    0  0.00000000000E+00  0.00000000000E+00  0.45593999997E+02  0.45594000000E+02  0.51100000000E-03 0. -1.
         11   -1    0    0    0    0 -0.00000000000E+00 -0.00000000000E+00 -0.45593999997E+02  0.45594000000E+02  0.51100000000E-03 0.  1.
    9900012    2    1    2    0    0  0.66697483500E+00 -0.10211797286E+00  0.31878913312E+02  0.59301946662E+02  0.50000004805E+02 0.  0.
        -12    1    1    2    0    0 -0.66697483500E+00  0.10211797286E+00 -0.31878913312E+02  0.31886053338E+02  0.00000000000E+00 0.  1.
         11    1    3    3    0    0  0.49170456065E+01  0.11454526861E+02  0.24300151669E+02  0.27310820099E+02  0.51100000000E-03 0. -1.
        -11    1    3    3    0    0  0.10161666375E+02 -0.23744431871E+01 -0.41869358769E+01  0.11244015131E+02  0.51100000000E-03 0.  1.
         12    1    3    3    0    0 -0.14411737146E+02 -0.91822016467E+01  0.11765697520E+02  0.20747111432E+02  0.00000000000E+00 0. -1.
</event>
<event>
 7    1  0.1290195E-011  0.5930175E+02  0.7816164E-02  0.1266605E+00
        -11   -1    0    0    0    0  0.00000000000E+00  0.00000000000E+00  0.45593999997E+02  0.45594000000E+02  0.51100000000E-03 0. -1.
         11   -1    0    0    0    0 -0.00000000000E+00 -0.00000000000E+00 -0.45593999997E+02  0.45594000000E+02  0.51100000000E-03 0.  1.
    9900012    2    1    2    0    0 -0.29569715925E+02  0.11684565108E+02  0.24156697239E+01  0.59301754974E+02  0.49999655210E+02 0.  0.
        -12    1    1    2    0    0  0.29569715925E+02 -0.11684565108E+02 -0.24156697239E+01  0.31886245026E+02  0.00000000000E+00 0.  1.
         11    1    3    3    0    0 -0.29930084461E+01 -0.56836516804E+01  0.66869276962E+01  0.92723782418E+01  0.51100000000E-03 0. -1.
        -11    1    3    3    0    0 -0.10923986199E+02 -0.68210559199E+01 -0.14557246114E+02  0.19436401237E+02  0.51100000000E-03 0.  1.
         12    1    3    3    0    0 -0.15652721279E+02  0.24189272708E+02  0.10285988142E+02  0.30592975495E+02  0.00000000000E+00 0. -1.
</event>
<event>
 7    1  0.1368278E-011  0.5930194E+02  0.7816164E-02  0.1266605E+00
        -11   -1    0    0    0    0  0.00000000000E+00  0.00000000000E+00  0.45593999997E+02  0.45594000000E+02  0.51100000000E-03 0. -1.
         11   -1    0    0    0    0 -0.00000000000E+00 -0.00000000000E+00 -0.45593999997E+02  0.45594000000E+02  0.51100000000E-03 0.  1.
    9900012    2    1    2    0    0  0.27995469703E+02  0.67311482849E-01  0.15263356906E+02  0.59301938488E+02  0.49999989897E+02 0.  0.
        -12    1    1    2    0    0 -0.27995469703E+02 -0.67311482849E-01 -0.15263356906E+02  0.31886061512E+02  0.00000000000E+00 0.  1.
         11    1    3    3    0    0  0.21948048592E+02 -0.10821017982E+02  0.74514123901E+01  0.25579969000E+02  0.51100000000E-03 0. -1.
        -11    1    3    3    0    0  0.17451147564E+01  0.60745194272E+00 -0.11379866007E+02  0.11528910355E+02  0.51100000000E-03 0.  1.
         12    1    3    3    0    0  0.43023063545E+01  0.10280877522E+02  0.19191810522E+02  0.22193059134E+02  0.00000000000E+00 0. -1.
</event>
<event>
 7    1  0.1290195E-011  0.5930196E+02  0.7816164E-02  0.1266605E+00
        -11   -1    0    0    0    0  0.00000000000E+00  0.00000000000E+00  0.45593999997E+02  0.45594000000E+02  0.51100000000E-03 0.  1.
         11   -1    0    0    0    0 -0.00000000000E+00 -0.00000000000E+00 -0.45593999997E+02  0.45594000000E+02  0.51100000000E-03 0. -1.
    9900012    2    1    2    0    0 -0.15853327018E+02 -0.24657791299E+02 -0.12545315392E+02  0.59301959362E+02  0.50000027966E+02 0.  0.
        -12    1    1    2    0    0  0.15853327018E+02  0.24657791299E+02  0.12545315392E+02  0.31886040638E+02  0.00000000000E+00 0.  1.
         11    1    3    3    0    0 -0.12458504089E+02 -0.85839988287E+01 -0.15370111862E+02  0.21567097601E+02  0.51100000000E-03 0. -1.
        -11    1    3    3    0    0 -0.16402290290E+02 -0.10453334739E+02  0.99798469946E+01  0.21861031088E+02  0.51100000000E-03 0.  1.
         12    1    3    3    0    0  0.13007467360E+02 -0.56204577314E+01 -0.71550505248E+01  0.15873830673E+02  0.00000000000E+00 0. -1.
</event>
<event>
 7    1  0.1290195E-011  0.5930194E+02  0.7816164E-02  0.1266605E+00
        -11   -1    0    0    0    0  0.00000000000E+00  0.00000000000E+00  0.45593999997E+02  0.45594000000E+02  0.51100000000E-03 0. -1.
         11   -1    0    0    0    0 -0.00000000000E+00 -0.00000000000E+00 -0.45593999997E+02  0.45594000000E+02  0.51100000000E-03 0.  1.
    9900012    2    1    2    0    0  0.21028489990E+00  0.30736825239E+01  0.31736872162E+02  0.59301940371E+02  0.49999993331E+02 0.  0.
        -12    1    1    2    0    0 -0.21028489990E+00 -0.30736825239E+01 -0.31736872162E+02  0.31886059629E+02  0.00000000000E+00 0.  1.
         11    1    3    3    0    0  0.12683032884E+02 -0.72900814329E+01  0.21011443185E+02  0.25602448231E+02  0.51100000000E-03 0. -1.
        -11    1    3    3    0    0  0.53062989856E+01  0.78461917253E+01 -0.41889898231E+01  0.10356986507E+02  0.51100000000E-03 0.  1.
         12    1    3    3    0    0 -0.17779046969E+02  0.25175722316E+01  0.14914418801E+02  0.23342505633E+02  0.00000000000E+00 0. -1.
</event>
<event>
 7    1  0.1290195E-011  0.5930193E+02  0.7816164E-02  0.1266605E+00
        -11   -1    0    0    0    0  0.00000000000E+00  0.00000000000E+00  0.45593999997E+02  0.45594000000E+02  0.51100000000E-03 0. -1.
         11   -1    0    0    0    0 -0.00000000000E+00 -0.00000000000E+00 -0.45593999997E+02  0.45594000000E+02  0.51100000000E-03 0.  1.
    9900012    2    1    2    0    0 -0.99556127649E+01 -0.53100645929E+01 -0.29822982263E+02  0.59301932783E+02  0.49999979492E+02 0.  0.
        -12    1    1    2    0    0  0.99556127649E+01  0.53100645929E+01  0.29822982263E+02  0.31886067217E+02  0.00000000000E+00 0.  1.
         11    1    3    3    0    0 -0.31404579592E+01  0.12823910167E+02 -0.36199038930E+01  0.13690100533E+02  0.51100000000E-03 0. -1.
        -11    1    3    3    0    0 -0.57064179892E+01  0.83334402429E+01 -0.11533236076E+02  0.15330524035E+02  0.51100000000E-03 0.  1.
        -12    1    3    3    0    0 -0.11087368165E+01 -0.26467415002E+02 -0.14669842294E+02  0.30281308214E+02  0.00000000000E+00 0.  1.
</event>
<event>
 7    1  0.1290195E-011  0.5930188E+02  0.7816164E-02  0.1266605E+00
        -11   -1    0    0    0    0  0.00000000000E+00  0.00000000000E+00  0.45593999997E+02  0.45594000000E+02  0.51100000000E-03 0. -1.
         11   -1    0    0    0    0 -0.00000000000E+00 -0.00000000000E+00 -0.45593999997E+02  0.45594000000E+02  0.51100000000E-03 0.  1.
    9900012    2    1    2    0    0  0.19329427910E+02 -0.25244739801E+02  0.24084878413E+01  0.59301882572E+02  0.49999887920E+02 0.  0.
        -12    1    1    2    0    0 -0.19329427910E+02  0.25244739801E+02 -0.24084878413E+01  0.31886117428E+02  0.00000000000E+00 0.  1.
         11    1    3    3    0    0  0.17462107649E+02 -0.26493342440E+02 -0.24490617419E+01  0.31824837798E+02  0.51100000000E-03 0. -1.
        -11    1    3    3    0    0  0.11809539095E+02 -0.17367847900E+00 -0.55184260453E+01  0.13036426049E+02  0.51100000000E-03 0.  1.
        -12    1    3    3    0    0 -0.99422188346E+01  0.14222811178E+01  0.10375975628E+02  0.14440618726E+02  0.00000000000E+00 0.  1.
</event>
<event>
 7    1  0.1290195E-011  0.5930195E+02  0.7816164E-02  0.1266605E+00
        -11   -1    0    0    0    0  0.00000000000E+00  0.00000000000E+00  0.45593999997E+02  0.45594000000E+02  0.51100000000E-03 0.  1.
         11   -1    0    0    0    0 -0.00000000000E+00 -0.00000000000E+00 -0.45593999997E+02  0.45594000000E+02  0.51100000000E-03 0. -1.
    9900012    2    1    2    0    0 -0.27099000957E+02 -0.15580161861E+02  0.62946749537E+01  0.59301949300E+02  0.50000009616E+02 0.  0.
        -12    1    1    2    0    0  0.27099000957E+02  0.15580161861E+02 -0.62946749537E+01  0.31886050700E+02  0.00000000000E+00 0.  1.
         11    1    3    3    0    0 -0.37702375490E+01 -0.31499759453E+01 -0.11380569228E+02  0.12395741037E+02  0.51100000000E-03 0. -1.
        -11    1    3    3    0    0 -0.11091629864E+02  0.32762851268E+01 -0.82580226580E+01  0.14211025147E+02  0.51100000000E-03 0.  1.
        -12    1    3    3    0    0 -0.12237133544E+02 -0.15706471042E+02  0.25933266840E+02  0.32695183116E+02  0.00000000000E+00 0.  1.
</event>
<event>
 7    1  0.1290195E-011  0.5930196E+02  0.7816164E-02  0.1266605E+00
        -11   -1    0    0    0    0  0.00000000000E+00  0.00000000000E+00  0.45593999997E+02  0.45594000000E+02  0.51100000000E-03 0.  1.
         11   -1    0    0    0    0 -0.00000000000E+00 -0.00000000000E+00 -0.45593999997E+02  0.45594000000E+02  0.51100000000E-03 0. -1.
    9900012    2    1    2    0    0 -0.25502746618E+01 -0.29623649125E+01 -0.31645538778E+02  0.59301958676E+02  0.50000026716E+02 0.  0.
        -12    1    1    2    0    0  0.25502746618E+01  0.29623649125E+01  0.31645538778E+02  0.31886041324E+02  0.00000000000E+00 0.  1.
         11    1    3    3    0    0 -0.13064152422E+02  0.41929477349E+01 -0.22076160380E+02  0.25992494044E+02  0.51100000000E-03 0.  1.
        -11    1    3    3    0    0  0.52820373047E+00 -0.15107390957E+02 -0.13167036183E+02  0.20047022293E+02  0.51100000000E-03 0. -1.
        -12    1    3    3    0    0  0.99856740298E+01  0.79520783095E+01  0.35976577855E+01  0.13262442340E+02  0.00000000000E+00 0.  1.
</event>
<event>
 7    1  0.1290195E-011  0.5930191E+02  0.7816164E-02  0.1266605E+00
        -11   -1    0    0    0    0  0.00000000000E+00  0.00000000000E+00  0.45593999997E+02  0.45594000000E+02  0.51100000000E-03 0.  1.
         11   -1    0    0    0    0 -0.00000000000E+00 -0.00000000000E+00 -0.45593999997E+02  0.45594000000E+02  0.51100000000E-03 0. -1.
    9900012    2    1    2    0    0  0.94383615569E+01 -0.73743297777E+01 -0.29550956234E+02  0.59301914902E+02  0.49999946881E+02 0.  0.
        -12    1    1    2    0    0 -0.94383615569E+01  0.73743297777E+01  0.29550956234E+02  0.31886085098E+02  0.00000000000E+00 0.  1.
         11    1    3    3    0    0 -0.79037110013E+01  0.71293844167E+01  0.18581080477E+01  0.10805060644E+02  0.51100000000E-03 0. -1.
        -11    1    3    3    0    0  0.12269194720E+02 -0.48516767374E+00  0.14984525209E+01  0.12369878212E+02  0.51100000000E-03 0.  1.
        -12    1    3    3    0    0  0.50728778382E+01 -0.14018546521E+02 -0.32907516802E+02  0.36126976046E+02  0.00000000000E+00 0.  1.
</event>
<event>
 7    1  0.1290195E-011  0.5930195E+02  0.7816164E-02  0.1266605E+00
        -11   -1    0    0    0    0  0.00000000000E+00  0.00000000000E+00  0.45593999997E+02  0.45594000000E+02  0.51100000000E-03 0. -1.
         11   -1    0    0    0    0 -0.00000000000E+00 -0.00000000000E+00 -0.45593999997E+02  0.45594000000E+02  0.51100000000E-03 0.  1.
    9900012    2    1    2    0    0 -0.14577919636E+02 -0.16189821788E+02  0.23282918208E+02  0.59301947395E+02  0.50000006142E+02 0.  0.
        -12    1    1    2    0    0  0.14577919636E+02  0.16189821788E+02 -0.23282918208E+02  0.31886052605E+02  0.00000000000E+00 0.  1.
         11    1    3    3    0    0 -0.11311218912E+02 -0.90216056204E+01  0.64581875988E+01  0.15844280627E+02  0.51100000000E-03 0. -1.
        -11    1    3    3    0    0 -0.90500347460E+01  0.18966464282E+01 -0.10560832638E+02  0.14036793895E+02  0.51100000000E-03 0.  1.
         12    1    3    3    0    0  0.57833340225E+01 -0.90648625958E+01  0.27385563247E+02  0.29420872874E+02  0.00000000000E+00 0. -1.
</event>
<event>
 7    1  0.1290195E-011  0.5930195E+02  0.7816164E-02  0.1266605E+00
        -11   -1    0    0    0    0  0.00000000000E+00  0.00000000000E+00  0.45593999997E+02  0.45594000000E+02  0.51100000000E-03 0.  1.
         11   -1    0    0    0    0 -0.00000000000E+00 -0.00000000000E+00 -0.45593999997E+02  0.45594000000E+02  0.51100000000E-03 0. -1.
    9900012    2    1    2    0    0  0.22568307972E+02 -0.16849803976E+02 -0.14949113719E+02  0.59301946313E+02  0.50000004169E+02 0.  0.
        -12    1    1    2    0    0 -0.22568307972E+02  0.16849803976E+02  0.14949113719E+02  0.31886053687E+02  0.00000000000E+00 0.  1.
         11    1    3    3    0    0  0.81639869738E+01  0.22953890042E+01 -0.28234105282E+01  0.89381844499E+01  0.51100000000E-03 0. -1.
        -11    1    3    3    0    0  0.26596907532E+02 -0.13274437101E+02  0.32249633522E+01  0.29899942467E+02  0.51100000000E-03 0.  1.
         12    1    3    3    0    0 -0.12192586535E+02 -0.58707558785E+01 -0.15350666543E+02  0.20463819397E+02  0.00000000000E+00 0. -1.
</event>
<event>
 7    1  0.1290195E-011  0.5930191E+02  0.7816164E-02  0.1266605E+00
        -11   -1    0    0    0    0  0.00000000000E+00  0.00000000000E+00  0.45593999997E+02  0.45594000000E+02  0.51100000000E-03 0.  1.
         11   -1    0    0    0    0 -0.00000000000E+00 -0.00000000000E+00 -0.45593999997E+02  0.45594000000E+02  0.51100000000E-03 0. -1.
    9900012    2    1    2    0    0 -0.20644939561E+02  0.17151122810E+02 -0.17214758929E+02  0.59301914193E+02  0.49999945588E+02 0.  0.
        -12    1    1    2    0    0  0.20644939561E+02 -0.17151122810E+02  0.17214758929E+02  0.31886085807E+02  0.00000000000E+00 0.  1.
         11    1    3    3    0    0 -0.48318018463E-01  0.19141797071E+02 -0.20545950437E+01  0.19251807468E+02  0.51100000000E-03 0. -1.
        -11    1    3    3    0    0 -0.56328738476E+01  0.10579130222E+02  0.40457582569E+01  0.12649720320E+02  0.51100000000E-03 0.  1.
         12    1    3    3    0    0 -0.14963747695E+02 -0.12569804482E+02 -0.19205922142E+02  0.27400386405E+02  0.00000000000E+00 0. -1.
</event>
<event>
 7    1  0.1290195E-011  0.5930194E+02  0.7816164E-02  0.1266605E+00
        -11   -1    0    0    0    0  0.00000000000E+00  0.00000000000E+00  0.45593999997E+02  0.45594000000E+02  0.51100000000E-03 0.  1.
         11   -1    0    0    0    0 -0.00000000000E+00 -0.00000000000E+00 -0.45593999997E+02  0.45594000000E+02  0.51100000000E-03 0. -1.
    9900012    2    1    2    0    0  0.12173129813E+02  0.84151935404E+01 -0.28243946959E+02  0.59301935465E+02  0.49999984383E+02 0.  0.
        -12    1    1    2    0    0 -0.12173129813E+02 -0.84151935404E+01  0.28243946959E+02  0.31886064535E+02  0.00000000000E+00 0.  1.
         11    1    3    3    0    0 -0.94720033035E+01 -0.81620154921E+01 -0.17343916545E+02  0.21381037974E+02  0.51100000000E-03 0. -1.
        -11    1    3    3    0    0  0.69242745377E+01  0.15610223415E+02 -0.14869657026E+02  0.22643572008E+02  0.51100000000E-03 0.  1.
        -12    1    3    3    0    0  0.14720858578E+02  0.96698561736E+00  0.39696266119E+01  0.15277325483E+02  0.00000000000E+00 0.  1.
</event>
<event>
 7    1  0.1290195E-011  0.5930195E+02  0.7816164E-02  0.1266605E+00
        -11   -1    0    0    0    0  0.00000000000E+00  0.00000000000E+00  0.45593999997E+02  0.45594000000E+02  0.51100000000E-03 0.  1.
         11   -1    0    0    0    0 -0.00000000000E+00 -0.00000000000E+00 -0.45593999997E+02  0.45594000000E+02  0.51100000000E-03 0. -1.
    9900012    2    1    2    0    0 -0.18813480120E+02 -0.22422428798E+02 -0.12649420972E+02  0.59301949784E+02  0.50000010498E+02 0.  0.
        -12    1    1    2    0    0  0.18813480120E+02  0.22422428798E+02  0.12649420972E+02  0.31886050216E+02  0.00000000000E+00 0.  1.
         11    1    3    3    0    0 -0.26239370513E+02 -0.17769664024E+02 -0.10936212885E+02  0.33524114858E+02  0.51100000000E-03 0. -1.
        -11    1    3    3    0    0  0.11832455865E+01 -0.11133244599E+02 -0.88674326176E+01  0.14282176547E+02  0.51100000000E-03 0.  1.
        -12    1    3    3    0    0  0.62426448068E+01  0.64804798250E+01  0.71542245306E+01  0.11495658380E+02  0.00000000000E+00 0.  1.
</event>
<event>
 7    1  0.1290195E-011  0.5930195E+02  0.7816164E-02  0.1266605E+00
        -11   -1    0    0    0    0  0.00000000000E+00  0.00000000000E+00  0.45593999997E+02  0.45594000000E+02  0.51100000000E-03 0.  1.
         11   -1    0    0    0    0 -0.00000000000E+00 -0.00000000000E+00 -0.45593999997E+02  0.45594000000E+02  0.51100000000E-03 0. -1.
    9900012    2    1    2    0    0  0.47706786551E+01 -0.29528566144E+01 -0.31388557609E+02  0.59301948414E+02  0.50000007999E+02 0.  0.
        -12    1    1    2    0    0 -0.47706786551E+01  0.29528566144E+01  0.31388557609E+02  0.31886051586E+02  0.00000000000E+00 0.  1.
         11    1    3    3    0    0 -0.11258165133E+02 -0.10180999724E+02  0.52989979046E+01  0.16077263965E+02  0.51100000000E-03 0. -1.
        -11    1    3    3    0    0 -0.13911596333E+01 -0.25013807958E+01 -0.55090706637E+01  0.62082276738E+01  0.51100000000E-03 0.  1.
        -12    1    3    3    0    0  0.17420003422E+02  0.97295239053E+01 -0.31178484850E+02  0.37016456775E+02  0.00000000000E+00 0.  1.
</event>
<event>
 7    1  0.1290195E-011  0.5930182E+02  0.7816164E-02  0.1266605E+00
        -11   -1    0    0    0    0  0.00000000000E+00  0.00000000000E+00  0.45593999997E+02  0.45594000000E+02  0.51100000000E-03 0.  1.
         11   -1    0    0    0    0 -0.00000000000E+00 -0.00000000000E+00 -0.45593999997E+02  0.45594000000E+02  0.51100000000E-03 0. -1.
    9900012    2    1    2    0    0 -0.25861445773E+02  0.14647176542E+02 -0.11548783956E+02  0.59301818526E+02  0.49999771114E+02 0.  0.
        -12    1    1    2    0    0  0.25861445773E+02 -0.14647176542E+02  0.11548783956E+02  0.31886181474E+02  0.00000000000E+00 0.  1.
         11    1    3    3    0    0  0.67411967546E+00  0.16169809763E+02  0.30819677597E+01  0.16474699106E+02  0.51100000000E-03 0. -1.
        -11    1    3    3    0    0 -0.25828401035E+02  0.15700326519E+01  0.19463530603E+01  0.25949173263E+02  0.51100000000E-03 0.  1.
         12    1    3    3    0    0 -0.70716441383E+00 -0.30926658725E+01 -0.16577104776E+02  0.16877946157E+02  0.00000000000E+00 0. -1.
</event>
<event>
 7    1  0.1290195E-011  0.5930195E+02  0.7816164E-02  0.1266605E+00
        -11   -1    0    0    0    0  0.00000000000E+00  0.00000000000E+00  0.45593999997E+02  0.45594000000E+02  0.51100000000E-03 0.  1.
         11   -1    0    0    0    0 -0.00000000000E+00 -0.00000000000E+00 -0.45593999997E+02  0.45594000000E+02  0.51100000000E-03 0. -1.
    9900012    2    1    2    0    0 -0.48903813012E+01 -0.16690284385E+02 -0.26725250322E+02  0.59301946201E+02  0.50000003964E+02 0.  0.
        -12    1    1    2    0    0  0.48903813012E+01  0.16690284385E+02  0.26725250322E+02  0.31886053799E+02  0.00000000000E+00 0.  1.
         11    1    3    3    0    0 -0.75289128250E+01  0.22039222950E+00 -0.29955500965E+02  0.30887944888E+02  0.51100000000E-03 0. -1.
        -11    1    3    3    0    0 -0.62968731546E+01 -0.49475147683E+01  0.93202582149E+01  0.12288031875E+02  0.51100000000E-03 0.  1.
        -12    1    3    3    0    0  0.89354046784E+01 -0.11963161846E+02 -0.60900075714E+01  0.16125969439E+02  0.00000000000E+00 0.  1.
</event>
<event>
 7    1  0.1290195E-011  0.5930195E+02  0.7816164E-02  0.1266605E+00
        -11   -1    0    0    0    0  0.00000000000E+00  0.00000000000E+00  0.45593999997E+02  0.45594000000E+02  0.51100000000E-03 0.  1.
         11   -1    0    0    0    0 -0.00000000000E+00 -0.00000000000E+00 -0.45593999997E+02  0.45594000000E+02  0.51100000000E-03 0. -1.
    9900012    2    1    2    0    0  0.22058867688E+02 -0.20298256957E+01 -0.22934828985E+02  0.59301949498E+02  0.50000009977E+02 0.  0.
        -12    1    1    2    0    0 -0.22058867688E+02  0.20298256957E+01  0.22934828985E+02  0.31886050502E+02  0.00000000000E+00 0.  1.
         11    1    3    3    0    0  0.45171184088E+01 -0.23367104271E+01 -0.58877041587E+01  0.77800793608E+01  0.51100000000E-03 0. -1.
        -11    1    3    3    0    0  0.28222324998E+02  0.19398247773E+01 -0.25279494374E+02  0.37938310249E+02  0.51100000000E-03 0.  1.
         12    1    3    3    0    0 -0.10680575719E+02 -0.16329400459E+01  0.82323695477E+01  0.13583559889E+02  0.00000000000E+00 0. -1.
</event>
<event>
 7    1  0.1290195E-011  0.5930196E+02  0.7816164E-02  0.1266605E+00
        -11   -1    0    0    0    0  0.00000000000E+00  0.00000000000E+00  0.45593999997E+02  0.45594000000E+02  0.51100000000E-03 0.  1.
         11   -1    0    0    0    0 -0.00000000000E+00 -0.00000000000E+00 -0.45593999997E+02  0.45594000000E+02  0.51100000000E-03 0. -1.
    9900012    2    1    2    0    0 -0.51784227067E+01 -0.30063574378E+02 -0.92782155642E+01  0.59301955245E+02  0.50000020457E+02 0.  0.
        -12    1    1    2    0    0  0.51784227067E+01  0.30063574378E+02  0.92782155642E+01  0.31886044755E+02  0.00000000000E+00 0.  1.
         11    1    3    3    0    0  0.74071669026E+01 -0.30750899807E+02 -0.70782989921E+01  0.32412748685E+02  0.51100000000E-03 0. -1.
        -11    1    3    3    0    0  0.46476814577E+01 -0.66014814084E+01 -0.10670607055E+01  0.81436551087E+01  0.51100000000E-03 0.  1.
         12    1    3    3    0    0 -0.17233271067E+02  0.72888068375E+01 -0.11328558666E+01  0.18745551451E+02  0.00000000000E+00 0. -1.
</event>
<event>
 7    1  0.1290195E-011  0.5930189E+02  0.7816164E-02  0.1266605E+00
        -11   -1    0    0    0    0  0.00000000000E+00  0.00000000000E+00  0.45593999997E+02  0.45594000000E+02  0.51100000000E-03 0. -1.
         11   -1    0    0    0    0 -0.00000000000E+00 -0.00000000000E+00 -0.45593999997E+02  0.45594000000E+02  0.51100000000E-03 0.  1.
    9900012    2    1    2    0    0 -0.22967468914E+02 -0.15251856745E+02 -0.16018743120E+02  0.59301891839E+02  0.49999904821E+02 0.  0.
        -12    1    1    2    0    0  0.22967468914E+02  0.15251856745E+02  0.16018743120E+02  0.31886108161E+02  0.00000000000E+00 0.  1.
         11    1    3    3    0    0 -0.95178781479E+01 -0.71153225691E+01  0.13306424607E+02  0.17840368712E+02  0.51100000000E-03 0. -1.
        -11    1    3    3    0    0 -0.24108144746E+01  0.59691664599E+01  0.72480436675E+00  0.64782957858E+01  0.51100000000E-03 0.  1.
        -12    1    3    3    0    0 -0.11038776291E+02 -0.14105700636E+02 -0.30049972093E+02  0.34983227342E+02  0.00000000000E+00 0.  1.
</event>
<event>
 7    1  0.1290195E-011  0.5930192E+02  0.7816164E-02  0.1266605E+00
        -11   -1    0    0    0    0  0.00000000000E+00  0.00000000000E+00  0.45593999997E+02  0.45594000000E+02  0.51100000000E-03 0. -1.
         11   -1    0    0    0    0 -0.00000000000E+00 -0.00000000000E+00 -0.45593999997E+02  0.45594000000E+02  0.51100000000E-03 0.  1.
    9900012    2    1    2    0    0  0.16181227998E+02 -0.48147941396E+01  0.27050095896E+02  0.59301920434E+02  0.49999956971E+02 0.  0.
        -12    1    1    2    0    0 -0.16181227998E+02  0.48147941396E+01 -0.27050095896E+02  0.31886079566E+02  0.00000000000E+00 0.  1.
         11    1    3    3    0    0  0.19619533530E+02 -0.17946138044E+02  0.78979226434E+01  0.27737468323E+02  0.51100000000E-03 0.  1.
        -11    1    3    3    0    0 -0.50014502158E+00  0.11684625777E+01 -0.46192309087E+01  0.47909022415E+01  0.51100000000E-03 0. -1.
         12    1    3    3    0    0 -0.29381605107E+01  0.11962881327E+02  0.23771404161E+02  0.26773549869E+02  0.00000000000E+00 0. -1.
</event>
<event>
 7    1  0.1290195E-011  0.5930198E+02  0.7816164E-02  0.1266605E+00
        -11   -1    0    0    0    0  0.00000000000E+00  0.00000000000E+00  0.45593999997E+02  0.45594000000E+02  0.51100000000E-03 0.  1.
         11   -1    0    0    0    0 -0.00000000000E+00 -0.00000000000E+00 -0.45593999997E+02  0.45594000000E+02  0.51100000000E-03 0. -1.
    9900012    2    1    2    0    0 -0.12893425559E+02 -0.14985032884E+02 -0.25018526599E+02  0.59301979452E+02  0.50000064606E+02 0.  0.
        -12    1    1    2    0    0  0.12893425559E+02  0.14985032884E+02  0.25018526599E+02  0.31886020548E+02  0.00000000000E+00 0.  1.
         11    1    3    3    0    0 -0.12913511684E+02 -0.17882858286E+02 -0.47727480311E+01  0.22568440985E+02  0.51100000000E-03 0. -1.
        -11    1    3    3    0    0  0.48090580217E+01 -0.83382852991E+01  0.33269055437E+01  0.10184416603E+02  0.51100000000E-03 0.  1.
        -12    1    3    3    0    0 -0.47889718964E+01  0.11236110701E+02 -0.23572684112E+02  0.26549121864E+02  0.00000000000E+00 0.  1.
</event>
<event>
 7    1  0.1290195E-011  0.5930194E+02  0.7816164E-02  0.1266605E+00
        -11   -1    0    0    0    0  0.00000000000E+00  0.00000000000E+00  0.45593999997E+02  0.45594000000E+02  0.51100000000E-03 0. -1.
         11   -1    0    0    0    0 -0.00000000000E+00 -0.00000000000E+00 -0.45593999997E+02  0.45594000000E+02  0.51100000000E-03 0.  1.
    9900012    2    1    2    0    0 -0.25668741754E+02 -0.18459494909E+02 -0.41332052015E+01  0.59301942847E+02  0.49999997846E+02 0.  0.
        -12    1    1    2    0    0  0.25668741754E+02  0.18459494909E+02  0.41332052015E+01  0.31886057153E+02  0.00000000000E+00 0.  1.
         11    1    3    3    0    0 -0.14992326483E+01 -0.61724276394E+01 -0.72744475721E+01  0.96573365499E+01  0.51100000000E-03 0. -1.
        -11    1    3    3    0    0  0.11072806684E+01 -0.27228955163E+01 -0.16165812041E+02  0.16430876716E+02  0.51100000000E-03 0.  1.
         12    1    3    3    0    0 -0.25276789774E+02 -0.95641717537E+01  0.19307054411E+02  0.33213729581E+02  0.00000000000E+00 0. -1.
</event>
<event>
 7    1  0.1290195E-011  0.5930195E+02  0.7816164E-02  0.1266605E+00
        -11   -1    0    0    0    0  0.00000000000E+00  0.00000000000E+00  0.45593999997E+02  0.45594000000E+02  0.51100000000E-03 0.  1.
         11   -1    0    0    0    0 -0.00000000000E+00 -0.00000000000E+00 -0.45593999997E+02  0.45594000000E+02  0.51100000000E-03 0. -1.
    9900012    2    1    2    0    0 -0.11553692101E+01 -0.19968029503E+01 -0.31802481885E+02  0.59301953615E+02  0.50000017484E+02 0.  0.
        -12    1    1    2    0    0  0.11553692101E+01  0.19968029503E+01  0.31802481885E+02  0.31886046385E+02  0.00000000000E+00 0.  1.
         11    1    3    3    0    0  0.11585552601E+02 -0.97855183404E+01 -0.10548949343E+02  0.18473270711E+02  0.51100000000E-03 0. -1.
        -11    1    3    3    0    0  0.71367516464E+01 -0.43201423339E+01  0.12711394404E+01  0.84387587704E+01  0.51100000000E-03 0.  1.
         12    1    3    3    0    0 -0.19877673457E+02  0.12108857724E+02 -0.22524671982E+02  0.32389924133E+02  0.00000000000E+00 0. -1.
</event>
<event>
 7    1  0.1290195E-011  0.5930192E+02  0.7816164E-02  0.1266605E+00
        -11   -1    0    0    0    0  0.00000000000E+00  0.00000000000E+00  0.45593999997E+02  0.45594000000E+02  0.51100000000E-03 0. -1.
         11   -1    0    0    0    0 -0.00000000000E+00 -0.00000000000E+00 -0.45593999997E+02  0.45594000000E+02  0.51100000000E-03 0.  1.
    9900012    2    1    2    0    0 -0.65024952714E+01  0.80625249212E+00  0.31205605814E+02  0.59301916483E+02  0.49999949765E+02 0.  0.
        -12    1    1    2    0    0  0.65024952714E+01 -0.80625249212E+00 -0.31205605814E+02  0.31886083517E+02  0.00000000000E+00 0.  1.
         11    1    3    3    0    0 -0.34578475560E+01 -0.14163840490E+02  0.18677559014E+02  0.23694351608E+02  0.51100000000E-03 0. -1.
        -11    1    3    3    0    0  0.10455202014E+02  0.40680188018E+01  0.14288203761E+02  0.18166254240E+02  0.51100000000E-03 0.  1.
         12    1    3    3    0    0 -0.13499849730E+02  0.10902074180E+02 -0.17601569613E+01  0.17441310635E+02  0.00000000000E+00 0. -1.
</event>
<event>
 7    1  0.1290195E-011  0.5930189E+02  0.7816164E-02  0.1266605E+00
        -11   -1    0    0    0    0  0.00000000000E+00  0.00000000000E+00  0.45593999997E+02  0.45594000000E+02  0.51100000000E-03 0. -1.
         11   -1    0    0    0    0 -0.00000000000E+00 -0.00000000000E+00 -0.45593999997E+02  0.45594000000E+02  0.51100000000E-03 0.  1.
    9900012    2    1    2    0    0 -0.38292540336E+01  0.31207956419E+02 -0.53032216278E+01  0.59301891897E+02  0.49999904927E+02 0.  0.
        -12    1    1    2    0    0  0.38292540336E+01 -0.31207956419E+02  0.53032216278E+01  0.31886108103E+02  0.00000000000E+00 0.  1.
         11    1    3    3    0    0  0.11914556370E+02  0.85092922701E+01  0.26240724506E+01  0.14874490409E+02  0.51100000000E-03 0. -1.
        -11    1    3    3    0    0 -0.17083318555E+02 -0.30502969498E+01  0.32086170127E+00  0.17356469596E+02  0.51100000000E-03 0.  1.
         12    1    3    3    0    0  0.13395081514E+01  0.25748961099E+02 -0.82481557797E+01  0.27070931892E+02  0.00000000000E+00 0. -1.
</event>
<event>
 7    1  0.1290195E-011  0.5930194E+02  0.7816164E-02  0.1266605E+00
        -11   -1    0    0    0    0  0.00000000000E+00  0.00000000000E+00  0.45593999997E+02  0.45594000000E+02  0.51100000000E-03 0.  1.
         11   -1    0    0    0    0 -0.00000000000E+00 -0.00000000000E+00 -0.45593999997E+02  0.45594000000E+02  0.51100000000E-03 0. -1.
    9900012    2    1    2    0    0 -0.23116592353E+02 -0.20347695759E+02 -0.82653141599E+01  0.59301937482E+02  0.49999988062E+02 0.  0.
        -12    1    1    2    0    0  0.23116592353E+02  0.20347695759E+02  0.82653141599E+01  0.31886062518E+02  0.00000000000E+00 0.  1.
         11    1    3    3    0    0 -0.99288862313E+01 -0.37008908304E+01 -0.76118433098E+01  0.13046820822E+02  0.51100000000E-03 0. -1.
        -11    1    3    3    0    0 -0.27657030928E+02 -0.93352830517E+01  0.38163997683E+01  0.29438474431E+02  0.51100000000E-03 0.  1.
        -12    1    3    3    0    0  0.14469324806E+02 -0.73115218771E+01 -0.44698706184E+01  0.16816642229E+02  0.00000000000E+00 0.  1.
</event>
<event>
 7    1  0.1290195E-011  0.5930196E+02  0.7816164E-02  0.1266605E+00
        -11   -1    0    0    0    0  0.00000000000E+00  0.00000000000E+00  0.45593999997E+02  0.45594000000E+02  0.51100000000E-03 0. -1.
         11   -1    0    0    0    0 -0.00000000000E+00 -0.00000000000E+00 -0.45593999997E+02  0.45594000000E+02  0.51100000000E-03 0.  1.
    9900012    2    1    2    0    0  0.27183878200E+02  0.73814633105E+01  0.14942234475E+02  0.59301959077E+02  0.50000027447E+02 0.  0.
        -12    1    1    2    0    0 -0.27183878200E+02 -0.73814633105E+01 -0.14942234475E+02  0.31886040923E+02  0.00000000000E+00 0.  1.
         11    1    3    3    0    0  0.71500440096E+01  0.16132178202E+01  0.71530289937E+01  0.10241651484E+02  0.51100000000E-03 0. -1.
        -11    1    3    3    0    0  0.68886187793E+01  0.24271423229E+02  0.76441037484E+01  0.26362613236E+02  0.51100000000E-03 0.  1.
         12    1    3    3    0    0  0.13145215411E+02 -0.18503177739E+02  0.14510173326E+00  0.22697694358E+02  0.00000000000E+00 0. -1.
</event>
<event>
 7    1  0.1290195E-011  0.5930193E+02  0.7816164E-02  0.1266605E+00
        -11   -1    0    0    0    0  0.00000000000E+00  0.00000000000E+00  0.45593999997E+02  0.45594000000E+02  0.51100000000E-03 0.  1.
         11   -1    0    0    0    0 -0.00000000000E+00 -0.00000000000E+00 -0.45593999997E+02  0.45594000000E+02  0.51100000000E-03 0. -1.
    9900012    2    1    2    0    0 -0.21783207057E+02  0.20696822844E+02 -0.10670284880E+02  0.59301928355E+02  0.49999971417E+02 0.  0.
        -12    1    1    2    0    0  0.21783207057E+02 -0.20696822844E+02  0.10670284880E+02  0.31886071645E+02  0.00000000000E+00 0.  1.
         11    1    3    3    0    0  0.51755139588E+01  0.41032194252E+01 -0.17595251635E+01  0.68350774283E+01  0.51100000000E-03 0. -1.
        -11    1    3    3    0    0 -0.72185254078E+01  0.47124795410E+01 -0.23611850445E+02  0.25136309479E+02  0.51100000000E-03 0.  1.
        -12    1    3    3    0    0 -0.19740195608E+02  0.11881123878E+02  0.14701090729E+02  0.27330541448E+02  0.00000000000E+00 0.  1.
</event>
<event>
 7    1  0.1290195E-011  0.5930195E+02  0.7816164E-02  0.1266605E+00
        -11   -1    0    0    0    0  0.00000000000E+00  0.00000000000E+00  0.45593999997E+02  0.45594000000E+02  0.51100000000E-03 0.  1.
         11   -1    0    0    0    0 -0.00000000000E+00 -0.00000000000E+00 -0.45593999997E+02  0.45594000000E+02  0.51100000000E-03 0. -1.
    9900012    2    1    2    0    0 -0.27740076796E+01 -0.17935057521E+02 -0.26217524840E+02  0.59301952650E+02  0.50000015725E+02 0.  0.
        -12    1    1    2    0    0  0.27740076796E+01  0.17935057521E+02  0.26217524840E+02  0.31886047350E+02  0.00000000000E+00 0.  1.
         11    1    3    3    0    0  0.11725564223E+02 -0.30752797035E+01 -0.14065514516E+01  0.12203466264E+02  0.51100000000E-03 0. -1.
        -11    1    3    3    0    0 -0.17467978015E+01  0.46520766314E+01  0.64258202576E+01  0.81230712042E+01  0.51100000000E-03 0.  1.
         12    1    3    3    0    0 -0.12752774101E+02 -0.19511854449E+02 -0.31236793646E+02  0.38975415182E+02  0.00000000000E+00 0. -1.
</event>
<event>
 7    1  0.1290195E-011  0.5930196E+02  0.7816164E-02  0.1266605E+00
        -11   -1    0    0    0    0  0.00000000000E+00  0.00000000000E+00  0.45593999997E+02  0.45594000000E+02  0.51100000000E-03 0. -1.
         11   -1    0    0    0    0 -0.00000000000E+00 -0.00000000000E+00 -0.45593999997E+02  0.45594000000E+02  0.51100000000E-03 0.  1.
    9900012    2    1    2    0    0 -0.95299470083E+00  0.72334060205E+00  0.31863582396E+02  0.59301963815E+02  0.50000036086E+02 0.  0.
        -12    1    1    2    0    0  0.95299470083E+00 -0.72334060205E+00 -0.31863582396E+02  0.31886036185E+02  0.00000000000E+00 0.  1.
         11    1    3    3    0    0 -0.80487226601E+01 -0.23919850431E+01  0.28007714526E+02  0.29239281834E+02  0.51100000000E-03 0. -1.
        -11    1    3    3    0    0 -0.64338569075E+01 -0.40676162160E+01  0.10825348426E+02  0.13233600613E+02  0.51100000000E-03 0.  1.
        -12    1    3    3    0    0  0.13529584867E+02  0.71829418611E+01 -0.69694805566E+01  0.16829081368E+02  0.00000000000E+00 0.  1.
</event>
<event>
 7    1  0.1290195E-011  0.5930196E+02  0.7816164E-02  0.1266605E+00
        -11   -1    0    0    0    0  0.00000000000E+00  0.00000000000E+00  0.45593999997E+02  0.45594000000E+02  0.51100000000E-03 0. -1.
         11   -1    0    0    0    0 -0.00000000000E+00 -0.00000000000E+00 -0.45593999997E+02  0.45594000000E+02  0.51100000000E-03 0.  1.
    9900012    2    1    2    0    0 -0.21083169356E+01 -0.26052504597E+02  0.18263118717E+02  0.59301960714E+02  0.50000030432E+02 0.  0.
        -12    1    1    2    0    0  0.21083169356E+01  0.26052504597E+02 -0.18263118717E+02  0.31886039286E+02  0.00000000000E+00 0.  1.
         11    1    3    3    0    0  0.59879480380E+00 -0.12649447828E+01 -0.36559433300E+00  0.14464784817E+01  0.51100000000E-03 0. -1.
        -11    1    3    3    0    0  0.78692425341E+01 -0.21858461944E+02 -0.11404407394E+02  0.25880066555E+02  0.51100000000E-03 0.  1.
         12    1    3    3    0    0 -0.10576354274E+02 -0.29290978698E+01  0.30033120445E+02  0.31975415677E+02  0.00000000000E+00 0. -1.
</event>
<event>
 7    1  0.1290195E-011  0.5930194E+02  0.7816164E-02  0.1266605E+00
        -11   -1    0    0    0    0  0.00000000000E+00  0.00000000000E+00  0.45593999997E+02  0.45594000000E+02  0.51100000000E-03 0.  1.
         11   -1    0    0    0    0 -0.00000000000E+00 -0.00000000000E+00 -0.45593999997E+02  0.45594000000E+02  0.51100000000E-03 0. -1.
    9900012    2    1    2    0    0  0.28164326802E+02  0.15739520662E+01 -0.14866556148E+02  0.59301935316E+02  0.49999984112E+02 0.  0.
        -12    1    1    2    0    0 -0.28164326802E+02 -0.15739520662E+01  0.14866556148E+02  0.31886064684E+02  0.00000000000E+00 0.  1.
         11    1    3    3    0    0  0.42974971825E+01  0.13512533788E+02 -0.12981756357E+02  0.19224542902E+02  0.51100000000E-03 0.  1.
        -11    1    3    3    0    0  0.11126266624E+02  0.86584982740E+01 -0.63293167159E+01  0.15453920270E+02  0.51100000000E-03 0. -1.
        -12    1    3    3    0    0  0.12740562995E+02 -0.20597079996E+02  0.44445169246E+01  0.24623472145E+02  0.00000000000E+00 0.  1.
</event>
<event>
 7    1  0.1290195E-011  0.5930195E+02  0.7816164E-02  0.1266605E+00
        -11   -1    0    0    0    0  0.00000000000E+00  0.00000000000E+00  0.45593999997E+02  0.45594000000E+02  0.51100000000E-03 0. -1.
         11   -1    0    0    0    0 -0.00000000000E+00 -0.00000000000E+00 -0.45593999997E+02  0.45594000000E+02  0.51100000000E-03 0.  1.
    9900012    2    1    2    0    0  0.87060725459E+01 -0.26767203821E+02  0.14981358887E+02  0.59301952680E+02  0.50000015780E+02 0.  0.
        -12    1    1    2    0    0 -0.87060725459E+01  0.26767203821E+02 -0.14981358887E+02  0.31886047320E+02  0.00000000000E+00 0.  1.
         11    1    3    3    0    0  0.20386504080E+02 -0.25907960125E+02  0.16008285315E+02  0.36648289802E+02  0.51100000000E-03 0. -1.
        -11    1    3    3    0    0 -0.21348784488E+01  0.86283693000E+01  0.13386796596E+01  0.89888000456E+01  0.51100000000E-03 0.  1.
        -12    1    3    3    0    0 -0.95455530855E+01 -0.94876129957E+01 -0.23656060874E+01  0.13664862832E+02  0.00000000000E+00 0.  1.
</event>
<event>
 7    1  0.1290195E-011  0.5930194E+02  0.7816164E-02  0.1266605E+00
        -11   -1    0    0    0    0  0.00000000000E+00  0.00000000000E+00  0.45593999997E+02  0.45594000000E+02  0.51100000000E-03 0. -1.
         11   -1    0    0    0    0 -0.00000000000E+00 -0.00000000000E+00 -0.45593999997E+02  0.45594000000E+02  0.51100000000E-03 0.  1.
    9900012    2    1    2    0    0 -0.15482986535E+02 -0.24265903823E+02  0.13717274701E+02  0.59301943712E+02  0.49999999424E+02 0.  0.
        -12    1    1    2    0    0  0.15482986535E+02  0.24265903823E+02 -0.13717274701E+02  0.31886056288E+02  0.00000000000E+00 0.  1.
         11    1    3    3    0    0 -0.28841540650E+01 -0.27271261455E+02  0.23517912997E+02  0.36126614539E+02  0.51100000000E-03 0. -1.
        -11    1    3    3    0    0 -0.32947724338E+01 -0.42729702504E+01  0.26511059167E+01  0.60118352434E+01  0.51100000000E-03 0.  1.
        -12    1    3    3    0    0 -0.93040600365E+01  0.72783278825E+01 -0.12451744213E+02  0.17163493930E+02  0.00000000000E+00 0.  1.
</event>
<event>
 7    1  0.1290195E-011  0.5930193E+02  0.7816164E-02  0.1266605E+00
        -11   -1    0    0    0    0  0.00000000000E+00  0.00000000000E+00  0.45593999997E+02  0.45594000000E+02  0.51100000000E-03 0. -1.
         11   -1    0    0    0    0 -0.00000000000E+00 -0.00000000000E+00 -0.45593999997E+02  0.45594000000E+02  0.51100000000E-03 0.  1.
    9900012    2    1    2    0    0  0.31708878996E+02  0.12950556281E+01 -0.30969570869E+01  0.59301932204E+02  0.49999978437E+02 0.  0.
        -12    1    1    2    0    0 -0.31708878996E+02 -0.12950556281E+01  0.30969570869E+01  0.31886067796E+02  0.00000000000E+00 0.  1.
         11    1    3    3    0    0  0.11666551801E+02  0.14896851178E+02 -0.31486880550E+00  0.18924157803E+02  0.51100000000E-03 0.  1.
        -11    1    3    3    0    0  0.53886227962E+01  0.83147309828E+01  0.71353527533E+01  0.12210047753E+02  0.51100000000E-03 0. -1.
         12    1    3    3    0    0  0.14653704399E+02 -0.21916526532E+02 -0.99174410348E+01  0.28167726648E+02  0.00000000000E+00 0. -1.
</event>
<event>
 7    1  0.1357678E-011  0.5930194E+02  0.7816164E-02  0.1266605E+00
        -11   -1    0    0    0    0  0.00000000000E+00  0.00000000000E+00  0.45593999997E+02  0.45594000000E+02  0.51100000000E-03 0. -1.
         11   -1    0    0    0    0 -0.00000000000E+00 -0.00000000000E+00 -0.45593999997E+02  0.45594000000E+02  0.51100000000E-03 0.  1.
    9900012    2    1    2    0    0  0.16736673063E+02  0.25346061939E+02  0.97047232735E+01  0.59301941372E+02  0.49999995156E+02 0.  0.
        -12    1    1    2    0    0 -0.16736673063E+02 -0.25346061939E+02 -0.97047232735E+01  0.31886058628E+02  0.00000000000E+00 0.  1.
         11    1    3    3    0    0  0.82219806936E+01  0.25909025225E+02  0.17585090774E+01  0.27239142958E+02  0.51100000000E-03 0. -1.
        -11    1    3    3    0    0  0.64775600359E+01  0.44084832830E+01 -0.10357224140E+02  0.12987132133E+02  0.51100000000E-03 0.  1.
         12    1    3    3    0    0  0.20371323334E+01 -0.49714465687E+01  0.18303438337E+02  0.19075666281E+02  0.00000000000E+00 0. -1.
</event>
<event>
 7    1  0.1290195E-011  0.5930202E+02  0.7816164E-02  0.1266604E+00
        -11   -1    0    0    0    0  0.00000000000E+00  0.00000000000E+00  0.45593999997E+02  0.45594000000E+02  0.51100000000E-03 0.  1.
         11   -1    0    0    0    0 -0.00000000000E+00 -0.00000000000E+00 -0.45593999997E+02  0.45594000000E+02  0.51100000000E-03 0. -1.
    9900012    2    1    2    0    0  0.21541786136E+02  0.20243984487E+02  0.11951913013E+02  0.59302020596E+02  0.50000139642E+02 0.  0.
        -12    1    1    2    0    0 -0.21541786136E+02 -0.20243984487E+02 -0.11951913013E+02  0.31885979404E+02  0.00000000000E+00 0.  1.
         11    1    3    3    0    0  0.99520795700E+01  0.20167576655E+02  0.49932949239E+01  0.23037101171E+02  0.51100000000E-03 0. -1.
        -11    1    3    3    0    0  0.10268101241E+02  0.15849413644E+02  0.77584464706E+01  0.20416446994E+02  0.51100000000E-03 0.  1.
        -12    1    3    3    0    0  0.13216053257E+01 -0.15773005812E+02 -0.79982838111E+00  0.15848472432E+02  0.00000000000E+00 0.  1.
</event>
<event>
 7    1  0.1290195E-011  0.5930195E+02  0.7816164E-02  0.1266605E+00
        -11   -1    0    0    0    0  0.00000000000E+00  0.00000000000E+00  0.45593999997E+02  0.45594000000E+02  0.51100000000E-03 0.  1.
         11   -1    0    0    0    0 -0.00000000000E+00 -0.00000000000E+00 -0.45593999997E+02  0.45594000000E+02  0.51100000000E-03 0. -1.
    9900012    2    1    2    0    0 -0.10120540998E+02 -0.10262533067E+02 -0.28442491338E+02  0.59301948997E+02  0.50000009062E+02 0.  0.
        -12    1    1    2    0    0  0.10120540998E+02  0.10262533067E+02  0.28442491338E+02  0.31886051003E+02  0.00000000000E+00 0.  1.
         11    1    3    3    0    0 -0.20104628090E+02 -0.28791269075E+01  0.34468792922E+01  0.20600155813E+02  0.51100000000E-03 0. -1.
        -11    1    3    3    0    0  0.84264365576E-01  0.53183435036E+01 -0.46844341537E+01  0.70877218983E+01  0.51100000000E-03 0.  1.
        -12    1    3    3    0    0  0.98998227267E+01 -0.12701749663E+02 -0.27204936477E+02  0.31614071285E+02  0.00000000000E+00 0.  1.
</event>
<event>
 7    1  0.1290195E-011  0.5930190E+02  0.7816164E-02  0.1266605E+00
        -11   -1    0    0    0    0  0.00000000000E+00  0.00000000000E+00  0.45593999997E+02  0.45594000000E+02  0.51100000000E-03 0.  1.
         11   -1    0    0    0    0 -0.00000000000E+00 -0.00000000000E+00 -0.45593999997E+02  0.45594000000E+02  0.51100000000E-03 0. -1.
    9900012    2    1    2    0    0  0.89025579968E+00 -0.30135993321E+02 -0.10380390928E+02  0.59301903270E+02  0.49999925668E+02 0.  0.
        -12    1    1    2    0    0 -0.89025579968E+00  0.30135993321E+02  0.10380390928E+02  0.31886096730E+02  0.00000000000E+00 0.  1.
         11    1    3    3    0    0 -0.63610959654E+00  0.17043184461E+01  0.37485193773E+01  0.41666214812E+01  0.51100000000E-03 0. -1.
        -11    1    3    3    0    0 -0.40238489582E+01  0.68756127823E+01  0.70670687389E+01  0.10649360187E+02  0.51100000000E-03 0.  1.
         12    1    3    3    0    0  0.55502143544E+01 -0.38715924550E+02 -0.21195979044E+02  0.44485921602E+02  0.00000000000E+00 0. -1.
</event>
<event>
 7    1  0.1290195E-011  0.5930194E+02  0.7816164E-02  0.1266605E+00
        -11   -1    0    0    0    0  0.00000000000E+00  0.00000000000E+00  0.45593999997E+02  0.45594000000E+02  0.51100000000E-03 0. -1.
         11   -1    0    0    0    0 -0.00000000000E+00 -0.00000000000E+00 -0.45593999997E+02  0.45594000000E+02  0.51100000000E-03 0.  1.
    9900012    2    1    2    0    0  0.30872507882E+02  0.72007362328E+01 -0.34290363768E+01  0.59301942927E+02  0.49999997993E+02 0.  0.
        -12    1    1    2    0    0 -0.30872507882E+02 -0.72007362328E+01  0.34290363768E+01  0.31886057073E+02  0.00000000000E+00 0.  1.
         11    1    3    3    0    0  0.27408420225E+01 -0.81448153852E+01  0.17867588736E+01  0.87773993975E+01  0.51100000000E-03 0. -1.
        -11    1    3    3    0    0  0.28889210337E+01  0.43731921745E+01 -0.19022578411E+02  0.19731425803E+02  0.51100000000E-03 0.  1.
        -12    1    3    3    0    0  0.25242744825E+02  0.10972359443E+02  0.13806783161E+02  0.30793117727E+02  0.00000000000E+00 0.  1.
</event>
<event>
 7    1  0.1290195E-011  0.5930194E+02  0.7816164E-02  0.1266605E+00
        -11   -1    0    0    0    0  0.00000000000E+00  0.00000000000E+00  0.45593999997E+02  0.45594000000E+02  0.51100000000E-03 0.  1.
         11   -1    0    0    0    0 -0.00000000000E+00 -0.00000000000E+00 -0.45593999997E+02  0.45594000000E+02  0.51100000000E-03 0. -1.
    9900012    2    1    2    0    0  0.21999374903E+02  0.32455419691E+01 -0.22852013073E+02  0.59301944423E+02  0.50000000720E+02 0.  0.
        -12    1    1    2    0    0 -0.21999374903E+02 -0.32455419691E+01  0.22852013073E+02  0.31886055577E+02  0.00000000000E+00 0.  1.
         11    1    3    3    0    0 -0.90553306701E+01 -0.54704333188E+01 -0.80602129901E+01  0.13300063456E+02  0.51100000000E-03 0. -1.
        -11    1    3    3    0    0 -0.28411701610E+01  0.76611755275E+01  0.16152433946E+01  0.83291578104E+01  0.51100000000E-03 0.  1.
         12    1    3    3    0    0  0.33895875734E+02  0.10547997604E+01 -0.16407043478E+02  0.37672723156E+02  0.00000000000E+00 0. -1.
</event>
<event>
 7    1  0.1290195E-011  0.5930194E+02  0.7816164E-02  0.1266605E+00
        -11   -1    0    0    0    0  0.00000000000E+00  0.00000000000E+00  0.45593999997E+02  0.45594000000E+02  0.51100000000E-03 0.  1.
         11   -1    0    0    0    0 -0.00000000000E+00 -0.00000000000E+00 -0.45593999997E+02  0.45594000000E+02  0.51100000000E-03 0. -1.
    9900012    2    1    2    0    0  0.19554088713E+02 -0.23837525075E+02 -0.81320934740E+01  0.59301938290E+02  0.49999989535E+02 0.  0.
        -12    1    1    2    0    0 -0.19554088713E+02  0.23837525075E+02  0.81320934740E+01  0.31886061710E+02  0.00000000000E+00 0.  1.
         11    1    3    3    0    0  0.59966730046E+01  0.16992790661E+01  0.11050044405E+02  0.12686651176E+02  0.51100000000E-03 0. -1.
        -11    1    3    3    0    0 -0.61498464944E+01 -0.17804676742E+02 -0.12618846477E+01  0.18879075160E+02  0.51100000000E-03 0.  1.
         12    1    3    3    0    0  0.19707262203E+02 -0.77321274000E+01 -0.17920253231E+02  0.27736211953E+02  0.00000000000E+00 0. -1.
</event>
<event>
 7    1  0.1290195E-011  0.5930197E+02  0.7816164E-02  0.1266605E+00
        -11   -1    0    0    0    0  0.00000000000E+00  0.00000000000E+00  0.45593999997E+02  0.45594000000E+02  0.51100000000E-03 0. -1.
         11   -1    0    0    0    0 -0.00000000000E+00 -0.00000000000E+00 -0.45593999997E+02  0.45594000000E+02  0.51100000000E-03 0.  1.
    9900012    2    1    2    0    0  0.14442845499E+02 -0.22480566816E+02 -0.17399626444E+02  0.59301973737E+02  0.50000054183E+02 0.  0.
        -12    1    1    2    0    0 -0.14442845499E+02  0.22480566816E+02  0.17399626444E+02  0.31886026263E+02  0.00000000000E+00 0.  1.
         11    1    3    3    0    0  0.12016590085E+02 -0.25446186431E+02 -0.14425517071E+01  0.28177789069E+02  0.51100000000E-03 0. -1.
        -11    1    3    3    0    0  0.19398264956E+01 -0.11521116965E+02 -0.40488046410E+01  0.12364945703E+02  0.51100000000E-03 0.  1.
         12    1    3    3    0    0  0.48642891830E+00  0.14486736581E+02 -0.11908270096E+02  0.18759238965E+02  0.00000000000E+00 0. -1.
</event>
<event>
 7    1  0.1290195E-011  0.5930196E+02  0.7816164E-02  0.1266605E+00
        -11   -1    0    0    0    0  0.00000000000E+00  0.00000000000E+00  0.45593999997E+02  0.45594000000E+02  0.51100000000E-03 0.  1.
         11   -1    0    0    0    0 -0.00000000000E+00 -0.00000000000E+00 -0.45593999997E+02  0.45594000000E+02  0.51100000000E-03 0. -1.
    9900012    2    1    2    0    0 -0.23779894253E+02 -0.11004053997E+02 -0.18169944933E+02  0.59301961144E+02  0.50000031215E+02 0.  0.
        -12    1    1    2    0    0  0.23779894253E+02  0.11004053997E+02  0.18169944933E+02  0.31886038856E+02  0.00000000000E+00 0.  1.
         11    1    3    3    0    0 -0.19569516047E+02 -0.15462936276E+02  0.37154962746E+01  0.25216527703E+02  0.51100000000E-03 0. -1.
        -11    1    3    3    0    0 -0.81120206447E+01 -0.85374939120E+01 -0.14350936456E+02  0.18564564597E+02  0.51100000000E-03 0.  1.
        -12    1    3    3    0    0  0.39016424385E+01  0.12996376190E+02 -0.75345047520E+01  0.15520868844E+02  0.00000000000E+00 0.  1.
</event>
<event>
 7    1  0.1290195E-011  0.5930195E+02  0.7816164E-02  0.1266605E+00
        -11   -1    0    0    0    0  0.00000000000E+00  0.00000000000E+00  0.45593999997E+02  0.45594000000E+02  0.51100000000E-03 0. -1.
         11   -1    0    0    0    0 -0.00000000000E+00 -0.00000000000E+00 -0.45593999997E+02  0.45594000000E+02  0.51100000000E-03 0.  1.
    9900012    2    1    2    0    0 -0.16958408963E+02 -0.22847010903E+02  0.14392591622E+02  0.59301949204E+02  0.50000009440E+02 0.  0.
        -12    1    1    2    0    0  0.16958408963E+02  0.22847010903E+02 -0.14392591622E+02  0.31886050796E+02  0.00000000000E+00 0.  1.
         11    1    3    3    0    0 -0.48201765704E+01  0.34451782869E+01  0.20480611690E+01  0.62688045441E+01  0.51100000000E-03 0. -1.
        -11    1    3    3    0    0 -0.19833589677E+02 -0.20944379711E+01  0.18172003363E+02  0.26981098131E+02  0.51100000000E-03 0.  1.
         12    1    3    3    0    0  0.76953572841E+01 -0.24197751219E+02 -0.58274729098E+01  0.26052046528E+02  0.00000000000E+00 0. -1.
</event>
<event>
 7    1  0.1889712E-011  0.5930191E+02  0.7816164E-02  0.1266605E+00
        -11   -1    0    0    0    0  0.00000000000E+00  0.00000000000E+00  0.45593999997E+02  0.45594000000E+02  0.51100000000E-03 0. -1.
         11   -1    0    0    0    0 -0.00000000000E+00 -0.00000000000E+00 -0.45593999997E+02  0.45594000000E+02  0.51100000000E-03 0.  1.
    9900012    2    1    2    0    0 -0.51224038276E+00 -0.13072122444E+02  0.29078853677E+02  0.59301913590E+02  0.49999944489E+02 0.  0.
        -12    1    1    2    0    0  0.51224038276E+00  0.13072122444E+02 -0.29078853677E+02  0.31886086410E+02  0.00000000000E+00 0.  1.
         11    1    3    3    0    0  0.25119372581E+01 -0.37126421803E+01  0.26666826729E+02  0.27040953918E+02  0.51100000000E-03 0. -1.
        -11    1    3    3    0    0 -0.13359763225E+02 -0.60929017344E+01  0.11069373580E+02  0.18388522418E+02  0.51100000000E-03 0.  1.
        -12    1    3    3    0    0  0.10335585584E+02 -0.32665785293E+01 -0.86573466324E+01  0.13872437254E+02  0.00000000000E+00 0.  1.
</event>
<event>
 7    1  0.1290195E-011  0.5930194E+02  0.7816164E-02  0.1266605E+00
        -11   -1    0    0    0    0  0.00000000000E+00  0.00000000000E+00  0.45593999997E+02  0.45594000000E+02  0.51100000000E-03 0. -1.
         11   -1    0    0    0    0 -0.00000000000E+00 -0.00000000000E+00 -0.45593999997E+02  0.45594000000E+02  0.51100000000E-03 0.  1.
    9900012    2    1    2    0    0  0.24571476944E+02 -0.60706471006E+01 -0.19393573402E+02  0.59301938394E+02  0.49999989725E+02 0.  0.
        -12    1    1    2    0    0 -0.24571476944E+02  0.60706471006E+01  0.19393573402E+02  0.31886061606E+02  0.00000000000E+00 0.  1.
         11    1    3    3    0    0  0.18614668570E+02 -0.16649246071E+02  0.18546906619E+01  0.25042826486E+02  0.51100000000E-03 0. -1.
        -11    1    3    3    0    0  0.10676605809E+02  0.28394212445E+01 -0.22540796529E+02  0.25102584190E+02  0.51100000000E-03 0.  1.
        -12    1    3    3    0    0 -0.47197974343E+01  0.77391777257E+01  0.12925324643E+01  0.91565277186E+01  0.00000000000E+00 0.  1.
</event>
<event>
 7    1  0.1290195E-011  0.5930192E+02  0.7816164E-02  0.1266605E+00
        -11   -1    0    0    0    0  0.00000000000E+00  0.00000000000E+00  0.45593999997E+02  0.45594000000E+02  0.51100000000E-03 0.  1.
         11   -1    0    0    0    0 -0.00000000000E+00 -0.00000000000E+00 -0.45593999997E+02  0.45594000000E+02  0.51100000000E-03 0. -1.
    9900012    2    1    2    0    0  0.16326736259E+02  0.26840141552E+02  0.54558936259E+01  0.59301916975E+02  0.49999950662E+02 0.  0.
        -12    1    1    2    0    0 -0.16326736259E+02 -0.26840141552E+02 -0.54558936259E+01  0.31886083025E+02  0.00000000000E+00 0.  1.
         11    1    3    3    0    0 -0.10582453805E+02  0.70348380808E+01 -0.88994336426E+01  0.15513774356E+02  0.51100000000E-03 0. -1.
        -11    1    3    3    0    0 -0.20983205778E+01 -0.32103732832E+01 -0.54442603672E+00  0.38737379667E+01  0.51100000000E-03 0.  1.
        -12    1    3    3    0    0  0.29007510642E+02  0.23015676755E+02  0.14899753305E+02  0.39914404652E+02  0.00000000000E+00 0.  1.
</event>
<event>
 7    1  0.1290195E-011  0.5930193E+02  0.7816164E-02  0.1266605E+00
        -11   -1    0    0    0    0  0.00000000000E+00  0.00000000000E+00  0.45593999997E+02  0.45594000000E+02  0.51100000000E-03 0.  1.
         11   -1    0    0    0    0 -0.00000000000E+00 -0.00000000000E+00 -0.45593999997E+02  0.45594000000E+02  0.51100000000E-03 0. -1.
    9900012    2    1    2    0    0  0.20888074251E+02 -0.16310779013E+02 -0.17730437008E+02  0.59301928520E+02  0.49999971718E+02 0.  0.
        -12    1    1    2    0    0 -0.20888074251E+02  0.16310779013E+02  0.17730437008E+02  0.31886071480E+02  0.00000000000E+00 0.  1.
         11    1    3    3    0    0 -0.54174484173E+00  0.81433963098E+01 -0.74110397156E+01  0.11024150800E+02  0.51100000000E-03 0. -1.
        -11    1    3    3    0    0 -0.52685747661E+01  0.48182094210E+01 -0.39207244199E+01  0.81452502926E+01  0.51100000000E-03 0.  1.
         12    1    3    3    0    0  0.26698393859E+02 -0.29272384743E+02 -0.63986728724E+01  0.40132527428E+02  0.00000000000E+00 0. -1.
</event>
<event>
 7    1  0.1290195E-011  0.5930200E+02  0.7816164E-02  0.1266605E+00
        -11   -1    0    0    0    0  0.00000000000E+00  0.00000000000E+00  0.45593999997E+02  0.45594000000E+02  0.51100000000E-03 0. -1.
         11   -1    0    0    0    0 -0.00000000000E+00 -0.00000000000E+00 -0.45593999997E+02  0.45594000000E+02  0.51100000000E-03 0.  1.
    9900012    2    1    2    0    0 -0.91285980187E+01 -0.86896497415E+01  0.29289513343E+02  0.59302001406E+02  0.50000104645E+02 0.  0.
        -12    1    1    2    0    0  0.91285980187E+01  0.86896497415E+01 -0.29289513343E+02  0.31885998594E+02  0.00000000000E+00 0.  1.
         11    1    3    3    0    0  0.12082664276E+02  0.10519401092E+01  0.60830520506E+00  0.12143615174E+02  0.51100000000E-03 0. -1.
        -11    1    3    3    0    0  0.44831255588E+01 -0.37793684725E+01  0.17594892516E+02  0.18546220201E+02  0.51100000000E-03 0.  1.
        -12    1    3    3    0    0 -0.25694387854E+02 -0.59622213782E+01  0.11086315623E+02  0.28612166032E+02  0.00000000000E+00 0.  1.
</event>
<event>
 7    1  0.1290195E-011  0.5930193E+02  0.7816164E-02  0.1266605E+00
        -11   -1    0    0    0    0  0.00000000000E+00  0.00000000000E+00  0.45593999997E+02  0.45594000000E+02  0.51100000000E-03 0.  1.
         11   -1    0    0    0    0 -0.00000000000E+00 -0.00000000000E+00 -0.45593999997E+02  0.45594000000E+02  0.51100000000E-03 0. -1.
    9900012    2    1    2    0    0 -0.62513232895E+01  0.15408921350E+02 -0.27206754240E+02  0.59301931313E+02  0.49999976812E+02 0.  0.
        -12    1    1    2    0    0  0.62513232895E+01 -0.15408921350E+02  0.27206754240E+02  0.31886068687E+02  0.00000000000E+00 0.  1.
         11    1    3    3    0    0 -0.63229341563E+00 -0.29707529730E+01  0.96791049382E+00  0.31877922101E+01  0.51100000000E-03 0. -1.
        -11    1    3    3    0    0  0.14207481654E+00 -0.11558500079E+02  0.35722731934E+01  0.12098770407E+02  0.51100000000E-03 0.  1.
         12    1    3    3    0    0 -0.57611046904E+01  0.29938174402E+02 -0.31746937927E+02  0.44015368697E+02  0.00000000000E+00 0. -1.
</event>
<event>
 7    1  0.1290195E-011  0.5930194E+02  0.7816164E-02  0.1266605E+00
        -11   -1    0    0    0    0  0.00000000000E+00  0.00000000000E+00  0.45593999997E+02  0.45594000000E+02  0.51100000000E-03 0. -1.
         11   -1    0    0    0    0 -0.00000000000E+00 -0.00000000000E+00 -0.45593999997E+02  0.45594000000E+02  0.51100000000E-03 0.  1.
    9900012    2    1    2    0    0  0.19255367010E+02 -0.24867143520E+02 -0.52513686525E+01  0.59301939437E+02  0.49999991627E+02 0.  0.
        -12    1    1    2    0    0 -0.19255367010E+02  0.24867143520E+02  0.52513686525E+01  0.31886060563E+02  0.00000000000E+00 0.  1.
         11    1    3    3    0    0  0.28832939316E+01 -0.37643968251E-01  0.71188769539E+01  0.76807037640E+01  0.51100000000E-03 0. -1.
        -11    1    3    3    0    0 -0.94500835646E+01  0.48399593978E+01 -0.43788549498E+01  0.11484931749E+02  0.51100000000E-03 0.  1.
         12    1    3    3    0    0  0.25822156643E+02 -0.29669458949E+02 -0.79913906565E+01  0.40136303924E+02  0.00000000000E+00 0. -1.
</event>
<event>
 7    1  0.1290195E-011  0.5930195E+02  0.7816164E-02  0.1266605E+00
        -11   -1    0    0    0    0  0.00000000000E+00  0.00000000000E+00  0.45593999997E+02  0.45594000000E+02  0.51100000000E-03 0.  1.
         11   -1    0    0    0    0 -0.00000000000E+00 -0.00000000000E+00 -0.45593999997E+02  0.45594000000E+02  0.51100000000E-03 0. -1.
    9900012    2    1    2    0    0  0.31715290994E+02 -0.32488635004E+01 -0.55290171091E+00  0.59301945099E+02  0.50000001953E+02 0.  0.
        -12    1    1    2    0    0 -0.31715290994E+02  0.32488635004E+01  0.55290171091E+00  0.31886054901E+02  0.00000000000E+00 0.  1.
         11    1    3    3    0    0  0.33553226925E+02  0.78710518635E+01  0.53828530644E+00  0.34468278835E+02  0.51100000000E-03 0. -1.
        -11    1    3    3    0    0 -0.30096342998E+01  0.60989156617E+01 -0.30701330855E+01  0.74619292606E+01  0.51100000000E-03 0.  1.
        -12    1    3    3    0    0  0.11716983682E+01 -0.17218831026E+02  0.19789460682E+01  0.17371737003E+02  0.00000000000E+00 0.  1.
</event>
<event>
 7    1  0.1290195E-011  0.5930175E+02  0.7816164E-02  0.1266605E+00
        -11   -1    0    0    0    0  0.00000000000E+00  0.00000000000E+00  0.45593999997E+02  0.45594000000E+02  0.51100000000E-03 0.  1.
         11   -1    0    0    0    0 -0.00000000000E+00 -0.00000000000E+00 -0.45593999997E+02  0.45594000000E+02  0.51100000000E-03 0. -1.
    9900012    2    1    2    0    0 -0.83815518632E+01  0.30736839801E+02 -0.13150585570E+01  0.59301747295E+02  0.49999641205E+02 0.  0.
        -12    1    1    2    0    0  0.83815518632E+01 -0.30736839801E+02  0.13150585570E+01  0.31886252705E+02  0.00000000000E+00 0.  1.
         11    1    3    3    0    0  0.23972574021E+01  0.11327283794E+02  0.57879781103E+01  0.12944299597E+02  0.51100000000E-03 0. -1.
        -11    1    3    3    0    0 -0.39578762133E+01  0.14746137174E+02  0.15822811752E+02  0.21988058524E+02  0.51100000000E-03 0.  1.
         12    1    3    3    0    0 -0.68209330520E+01  0.46634188330E+01 -0.22925848419E+02  0.24369389173E+02  0.00000000000E+00 0. -1.
</event>
<event>
 7    1  0.1290195E-011  0.5930193E+02  0.7816164E-02  0.1266605E+00
        -11   -1    0    0    0    0  0.00000000000E+00  0.00000000000E+00  0.45593999997E+02  0.45594000000E+02  0.51100000000E-03 0. -1.
         11   -1    0    0    0    0 -0.00000000000E+00 -0.00000000000E+00 -0.45593999997E+02  0.45594000000E+02  0.51100000000E-03 0.  1.
    9900012    2    1    2    0    0 -0.21470764194E+02  0.17612399948E+02  0.15669435091E+02  0.59301928698E+02  0.49999972042E+02 0.  0.
        -12    1    1    2    0    0  0.21470764194E+02 -0.17612399948E+02 -0.15669435091E+02  0.31886071302E+02  0.00000000000E+00 0.  1.
         11    1    3    3    0    0 -0.72684135396E+01  0.23089988848E+02 -0.45523254392E+01  0.24631303001E+02  0.51100000000E-03 0. -1.
        -11    1    3    3    0    0 -0.19396247286E-01 -0.88559214645E+01 -0.10116608549E+01  0.89135390921E+01  0.51100000000E-03 0.  1.
         12    1    3    3    0    0 -0.14182954408E+02  0.33783325650E+01  0.21233421385E+02  0.25757086604E+02  0.00000000000E+00 0. -1.
</event>
<event>
 7    1  0.1290195E-011  0.5930192E+02  0.7816164E-02  0.1266605E+00
        -11   -1    0    0    0    0  0.00000000000E+00  0.00000000000E+00  0.45593999997E+02  0.45594000000E+02  0.51100000000E-03 0.  1.
         11   -1    0    0    0    0 -0.00000000000E+00 -0.00000000000E+00 -0.45593999997E+02  0.45594000000E+02  0.51100000000E-03 0. -1.
    9900012    2    1    2    0    0 -0.19401256703E+02  0.23418734916E+02 -0.95851937341E+01  0.59301923953E+02  0.49999963389E+02 0.  0.
        -12    1    1    2    0    0  0.19401256703E+02 -0.23418734916E+02  0.95851937341E+01  0.31886076047E+02  0.00000000000E+00 0.  1.
         11    1    3    3    0    0 -0.20887419913E+02  0.27757658524E+02  0.10086785447E+02  0.36173404019E+02  0.51100000000E-03 0. -1.
        -11    1    3    3    0    0  0.22871187823E+01 -0.68752192082E+01 -0.66402955116E+01  0.98281776657E+01  0.51100000000E-03 0.  1.
        -12    1    3    3    0    0 -0.80095557259E+00  0.25362956002E+01 -0.13031683670E+02  0.13300342269E+02  0.00000000000E+00 0.  1.
</event>
<event>
 7    1  0.1290195E-011  0.5930179E+02  0.7816164E-02  0.1266605E+00
        -11   -1    0    0    0    0  0.00000000000E+00  0.00000000000E+00  0.45593999997E+02  0.45594000000E+02  0.51100000000E-03 0.  1.
         11   -1    0    0    0    0 -0.00000000000E+00 -0.00000000000E+00 -0.45593999997E+02  0.45594000000E+02  0.51100000000E-03 0. -1.
    9900012    2    1    2    0    0 -0.82555783122E+00  0.81166641484E+01 -0.30824801335E+02  0.59301793578E+02  0.49999725615E+02 0.  0.
        -12    1    1    2    0    0  0.82555783122E+00 -0.81166641484E+01  0.30824801335E+02  0.31886206422E+02  0.00000000000E+00 0.  1.
         11    1    3    3    0    0 -0.14694072280E+02 -0.48337283950E+01 -0.20258588727E+01  0.15600794685E+02  0.51100000000E-03 0. -1.
        -11    1    3    3    0    0  0.32882107319E+01 -0.67602661987E+01 -0.37138849018E+00  0.75267163203E+01  0.51100000000E-03 0.  1.
        -12    1    3    3    0    0  0.10580303717E+02  0.19710658742E+02 -0.28427553972E+02  0.36174282573E+02  0.00000000000E+00 0.  1.
</event>
<event>
 7    1  0.1290195E-011  0.5930196E+02  0.7816164E-02  0.1266605E+00
        -11   -1    0    0    0    0  0.00000000000E+00  0.00000000000E+00  0.45593999997E+02  0.45594000000E+02  0.51100000000E-03 0.  1.
         11   -1    0    0    0    0 -0.00000000000E+00 -0.00000000000E+00 -0.45593999997E+02  0.45594000000E+02  0.51100000000E-03 0. -1.
    9900012    2    1    2    0    0 -0.26738516232E+02  0.11224513933E+02 -0.13258270787E+02  0.59301957480E+02  0.50000024535E+02 0.  0.
        -12    1    1    2    0    0  0.26738516232E+02 -0.11224513933E+02  0.13258270787E+02  0.31886042520E+02  0.00000000000E+00 0.  1.
         11    1    3    3    0    0 -0.14526497467E+01 -0.44283064062E+00 -0.14211686583E+02  0.14292596897E+02  0.51100000000E-03 0. -1.
        -11    1    3    3    0    0 -0.17935941967E+02 -0.70303203795E+00 -0.15096169553E+02  0.23453925124E+02  0.51100000000E-03 0.  1.
        -12    1    3    3    0    0 -0.73499245184E+01  0.12370376612E+02  0.16049585350E+02  0.21555435459E+02  0.00000000000E+00 0.  1.
</event>
<event>
 7    1  0.1290195E-011  0.5930192E+02  0.7816164E-02  0.1266605E+00
        -11   -1    0    0    0    0  0.00000000000E+00  0.00000000000E+00  0.45593999997E+02  0.45594000000E+02  0.51100000000E-03 0. -1.
         11   -1    0    0    0    0 -0.00000000000E+00 -0.00000000000E+00 -0.45593999997E+02  0.45594000000E+02  0.51100000000E-03 0.  1.
    9900012    2    1    2    0    0 -0.34563235886E+01  0.27535270029E+02  0.15703023476E+02  0.59301918168E+02  0.49999952837E+02 0.  0.
        -12    1    1    2    0    0  0.34563235886E+01 -0.27535270029E+02 -0.15703023476E+02  0.31886081832E+02  0.00000000000E+00 0.  1.
         11    1    3    3    0    0 -0.15253897854E+02  0.76154766503E+01  0.65273047799E+01  0.18256028930E+02  0.51100000000E-03 0. -1.
        -11    1    3    3    0    0 -0.11066841041E+02  0.10198330168E+02  0.49592922261E+01  0.15845361734E+02  0.51100000000E-03 0.  1.
        -12    1    3    3    0    0  0.22864415306E+02  0.97214632114E+01  0.42164264697E+01  0.25200527503E+02  0.00000000000E+00 0.  1.
</event>
<event>
 7    1  0.1290195E-011  0.5930194E+02  0.7816164E-02  0.1266605E+00
        -11   -1    0    0    0    0  0.00000000000E+00  0.00000000000E+00  0.45593999997E+02  0.45594000000E+02  0.51100000000E-03 0.  1.
         11   -1    0    0    0    0 -0.00000000000E+00 -0.00000000000E+00 -0.45593999997E+02  0.45594000000E+02  0.51100000000E-03 0. -1.
    9900012    2    1    2    0    0 -0.22751017040E+02 -0.11154667045E+02 -0.19356786664E+02  0.59301944063E+02  0.50000000065E+02 0.  0.
        -12    1    1    2    0    0  0.22751017040E+02  0.11154667045E+02  0.19356786664E+02  0.31886055937E+02  0.00000000000E+00 0.  1.
         11    1    3    3    0    0 -0.44162570727E+01 -0.66075937162E+01 -0.12213686264E+02  0.14571813671E+02  0.51100000000E-03 0. -1.
        -11    1    3    3    0    0 -0.29601566341E+01 -0.14600253639E+01 -0.22524085104E+02  0.22764635104E+02  0.51100000000E-03 0.  1.
        -12    1    3    3    0    0 -0.15374603333E+02 -0.30870479650E+01  0.15380984704E+02  0.21965495288E+02  0.00000000000E+00 0.  1.
</event>
<event>
 7    1  0.1684376E-011  0.5930195E+02  0.7816164E-02  0.1266605E+00
        -11   -1    0    0    0    0  0.00000000000E+00  0.00000000000E+00  0.45593999997E+02  0.45594000000E+02  0.51100000000E-03 0. -1.
         11   -1    0    0    0    0 -0.00000000000E+00 -0.00000000000E+00 -0.45593999997E+02  0.45594000000E+02  0.51100000000E-03 0.  1.
    9900012    2    1    2    0    0  0.21323001420E+02  0.18437594749E+02  0.14903194386E+02  0.59301945171E+02  0.50000002085E+02 0.  0.
        -12    1    1    2    0    0 -0.21323001420E+02 -0.18437594749E+02 -0.14903194386E+02  0.31886054829E+02  0.00000000000E+00 0.  1.
         11    1    3    3    0    0  0.20962860360E+02  0.10784702899E+02  0.14247249094E+02  0.27545152715E+02  0.51100000000E-03 0. -1.
        -11    1    3    3    0    0  0.13412937833E+02  0.63387645566E+01 -0.71741545742E+01  0.16478935995E+02  0.51100000000E-03 0.  1.
        -12    1    3    3    0    0 -0.13052796773E+02  0.13141272937E+01  0.78300998656E+01  0.15277856461E+02  0.00000000000E+00 0.  1.
</event>
<event>
 7    1  0.1290195E-011  0.5930195E+02  0.7816164E-02  0.1266605E+00
        -11   -1    0    0    0    0  0.00000000000E+00  0.00000000000E+00  0.45593999997E+02  0.45594000000E+02  0.51100000000E-03 0. -1.
         11   -1    0    0    0    0 -0.00000000000E+00 -0.00000000000E+00 -0.45593999997E+02  0.45594000000E+02  0.51100000000E-03 0.  1.
    9900012    2    1    2    0    0  0.45649809903E+01  0.19751254199E+02  0.24612373858E+02  0.59301952255E+02  0.50000015004E+02 0.  0.
        -12    1    1    2    0    0 -0.45649809903E+01 -0.19751254199E+02 -0.24612373858E+02  0.31886047745E+02  0.00000000000E+00 0.  1.
         11    1    3    3    0    0 -0.79921700807E+01  0.53918271037E+01  0.17464867010E+02  0.19949139381E+02  0.51100000000E-03 0. -1.
        -11    1    3    3    0    0 -0.93299284061E+01  0.51135751213E+01  0.10976309877E+02  0.15286451300E+02  0.51100000000E-03 0.  1.
        -12    1    3    3    0    0  0.21887079477E+02  0.92458519737E+01 -0.38288030280E+01  0.24066361573E+02  0.00000000000E+00 0.  1.
</event>
<event>
 7    1  0.1290195E-011  0.5930193E+02  0.7816164E-02  0.1266605E+00
        -11   -1    0    0    0    0  0.00000000000E+00  0.00000000000E+00  0.45593999997E+02  0.45594000000E+02  0.51100000000E-03 0.  1.
         11   -1    0    0    0    0 -0.00000000000E+00 -0.00000000000E+00 -0.45593999997E+02  0.45594000000E+02  0.51100000000E-03 0. -1.
    9900012    2    1    2    0    0  0.23272627676E+02  0.13207783341E+02 -0.17339568815E+02  0.59301931154E+02  0.49999976522E+02 0.  0.
        -12    1    1    2    0    0 -0.23272627676E+02 -0.13207783341E+02  0.17339568815E+02  0.31886068846E+02  0.00000000000E+00 0.  1.
         11    1    3    3    0    0  0.18121505803E+02  0.92995855061E+01  0.60031109040E+01  0.21234608637E+02  0.51100000000E-03 0. -1.
        -11    1    3    3    0    0  0.14600559023E+02 -0.58075696047E+01 -0.81260023477E+01  0.17690000082E+02  0.51100000000E-03 0.  1.
         12    1    3    3    0    0 -0.94494371500E+01  0.97157674396E+01 -0.15216677372E+02  0.20377322435E+02  0.00000000000E+00 0. -1.
</event>
<event>
 7    1  0.1290195E-011  0.5930192E+02  0.7816164E-02  0.1266605E+00
        -11   -1    0    0    0    0  0.00000000000E+00  0.00000000000E+00  0.45593999997E+02  0.45594000000E+02  0.51100000000E-03 0.  1.
         11   -1    0    0    0    0 -0.00000000000E+00 -0.00000000000E+00 -0.45593999997E+02  0.45594000000E+02  0.51100000000E-03 0. -1.
    9900012    2    1    2    0    0 -0.26530734151E+02 -0.44881441696E+01 -0.17108446387E+02  0.59301917919E+02  0.49999952384E+02 0.  0.
        -12    1    1    2    0    0  0.26530734151E+02  0.44881441696E+01  0.17108446387E+02  0.31886082081E+02  0.00000000000E+00 0.  1.
         11    1    3    3    0    0 -0.23461940995E+02 -0.16989351781E+02 -0.14978962690E+02  0.32610888867E+02  0.51100000000E-03 0. -1.
        -11    1    3    3    0    0 -0.11777653567E+02  0.90740978520E+01  0.41312140951E+01  0.15431114851E+02  0.51100000000E-03 0.  1.
        -12    1    3    3    0    0  0.87088604108E+01  0.34271097597E+01 -0.62606977927E+01  0.11259914201E+02  0.00000000000E+00 0.  1.
</event>
<event>
 7    1  0.1290195E-011  0.5930194E+02  0.7816164E-02  0.1266605E+00
        -11   -1    0    0    0    0  0.00000000000E+00  0.00000000000E+00  0.45593999997E+02  0.45594000000E+02  0.51100000000E-03 0. -1.
         11   -1    0    0    0    0 -0.00000000000E+00 -0.00000000000E+00 -0.45593999997E+02  0.45594000000E+02  0.51100000000E-03 0.  1.
    9900012    2    1    2    0    0 -0.31777384915E+02 -0.26283223142E+01  0.10384676064E+00  0.59301936362E+02  0.49999986019E+02 0.  0.
        -12    1    1    2    0    0  0.31777384915E+02  0.26283223142E+01 -0.10384676064E+00  0.31886063638E+02  0.00000000000E+00 0.  1.
         11    1    3    3    0    0 -0.45659912108E+01 -0.56148828876E+01  0.17293982864E+02  0.18747187233E+02  0.51100000000E-03 0.  1.
        -11    1    3    3    0    0 -0.70748836518E+01 -0.10283666345E+02 -0.42470871603E+01  0.13185049176E+02  0.51100000000E-03 0. -1.
        -12    1    3    3    0    0 -0.20136510052E+02  0.13270226918E+02 -0.12943048943E+02  0.27369699952E+02  0.00000000000E+00 0.  1.
</event>
<event>
 7    1  0.1290195E-011  0.5930189E+02  0.7816164E-02  0.1266605E+00
        -11   -1    0    0    0    0  0.00000000000E+00  0.00000000000E+00  0.45593999997E+02  0.45594000000E+02  0.51100000000E-03 0.  1.
         11   -1    0    0    0    0 -0.00000000000E+00 -0.00000000000E+00 -0.45593999997E+02  0.45594000000E+02  0.51100000000E-03 0. -1.
    9900012    2    1    2    0    0 -0.14693146539E+02 -0.23863106399E+02 -0.15211427527E+02  0.59301891275E+02  0.49999903792E+02 0.  0.
        -12    1    1    2    0    0  0.14693146539E+02  0.23863106399E+02  0.15211427527E+02  0.31886108725E+02  0.00000000000E+00 0.  1.
         11    1    3    3    0    0 -0.34985348881E+01  0.16638452677E-01 -0.18276185544E+02  0.18608035401E+02  0.51100000000E-03 0. -1.
        -11    1    3    3    0    0 -0.10768694253E+02 -0.24272559106E+02 -0.94351250322E+01  0.28180551557E+02  0.51100000000E-03 0.  1.
        -12    1    3    3    0    0 -0.42591739774E+00  0.39281425446E+00  0.12499883049E+02  0.12513304316E+02  0.00000000000E+00 0.  1.
</event>
<event>
 7    1  0.1290195E-011  0.5930189E+02  0.7816164E-02  0.1266605E+00
        -11   -1    0    0    0    0  0.00000000000E+00  0.00000000000E+00  0.45593999997E+02  0.45594000000E+02  0.51100000000E-03 0. -1.
         11   -1    0    0    0    0 -0.00000000000E+00 -0.00000000000E+00 -0.45593999997E+02  0.45594000000E+02  0.51100000000E-03 0.  1.
    9900012    2    1    2    0    0  0.26933557623E+02  0.16972905003E+02  0.17965822315E+01  0.59301894277E+02  0.49999909267E+02 0.  0.
        -12    1    1    2    0    0 -0.26933557623E+02 -0.16972905003E+02 -0.17965822315E+01  0.31886105723E+02  0.00000000000E+00 0.  1.
         11    1    3    3    0    0  0.20211810381E+02  0.56567870969E+01  0.89676835683E+01  0.22824019540E+02  0.51100000000E-03 0. -1.
        -11    1    3    3    0    0  0.92626338309E+01 -0.92751243148E+01  0.28849064690E+01  0.13421885193E+02  0.51100000000E-03 0.  1.
        -12    1    3    3    0    0 -0.25408865894E+01  0.20591242221E+02 -0.10056007806E+02  0.23055989544E+02  0.00000000000E+00 0.  1.
</event>
<event>
 7    1  0.1290195E-011  0.5930207E+02  0.7816164E-02  0.1266604E+00
        -11   -1    0    0    0    0  0.00000000000E+00  0.00000000000E+00  0.45593999997E+02  0.45594000000E+02  0.51100000000E-03 0.  1.
         11   -1    0    0    0    0 -0.00000000000E+00 -0.00000000000E+00 -0.45593999997E+02  0.45594000000E+02  0.51100000000E-03 0. -1.
    9900012    2    1    2    0    0  0.30592364330E+02  0.62881212108E+01 -0.64249196269E+01  0.59302065548E+02  0.50000221624E+02 0.  0.
        -12    1    1    2    0    0 -0.30592364330E+02 -0.62881212108E+01  0.64249196269E+01  0.31885934452E+02  0.00000000000E+00 0.  1.
         11    1    3    3    0    0  0.11240407224E+02  0.10416087387E+02 -0.45768966421E+01  0.15993424091E+02  0.51100000000E-03 0. -1.
        -11    1    3    3    0    0  0.16639532293E+02  0.14659893567E+02  0.56729498974E+01  0.22890366427E+02  0.51100000000E-03 0.  1.
         12    1    3    3    0    0  0.27124248119E+01 -0.18787859744E+02 -0.75209728821E+01  0.20418275030E+02  0.00000000000E+00 0. -1.
</event>
<event>
 7    1  0.1290195E-011  0.5930193E+02  0.7816164E-02  0.1266605E+00
        -11   -1    0    0    0    0  0.00000000000E+00  0.00000000000E+00  0.45593999997E+02  0.45594000000E+02  0.51100000000E-03 0. -1.
         11   -1    0    0    0    0 -0.00000000000E+00 -0.00000000000E+00 -0.45593999997E+02  0.45594000000E+02  0.51100000000E-03 0.  1.
    9900012    2    1    2    0    0 -0.27947482106E+02  0.10566186189E+02  0.11136219386E+02  0.59301930489E+02  0.49999975310E+02 0.  0.
        -12    1    1    2    0    0  0.27947482106E+02 -0.10566186189E+02 -0.11136219386E+02  0.31886069511E+02  0.00000000000E+00 0.  1.
         11    1    3    3    0    0 -0.29659701162E+01  0.19425354951E+01  0.18077986255E+01  0.39797687133E+01  0.51100000000E-03 0. -1.
        -11    1    3    3    0    0 -0.97770102345E+01  0.27529917988E+02 -0.31008972139E+00  0.29216133719E+02  0.51100000000E-03 0.  1.
        -12    1    3    3    0    0 -0.15204501755E+02 -0.18906267295E+02  0.96385104818E+01  0.26106028057E+02  0.00000000000E+00 0.  1.
</event>
<event>
 7    1  0.1290195E-011  0.5930198E+02  0.7816164E-02  0.1266605E+00
        -11   -1    0    0    0    0  0.00000000000E+00  0.00000000000E+00  0.45593999997E+02  0.45594000000E+02  0.51100000000E-03 0. -1.
         11   -1    0    0    0    0 -0.00000000000E+00 -0.00000000000E+00 -0.45593999997E+02  0.45594000000E+02  0.51100000000E-03 0.  1.
    9900012    2    1    2    0    0  0.19602122370E+02 -0.50865128377E+01 -0.24629295722E+02  0.59301983912E+02  0.50000072739E+02 0.  0.
        -12    1    1    2    0    0 -0.19602122370E+02  0.50865128377E+01  0.24629295722E+02  0.31886016088E+02  0.00000000000E+00 0.  1.
         11    1    3    3    0    0 -0.28012291758E+01  0.12963769663E+01 -0.57143222406E+01  0.64946868334E+01  0.51100000000E-03 0. -1.
        -11    1    3    3    0    0 -0.98630635226E+01 -0.13405850122E+01  0.60960811399E+01  0.11672163285E+02  0.51100000000E-03 0.  1.
        -12    1    3    3    0    0  0.32266415068E+02 -0.50423047919E+01 -0.25011054621E+02  0.41135133793E+02  0.00000000000E+00 0.  1.
</event>
<event>
 7    1  0.1290195E-011  0.5930194E+02  0.7816164E-02  0.1266605E+00
        -11   -1    0    0    0    0  0.00000000000E+00  0.00000000000E+00  0.45593999997E+02  0.45594000000E+02  0.51100000000E-03 0. -1.
         11   -1    0    0    0    0 -0.00000000000E+00 -0.00000000000E+00 -0.45593999997E+02  0.45594000000E+02  0.51100000000E-03 0.  1.
    9900012    2    1    2    0    0  0.15932063412E+01  0.39554513813E+00  0.31843779501E+02  0.59301936346E+02  0.49999985991E+02 0.  0.
        -12    1    1    2    0    0 -0.15932063412E+01 -0.39554513813E+00 -0.31843779501E+02  0.31886063654E+02  0.00000000000E+00 0.  1.
         11    1    3    3    0    0 -0.29940057924E+00 -0.93146703568E+00 -0.20181620054E+01  0.22428218134E+01  0.51100000000E-03 0. -1.
        -11    1    3    3    0    0 -0.10468689865E+02  0.93576904389E+01 -0.54595337316E+01  0.15065402307E+02  0.51100000000E-03 0.  1.
         12    1    3    3    0    0  0.12361296785E+02 -0.80306782651E+01  0.39321475238E+02  0.41993712226E+02  0.00000000000E+00 0. -1.
</event>
<event>
 7    1  0.1290195E-011  0.5930204E+02  0.7816164E-02  0.1266604E+00
        -11   -1    0    0    0    0  0.00000000000E+00  0.00000000000E+00  0.45593999997E+02  0.45594000000E+02  0.51100000000E-03 0.  1.
         11   -1    0    0    0    0 -0.00000000000E+00 -0.00000000000E+00 -0.45593999997E+02  0.45594000000E+02  0.51100000000E-03 0. -1.
    9900012    2    1    2    0    0 -0.18949059170E+02  0.25625004488E+02  0.10032670959E+01  0.59302043164E+02  0.50000180801E+02 0.  0.
        -12    1    1    2    0    0  0.18949059170E+02 -0.25625004488E+02 -0.10032670959E+01  0.31885956836E+02  0.00000000000E+00 0.  1.
         11    1    3    3    0    0 -0.18263110140E+02  0.56283234155E+00 -0.92237160366E+01  0.20467899502E+02  0.51100000000E-03 0. -1.
        -11    1    3    3    0    0  0.10814437823E+02  0.21698422474E+01  0.68748443337E+01  0.12997067580E+02  0.51100000000E-03 0.  1.
         12    1    3    3    0    0 -0.11500386853E+02  0.22892329899E+02  0.33521387988E+01  0.25837076083E+02  0.00000000000E+00 0. -1.
</event>
<event>
 7    1  0.1290195E-011  0.5930194E+02  0.7816164E-02  0.1266605E+00
        -11   -1    0    0    0    0  0.00000000000E+00  0.00000000000E+00  0.45593999997E+02  0.45594000000E+02  0.51100000000E-03 0. -1.
         11   -1    0    0    0    0 -0.00000000000E+00 -0.00000000000E+00 -0.45593999997E+02  0.45594000000E+02  0.51100000000E-03 0.  1.
    9900012    2    1    2    0    0 -0.82416524958E+01 -0.30528995141E+02  0.40959371741E+01  0.59301935936E+02  0.49999985242E+02 0.  0.
        -12    1    1    2    0    0  0.82416524958E+01  0.30528995141E+02 -0.40959371741E+01  0.31886064064E+02  0.00000000000E+00 0.  1.
         11    1    3    3    0    0 -0.12051458258E+02 -0.37964070461E+02  0.63733235564E+01  0.40337669064E+02  0.51100000000E-03 0. -1.
        -11    1    3    3    0    0 -0.60363217307E+01  0.24912271403E+01  0.24508171652E+01  0.69749478665E+01  0.51100000000E-03 0.  1.
        -12    1    3    3    0    0  0.98461274925E+01  0.49438481796E+01 -0.47282035475E+01  0.11989319005E+02  0.00000000000E+00 0.  1.
</event>
<event>
 7    1  0.1290195E-011  0.5930192E+02  0.7816164E-02  0.1266605E+00
        -11   -1    0    0    0    0  0.00000000000E+00  0.00000000000E+00  0.45593999997E+02  0.45594000000E+02  0.51100000000E-03 0. -1.
         11   -1    0    0    0    0 -0.00000000000E+00 -0.00000000000E+00 -0.45593999997E+02  0.45594000000E+02  0.51100000000E-03 0.  1.
    9900012    2    1    2    0    0  0.18814235373E+02  0.25395833247E+02  0.42187704420E+01  0.59301924309E+02  0.49999964037E+02 0.  0.
        -12    1    1    2    0    0 -0.18814235373E+02 -0.25395833247E+02 -0.42187704420E+01  0.31886075691E+02  0.00000000000E+00 0.  1.
         11    1    3    3    0    0  0.12932199275E+02  0.81429814521E+01  0.14496682413E+02  0.21064276068E+02  0.51100000000E-03 0. -1.
        -11    1    3    3    0    0 -0.43699350571E+01 -0.35989103970E+01  0.72023258511E+01  0.91608944091E+01  0.51100000000E-03 0.  1.
        -12    1    3    3    0    0  0.10251971155E+02  0.20851762192E+02 -0.17480237822E+02  0.29076753831E+02  0.00000000000E+00 0.  1.
</event>
<event>
 7    1  0.1290195E-011  0.5930193E+02  0.7816164E-02  0.1266605E+00
        -11   -1    0    0    0    0  0.00000000000E+00  0.00000000000E+00  0.45593999997E+02  0.45594000000E+02  0.51100000000E-03 0.  1.
         11   -1    0    0    0    0 -0.00000000000E+00 -0.00000000000E+00 -0.45593999997E+02  0.45594000000E+02  0.51100000000E-03 0. -1.
    9900012    2    1    2    0    0  0.17232500283E+02  0.81943677025E+01 -0.25546320362E+02  0.59301933888E+02  0.49999981508E+02 0.  0.
        -12    1    1    2    0    0 -0.17232500283E+02 -0.81943677025E+01  0.25546320362E+02  0.31886066112E+02  0.00000000000E+00 0.  1.
         11    1    3    3    0    0 -0.36504894498E+01 -0.71698513876E+01 -0.10531345516E+02  0.13253002708E+02  0.51100000000E-03 0. -1.
        -11    1    3    3    0    0  0.14895541261E+01 -0.46878209902E+01 -0.17370606718E+02  0.18053598398E+02  0.51100000000E-03 0.  1.
        -12    1    3    3    0    0  0.19393435607E+02  0.20052040080E+02  0.23556318721E+01  0.27995332782E+02  0.00000000000E+00 0.  1.
</event>
<event>
 7    1  0.1290195E-011  0.5930195E+02  0.7816164E-02  0.1266605E+00
        -11   -1    0    0    0    0  0.00000000000E+00  0.00000000000E+00  0.45593999997E+02  0.45594000000E+02  0.51100000000E-03 0. -1.
         11   -1    0    0    0    0 -0.00000000000E+00 -0.00000000000E+00 -0.45593999997E+02  0.45594000000E+02  0.51100000000E-03 0.  1.
    9900012    2    1    2    0    0  0.19679963404E+02 -0.25036164483E+02 -0.16155318259E+01  0.59301946079E+02  0.50000003740E+02 0.  0.
        -12    1    1    2    0    0 -0.19679963404E+02  0.25036164483E+02  0.16155318259E+01  0.31886053921E+02  0.00000000000E+00 0.  1.
         11    1    3    3    0    0 -0.75313976256E+01 -0.50757007886E+01 -0.19014967244E+01  0.92790289764E+01  0.51100000000E-03 0. -1.
        -11    1    3    3    0    0 -0.69629001596E+01 -0.12661085022E+02 -0.35176385206E+01  0.14871409939E+02  0.51100000000E-03 0.  1.
         12    1    3    3    0    0  0.34174261190E+02 -0.72993786721E+01  0.38036034191E+01  0.35151507163E+02  0.00000000000E+00 0. -1.
</event>
<event>
 7    1  0.1290195E-011  0.5930194E+02  0.7816164E-02  0.1266605E+00
        -11   -1    0    0    0    0  0.00000000000E+00  0.00000000000E+00  0.45593999997E+02  0.45594000000E+02  0.51100000000E-03 0.  1.
         11   -1    0    0    0    0 -0.00000000000E+00 -0.00000000000E+00 -0.45593999997E+02  0.45594000000E+02  0.51100000000E-03 0. -1.
    9900012    2    1    2    0    0 -0.18864243418E+01 -0.91306137496E+01 -0.30492525296E+02  0.59301940300E+02  0.49999993201E+02 0.  0.
        -12    1    1    2    0    0  0.18864243418E+01  0.91306137496E+01  0.30492525296E+02  0.31886059700E+02  0.00000000000E+00 0.  1.
         11    1    3    3    0    0 -0.24851962546E+01  0.13611942288E+01  0.13002582785E+01  0.31176468697E+01  0.51100000000E-03 0. -1.
        -11    1    3    3    0    0 -0.17082972288E+02  0.68310882013E+01 -0.37445587996E+01  0.18775340984E+02  0.51100000000E-03 0.  1.
        -12    1    3    3    0    0  0.17681744201E+02 -0.17322896180E+02 -0.28048224775E+02  0.37408952446E+02  0.00000000000E+00 0.  1.
</event>
<event>
 7    1  0.1290195E-011  0.5930194E+02  0.7816164E-02  0.1266605E+00
        -11   -1    0    0    0    0  0.00000000000E+00  0.00000000000E+00  0.45593999997E+02  0.45594000000E+02  0.51100000000E-03 0.  1.
         11   -1    0    0    0    0 -0.00000000000E+00 -0.00000000000E+00 -0.45593999997E+02  0.45594000000E+02  0.51100000000E-03 0. -1.
    9900012    2    1    2    0    0  0.21566205667E+02  0.22811393776E+02  0.55910546680E+01  0.59301940269E+02  0.49999993145E+02 0.  0.
        -12    1    1    2    0    0 -0.21566205667E+02 -0.22811393776E+02 -0.55910546680E+01  0.31886059731E+02  0.00000000000E+00 0.  1.
         11    1    3    3    0    0 -0.37868356801E+01 -0.38224851748E+01  0.32111010037E+00  0.53902346273E+01  0.51100000000E-03 0. -1.
        -11    1    3    3    0    0 -0.93162912297E+01  0.22108846319E+01  0.63510095414E+01  0.11489848371E+02  0.51100000000E-03 0.  1.
         12    1    3    3    0    0  0.34669332577E+02  0.24422994319E+02 -0.10810649738E+01  0.42421857271E+02  0.00000000000E+00 0. -1.
</event>
<event>
 7    1  0.1290195E-011  0.5930195E+02  0.7816164E-02  0.1266605E+00
        -11   -1    0    0    0    0  0.00000000000E+00  0.00000000000E+00  0.45593999997E+02  0.45594000000E+02  0.51100000000E-03 0. -1.
         11   -1    0    0    0    0 -0.00000000000E+00 -0.00000000000E+00 -0.45593999997E+02  0.45594000000E+02  0.51100000000E-03 0.  1.
    9900012    2    1    2    0    0  0.13237276122E+02  0.19781489465E+02  0.21217620407E+02  0.59301949440E+02  0.50000009871E+02 0.  0.
        -12    1    1    2    0    0 -0.13237276122E+02 -0.19781489465E+02 -0.21217620407E+02  0.31886050560E+02  0.00000000000E+00 0.  1.
         11    1    3    3    0    0 -0.48499548070E+01 -0.71339663344E+01  0.19726895068E+02  0.21530581194E+02  0.51100000000E-03 0. -1.
        -11    1    3    3    0    0 -0.15416885842E+00 -0.17572558070E+01  0.32977855169E+01  0.37399339011E+01  0.51100000000E-03 0.  1.
        -12    1    3    3    0    0  0.18241399787E+02  0.28672711606E+02 -0.18070601777E+01  0.34031434345E+02  0.00000000000E+00 0.  1.
</event>
<event>
 7    1  0.1290195E-011  0.5930196E+02  0.7816164E-02  0.1266605E+00
        -11   -1    0    0    0    0  0.00000000000E+00  0.00000000000E+00  0.45593999997E+02  0.45594000000E+02  0.51100000000E-03 0. -1.
         11   -1    0    0    0    0 -0.00000000000E+00 -0.00000000000E+00 -0.45593999997E+02  0.45594000000E+02  0.51100000000E-03 0.  1.
    9900012    2    1    2    0    0 -0.16124406520E+02  0.10212993338E+02 -0.25542468832E+02  0.59301961792E+02  0.50000032398E+02 0.  0.
        -12    1    1    2    0    0  0.16124406520E+02 -0.10212993338E+02  0.25542468832E+02  0.31886038208E+02  0.00000000000E+00 0.  1.
         11    1    3    3    0    0 -0.17261140786E+02 -0.12617793205E+02 -0.22581703261E+01  0.21500116746E+02  0.51100000000E-03 0. -1.
        -11    1    3    3    0    0 -0.10769425116E+01  0.16489972142E+02 -0.34770590997E+01  0.16886945451E+02  0.51100000000E-03 0.  1.
        -12    1    3    3    0    0  0.22136767779E+01  0.63408144011E+01 -0.19807239407E+02  0.20914899595E+02  0.00000000000E+00 0.  1.
</event>
<event>
 7    1  0.1290195E-011  0.5930198E+02  0.7816164E-02  0.1266605E+00
        -11   -1    0    0    0    0  0.00000000000E+00  0.00000000000E+00  0.45593999997E+02  0.45594000000E+02  0.51100000000E-03 0.  1.
         11   -1    0    0    0    0 -0.00000000000E+00 -0.00000000000E+00 -0.45593999997E+02  0.45594000000E+02  0.51100000000E-03 0. -1.
    9900012    2    1    2    0    0  0.28682702196E+02  0.67081586553E+01 -0.12207435421E+02  0.59301979907E+02  0.50000065435E+02 0.  0.
        -12    1    1    2    0    0 -0.28682702196E+02 -0.67081586553E+01  0.12207435421E+02  0.31886020093E+02  0.00000000000E+00 0.  1.
         11    1    3    3    0    0 -0.69193337793E+00 -0.14759760169E+01 -0.11428211219E+02  0.11543885348E+02  0.51100000000E-03 0. -1.
        -11    1    3    3    0    0  0.12631137517E+02 -0.14549408334E+02 -0.27155370353E+01  0.19457776324E+02  0.51100000000E-03 0.  1.
         12    1    3    3    0    0  0.16743498057E+02  0.22733543006E+02  0.19363128331E+01  0.28300318235E+02  0.00000000000E+00 0. -1.
</event>
<event>
 7    1  0.1290195E-011  0.5930197E+02  0.7816164E-02  0.1266605E+00
        -11   -1    0    0    0    0  0.00000000000E+00  0.00000000000E+00  0.45593999997E+02  0.45594000000E+02  0.51100000000E-03 0.  1.
         11   -1    0    0    0    0 -0.00000000000E+00 -0.00000000000E+00 -0.45593999997E+02  0.45594000000E+02  0.51100000000E-03 0. -1.
    9900012    2    1    2    0    0 -0.12312730103E+02  0.25632338319E+02 -0.14425636110E+02  0.59301967517E+02  0.50000042839E+02 0.  0.
        -12    1    1    2    0    0  0.12312730103E+02 -0.25632338319E+02  0.14425636110E+02  0.31886032483E+02  0.00000000000E+00 0.  1.
         11    1    3    3    0    0 -0.18422729416E+01  0.21277298198E+01  0.58031087179E+01  0.64495949353E+01  0.51100000000E-03 0. -1.
        -11    1    3    3    0    0 -0.45225716645E+01  0.33499352710E+02 -0.57632358990E+01  0.34291036361E+02  0.51100000000E-03 0.  1.
         12    1    3    3    0    0 -0.59478854973E+01 -0.99947442105E+01 -0.14465508929E+02  0.18561336221E+02  0.00000000000E+00 0. -1.
</event>
<event>
 7    1  0.1290195E-011  0.5930191E+02  0.7816164E-02  0.1266605E+00
        -11   -1    0    0    0    0  0.00000000000E+00  0.00000000000E+00  0.45593999997E+02  0.45594000000E+02  0.51100000000E-03 0.  1.
         11   -1    0    0    0    0 -0.00000000000E+00 -0.00000000000E+00 -0.45593999997E+02  0.45594000000E+02  0.51100000000E-03 0. -1.
    9900012    2    1    2    0    0  0.14062464947E+01 -0.24773606014E+02  0.20025320264E+02  0.59301913131E+02  0.49999943651E+02 0.  0.
        -12    1    1    2    0    0 -0.14062464947E+01  0.24773606014E+02 -0.20025320264E+02  0.31886086869E+02  0.00000000000E+00 0.  1.
         11    1    3    3    0    0  0.12159907084E+02  0.17851829779E+01  0.87366053597E+01  0.15079074641E+02  0.51100000000E-03 0. -1.
        -11    1    3    3    0    0 -0.14988907571E+01  0.35119506046E+01  0.12162714166E+02  0.12748022855E+02  0.51100000000E-03 0.  1.
        -12    1    3    3    0    0 -0.92547698321E+01 -0.30070739597E+02 -0.87399926190E+00  0.31474815635E+02  0.00000000000E+00 0.  1.
</event>
<event>
 7    1  0.1290195E-011  0.5930195E+02  0.7816164E-02  0.1266605E+00
        -11   -1    0    0    0    0  0.00000000000E+00  0.00000000000E+00  0.45593999997E+02  0.45594000000E+02  0.51100000000E-03 0. -1.
         11   -1    0    0    0    0 -0.00000000000E+00 -0.00000000000E+00 -0.45593999997E+02  0.45594000000E+02  0.51100000000E-03 0.  1.
    9900012    2    1    2    0    0  0.15649765214E+02 -0.17472936518E+02  0.21598648162E+02  0.59301948751E+02  0.50000008614E+02 0.  0.
        -12    1    1    2    0    0 -0.15649765214E+02  0.17472936518E+02 -0.21598648162E+02  0.31886051249E+02  0.00000000000E+00 0.  1.
         11    1    3    3    0    0 -0.31240498557E+01 -0.13313103626E+02  0.66261008288E+01  0.15195513421E+02  0.51100000000E-03 0. -1.
        -11    1    3    3    0    0 -0.72761072239E+01 -0.10250243717E+02 -0.15464183819E+01  0.12664937531E+02  0.51100000000E-03 0.  1.
         12    1    3    3    0    0  0.26049922294E+02  0.60904108254E+01  0.16518965715E+02  0.31441497799E+02  0.00000000000E+00 0. -1.
</event>
<event>
 7    1  0.1290195E-011  0.5930199E+02  0.7816164E-02  0.1266605E+00
        -11   -1    0    0    0    0  0.00000000000E+00  0.00000000000E+00  0.45593999997E+02  0.45594000000E+02  0.51100000000E-03 0.  1.
         11   -1    0    0    0    0 -0.00000000000E+00 -0.00000000000E+00 -0.45593999997E+02  0.45594000000E+02  0.51100000000E-03 0. -1.
    9900012    2    1    2    0    0 -0.26548252251E+02  0.34196816993E+01 -0.17326670017E+02  0.59301993439E+02  0.50000090115E+02 0.  0.
        -12    1    1    2    0    0  0.26548252251E+02 -0.34196816993E+01  0.17326670017E+02  0.31886006561E+02  0.00000000000E+00 0.  1.
         11    1    3    3    0    0 -0.18552326344E+01 -0.59144479350E+00  0.54578362075E+01  0.57947969249E+01  0.51100000000E-03 0. -1.
        -11    1    3    3    0    0 -0.26551632769E+02  0.17330923599E+02 -0.64641153835E+01  0.32359463893E+02  0.51100000000E-03 0.  1.
         12    1    3    3    0    0  0.18586131524E+01 -0.13319797106E+02 -0.16320390841E+02  0.21147732621E+02  0.00000000000E+00 0. -1.
</event>
<event>
 7    1  0.1290195E-011  0.5930196E+02  0.7816164E-02  0.1266605E+00
        -11   -1    0    0    0    0  0.00000000000E+00  0.00000000000E+00  0.45593999997E+02  0.45594000000E+02  0.51100000000E-03 0.  1.
         11   -1    0    0    0    0 -0.00000000000E+00 -0.00000000000E+00 -0.45593999997E+02  0.45594000000E+02  0.51100000000E-03 0. -1.
    9900012    2    1    2    0    0  0.18689508940E+02  0.70342604433E+01 -0.24858420625E+02  0.59301958534E+02  0.50000026456E+02 0.  0.
        -12    1    1    2    0    0 -0.18689508940E+02 -0.70342604433E+01  0.24858420625E+02  0.31886041466E+02  0.00000000000E+00 0.  1.
         11    1    3    3    0    0 -0.32689049575E+01  0.99367057555E+01 -0.76146182233E+01  0.12938557564E+02  0.51100000000E-03 0. -1.
        -11    1    3    3    0    0  0.19213666964E+02  0.15224975746E+02 -0.12000931099E+02  0.27294454238E+02  0.51100000000E-03 0.  1.
         12    1    3    3    0    0  0.27447469339E+01 -0.18127421058E+02 -0.52428713029E+01  0.19068946731E+02  0.00000000000E+00 0. -1.
</event>
<event>
 7    1  0.1290195E-011  0.5930179E+02  0.7816164E-02  0.1266605E+00
        -11   -1    0    0    0    0  0.00000000000E+00  0.00000000000E+00  0.45593999997E+02  0.45594000000E+02  0.51100000000E-03 0. -1.
         11   -1    0    0    0    0 -0.00000000000E+00 -0.00000000000E+00 -0.45593999997E+02  0.45594000000E+02  0.51100000000E-03 0.  1.
    9900012    2    1    2    0    0  0.10076022276E+02 -0.30248454446E+02 -0.48500444651E+00  0.59301789021E+02  0.49999717304E+02 0.  0.
        -12    1    1    2    0    0 -0.10076022276E+02  0.30248454446E+02  0.48500444651E+00  0.31886210979E+02  0.00000000000E+00 0.  1.
         11    1    3    3    0    0 -0.67336291646E+01  0.16902964683E+01  0.12612430079E+02  0.14396953033E+02  0.51100000000E-03 0. -1.
        -11    1    3    3    0    0  0.19462129540E+01  0.32170410424E+01 -0.43440528718E+01  0.57452496503E+01  0.51100000000E-03 0.  1.
         12    1    3    3    0    0  0.14863438487E+02 -0.35155791957E+02 -0.87533816536E+01  0.39159586338E+02  0.00000000000E+00 0. -1.
</event>
<event>
 7    1  0.1290195E-011  0.5930193E+02  0.7816164E-02  0.1266605E+00
        -11   -1    0    0    0    0  0.00000000000E+00  0.00000000000E+00  0.45593999997E+02  0.45594000000E+02  0.51100000000E-03 0.  1.
         11   -1    0    0    0    0 -0.00000000000E+00 -0.00000000000E+00 -0.45593999997E+02  0.45594000000E+02  0.51100000000E-03 0. -1.
    9900012    2    1    2    0    0  0.12962430287E+01 -0.30496850361E+02 -0.92186562375E+01  0.59301925441E+02  0.49999966103E+02 0.  0.
        -12    1    1    2    0    0 -0.12962430287E+01  0.30496850361E+02  0.92186562375E+01  0.31886074559E+02  0.00000000000E+00 0.  1.
         11    1    3    3    0    0  0.27811562229E+01 -0.43692321304E+01  0.11454410263E+02  0.12570940063E+02  0.51100000000E-03 0. -1.
        -11    1    3    3    0    0  0.39446584799E+01  0.71606628265E+01 -0.43502230945E+01  0.92606621724E+01  0.51100000000E-03 0.  1.
        -12    1    3    3    0    0 -0.54295716741E+01 -0.33288281057E+02 -0.16322843405E+02  0.37470323206E+02  0.00000000000E+00 0.  1.
</event>
<event>
 7    1  0.1290195E-011  0.5930194E+02  0.7816164E-02  0.1266605E+00
        -11   -1    0    0    0    0  0.00000000000E+00  0.00000000000E+00  0.45593999997E+02  0.45594000000E+02  0.51100000000E-03 0. -1.
         11   -1    0    0    0    0 -0.00000000000E+00 -0.00000000000E+00 -0.45593999997E+02  0.45594000000E+02  0.51100000000E-03 0.  1.
    9900012    2    1    2    0    0  0.31587894771E+01  0.74261829867E+00  0.31720522926E+02  0.59301937095E+02  0.49999987356E+02 0.  0.
        -12    1    1    2    0    0 -0.31587894771E+01 -0.74261829867E+00 -0.31720522926E+02  0.31886062905E+02  0.00000000000E+00 0.  1.
         11    1    3    3    0    0 -0.26052653371E-01  0.10220602978E+01  0.48209744455E+01  0.49281924535E+01  0.51100000000E-03 0. -1.
        -11    1    3    3    0    0  0.18227050482E+02  0.12481354432E+02  0.26690748815E+02  0.34646870714E+02  0.51100000000E-03 0.  1.
        -12    1    3    3    0    0 -0.15042208351E+02 -0.12760796431E+02  0.20879966585E+00  0.19726873927E+02  0.00000000000E+00 0.  1.
</event>
<event>
 7    1  0.1290195E-011  0.5930196E+02  0.7816164E-02  0.1266605E+00
        -11   -1    0    0    0    0  0.00000000000E+00  0.00000000000E+00  0.45593999997E+02  0.45594000000E+02  0.51100000000E-03 0.  1.
         11   -1    0    0    0    0 -0.00000000000E+00 -0.00000000000E+00 -0.45593999997E+02  0.45594000000E+02  0.51100000000E-03 0. -1.
    9900012    2    1    2    0    0 -0.79806866234E+01 -0.15717161709E+02 -0.26570644684E+02  0.59301957754E+02  0.50000025034E+02 0.  0.
        -12    1    1    2    0    0  0.79806866234E+01  0.15717161709E+02  0.26570644684E+02  0.31886042246E+02  0.00000000000E+00 0.  1.
         11    1    3    3    0    0 -0.15373990813E+02 -0.50819924924E+01 -0.15602957598E+02  0.22486407612E+02  0.51100000000E-03 0. -1.
        -11    1    3    3    0    0 -0.11241202293E+02 -0.10503972731E+01  0.29382442797E+01  0.11666243746E+02  0.51100000000E-03 0.  1.
         12    1    3    3    0    0  0.18634506483E+02 -0.95847719435E+01 -0.13905931366E+02  0.25149306396E+02  0.00000000000E+00 0. -1.
</event>
<event>
 7    1  0.1290195E-011  0.5930191E+02  0.7816164E-02  0.1266605E+00
        -11   -1    0    0    0    0  0.00000000000E+00  0.00000000000E+00  0.45593999997E+02  0.45594000000E+02  0.51100000000E-03 0.  1.
         11   -1    0    0    0    0 -0.00000000000E+00 -0.00000000000E+00 -0.45593999997E+02  0.45594000000E+02  0.51100000000E-03 0. -1.
    9900012    2    1    2    0    0  0.15949867301E+02 -0.27488394624E+02  0.25908983689E+01  0.59301908043E+02  0.49999934372E+02 0.  0.
        -12    1    1    2    0    0 -0.15949867301E+02  0.27488394624E+02 -0.25908983689E+01  0.31886091957E+02  0.00000000000E+00 0.  1.
         11    1    3    3    0    0 -0.38569816679E+01 -0.49124802988E+01 -0.15995646053E+01  0.64472767476E+01  0.51100000000E-03 0. -1.
        -11    1    3    3    0    0 -0.25292765587E+01  0.11497642094E+02 -0.84399066722E+00  0.11802768071E+02  0.51100000000E-03 0.  1.
        -12    1    3    3    0    0  0.22336125527E+02 -0.34073556420E+02  0.50344536415E+01  0.41051863224E+02  0.00000000000E+00 0.  1.
</event>
<event>
 7    1  0.1290195E-011  0.5930195E+02  0.7816164E-02  0.1266605E+00
        -11   -1    0    0    0    0  0.00000000000E+00  0.00000000000E+00  0.45593999997E+02  0.45594000000E+02  0.51100000000E-03 0.  1.
         11   -1    0    0    0    0 -0.00000000000E+00 -0.00000000000E+00 -0.45593999997E+02  0.45594000000E+02  0.51100000000E-03 0. -1.
    9900012    2    1    2    0    0 -0.15551378251E+02 -0.21120924051E+01 -0.27756334783E+02  0.59301946302E+02  0.50000004147E+02 0.  0.
        -12    1    1    2    0    0  0.15551378251E+02  0.21120924051E+01  0.27756334783E+02  0.31886053698E+02  0.00000000000E+00 0.  1.
         11    1    3    3    0    0 -0.14193151935E+00 -0.13220953628E+02 -0.75133331824E+01  0.15207364504E+02  0.51100000000E-03 0. -1.
        -11    1    3    3    0    0  0.94904028931E+01  0.46569676879E+01  0.11566791597E+01  0.10634519362E+02  0.51100000000E-03 0.  1.
        -12    1    3    3    0    0 -0.24899849625E+02  0.64518935349E+01 -0.21399680761E+02  0.33460062436E+02  0.00000000000E+00 0.  1.
</event>
<event>
 7    1  0.1290195E-011  0.5930196E+02  0.7816164E-02  0.1266605E+00
        -11   -1    0    0    0    0  0.00000000000E+00  0.00000000000E+00  0.45593999997E+02  0.45594000000E+02  0.51100000000E-03 0. -1.
         11   -1    0    0    0    0 -0.00000000000E+00 -0.00000000000E+00 -0.45593999997E+02  0.45594000000E+02  0.51100000000E-03 0.  1.
    9900012    2    1    2    0    0 -0.30650538945E+02  0.32935096231E+01 -0.81496346267E+01  0.59301964062E+02  0.50000036538E+02 0.  0.
        -12    1    1    2    0    0  0.30650538945E+02 -0.32935096231E+01  0.81496346267E+01  0.31886035938E+02  0.00000000000E+00 0.  1.
         11    1    3    3    0    0 -0.16512070072E+02 -0.12782030215E+02  0.88006465838E+01  0.22660100067E+02  0.51100000000E-03 0. -1.
        -11    1    3    3    0    0 -0.15252680315E+01 -0.43635199927E+01 -0.10950522388E+02  0.11886155398E+02  0.51100000000E-03 0.  1.
        -12    1    3    3    0    0 -0.12613200842E+02  0.20439059831E+02 -0.59997588221E+01  0.24755708598E+02  0.00000000000E+00 0.  1.
</event>
<event>
 7    1  0.1290195E-011  0.5930195E+02  0.7816164E-02  0.1266605E+00
        -11   -1    0    0    0    0  0.00000000000E+00  0.00000000000E+00  0.45593999997E+02  0.45594000000E+02  0.51100000000E-03 0.  1.
         11   -1    0    0    0    0 -0.00000000000E+00 -0.00000000000E+00 -0.45593999997E+02  0.45594000000E+02  0.51100000000E-03 0. -1.
    9900012    2    1    2    0    0  0.20169814499E+02  0.17053716012E+02 -0.17862516830E+02  0.59301950476E+02  0.50000011760E+02 0.  0.
        -12    1    1    2    0    0 -0.20169814499E+02 -0.17053716012E+02  0.17862516830E+02  0.31886049524E+02  0.00000000000E+00 0.  1.
         11    1    3    3    0    0  0.59994466115E+01  0.63626737816E+01 -0.18651138400E+02  0.20599561674E+02  0.51100000000E-03 0. -1.
        -11    1    3    3    0    0  0.19636489676E+02  0.14574290921E+02 -0.96554443366E+01  0.26291239763E+02  0.51100000000E-03 0.  1.
        -12    1    3    3    0    0 -0.54661217885E+01 -0.38832486909E+01  0.10444065907E+02  0.12411149039E+02  0.00000000000E+00 0.  1.
</event>
<event>
 7    1  0.1290195E-011  0.5930195E+02  0.7816164E-02  0.1266605E+00
        -11   -1    0    0    0    0  0.00000000000E+00  0.00000000000E+00  0.45593999997E+02  0.45594000000E+02  0.51100000000E-03 0.  1.
         11   -1    0    0    0    0 -0.00000000000E+00 -0.00000000000E+00 -0.45593999997E+02  0.45594000000E+02  0.51100000000E-03 0. -1.
    9900012    2    1    2    0    0 -0.15797535827E+02  0.21059162672E+02 -0.17990830537E+02  0.59301945774E+02  0.50000003185E+02 0.  0.
        -12    1    1    2    0    0  0.15797535827E+02 -0.21059162672E+02  0.17990830537E+02  0.31886054226E+02  0.00000000000E+00 0.  1.
         11    1    3    3    0    0 -0.15083176508E+01 -0.11362926197E+02  0.16123246473E+01  0.11575435409E+02  0.51100000000E-03 0.  1.
        -11    1    3    3    0    0 -0.97659314897E+01  0.29120329459E+00 -0.97808109894E+01  0.13824705461E+02  0.51100000000E-03 0. -1.
         12    1    3    3    0    0 -0.45232866866E+01  0.32130885574E+02 -0.98223441948E+01  0.33901804904E+02  0.00000000000E+00 0. -1.
</event>
<event>
 7    1  0.1290195E-011  0.5930195E+02  0.7816164E-02  0.1266605E+00
        -11   -1    0    0    0    0  0.00000000000E+00  0.00000000000E+00  0.45593999997E+02  0.45594000000E+02  0.51100000000E-03 0.  1.
         11   -1    0    0    0    0 -0.00000000000E+00 -0.00000000000E+00 -0.45593999997E+02  0.45594000000E+02  0.51100000000E-03 0. -1.
    9900012    2    1    2    0    0  0.18354581451E+02 -0.19199811516E+02 -0.17640774621E+02  0.59301947380E+02  0.50000006113E+02 0.  0.
        -12    1    1    2    0    0 -0.18354581451E+02  0.19199811516E+02  0.17640774621E+02  0.31886052620E+02  0.00000000000E+00 0.  1.
         11    1    3    3    0    0  0.17092138251E+02 -0.51974453080E+01 -0.33777315570E+01  0.18181410794E+02  0.51100000000E-03 0. -1.
        -11    1    3    3    0    0  0.82250997705E+01 -0.24569781534E+02 -0.98105916363E+01  0.27705128395E+02  0.51100000000E-03 0.  1.
         12    1    3    3    0    0 -0.69626565706E+01  0.10567415326E+02 -0.44524514276E+01  0.13415408190E+02  0.00000000000E+00 0. -1.
</event>
<event>
 7    1  0.1290195E-011  0.5930194E+02  0.7816164E-02  0.1266605E+00
        -11   -1    0    0    0    0  0.00000000000E+00  0.00000000000E+00  0.45593999997E+02  0.45594000000E+02  0.51100000000E-03 0. -1.
         11   -1    0    0    0    0 -0.00000000000E+00 -0.00000000000E+00 -0.45593999997E+02  0.45594000000E+02  0.51100000000E-03 0.  1.
    9900012    2    1    2    0    0 -0.16750035901E+02  0.21111430797E+02 -0.17043022935E+02  0.59301939664E+02  0.49999992042E+02 0.  0.
        -12    1    1    2    0    0  0.16750035901E+02 -0.21111430797E+02  0.17043022935E+02  0.31886060336E+02  0.00000000000E+00 0.  1.
         11    1    3    3    0    0 -0.13278945779E+01 -0.37440452853E+01 -0.14805084271E+02  0.15328786633E+02  0.51100000000E-03 0. -1.
        -11    1    3    3    0    0 -0.81260134070E+01 -0.19197025456E+00 -0.13339498792E+02  0.15620857043E+02  0.51100000000E-03 0.  1.
         12    1    3    3    0    0 -0.72961279160E+01  0.25047446337E+02  0.11101560128E+02  0.28352295989E+02  0.00000000000E+00 0. -1.
</event>
<event>
 7    1  0.1290195E-011  0.5930195E+02  0.7816164E-02  0.1266605E+00
        -11   -1    0    0    0    0  0.00000000000E+00  0.00000000000E+00  0.45593999997E+02  0.45594000000E+02  0.51100000000E-03 0. -1.
         11   -1    0    0    0    0 -0.00000000000E+00 -0.00000000000E+00 -0.45593999997E+02  0.45594000000E+02  0.51100000000E-03 0.  1.
    9900012    2    1    2    0    0 -0.20228765006E+02 -0.10217880204E+02  0.22430160462E+02  0.59301951204E+02  0.50000013087E+02 0.  0.
        -12    1    1    2    0    0  0.20228765006E+02  0.10217880204E+02 -0.22430160462E+02  0.31886048796E+02  0.00000000000E+00 0.  1.
         11    1    3    3    0    0 -0.12979875888E+02 -0.10969623958E+02 -0.16865798299E+01  0.17077891546E+02  0.51100000000E-03 0.  1.
        -11    1    3    3    0    0  0.42152575243E+01 -0.14510761648E+02  0.72871975839E+01  0.16775990239E+02  0.51100000000E-03 0. -1.
        -12    1    3    3    0    0 -0.11464146642E+02  0.15262505403E+02  0.16829542708E+02  0.25448069419E+02  0.00000000000E+00 0.  1.
</event>
<event>
 7    1  0.1290195E-011  0.5930196E+02  0.7816164E-02  0.1266605E+00
        -11   -1    0    0    0    0  0.00000000000E+00  0.00000000000E+00  0.45593999997E+02  0.45594000000E+02  0.51100000000E-03 0.  1.
         11   -1    0    0    0    0 -0.00000000000E+00 -0.00000000000E+00 -0.45593999997E+02  0.45594000000E+02  0.51100000000E-03 0. -1.
    9900012    2    1    2    0    0  0.24662899413E+02 -0.20115810833E+02 -0.19531865953E+01  0.59301962448E+02  0.50000033594E+02 0.  0.
        -12    1    1    2    0    0 -0.24662899413E+02  0.20115810833E+02  0.19531865953E+01  0.31886037552E+02  0.00000000000E+00 0.  1.
         11    1    3    3    0    0  0.19200306939E+02 -0.16538322878E+02  0.17440104157E+02  0.30762398207E+02  0.51100000000E-03 0. -1.
        -11    1    3    3    0    0  0.10913515563E+02 -0.10295061662E+01 -0.34396440075E+01  0.11488944950E+02  0.51100000000E-03 0.  1.
        -12    1    3    3    0    0 -0.54509230900E+01 -0.25479817887E+01 -0.15953646745E+02  0.17050619291E+02  0.00000000000E+00 0.  1.
</event>
<event>
 7    1  0.1290195E-011  0.5930193E+02  0.7816164E-02  0.1266605E+00
        -11   -1    0    0    0    0  0.00000000000E+00  0.00000000000E+00  0.45593999997E+02  0.45594000000E+02  0.51100000000E-03 0.  1.
         11   -1    0    0    0    0 -0.00000000000E+00 -0.00000000000E+00 -0.45593999997E+02  0.45594000000E+02  0.51100000000E-03 0. -1.
    9900012    2    1    2    0    0  0.95823585274E-01 -0.31033780269E+02 -0.73223302493E+01  0.59301933761E+02  0.49999981276E+02 0.  0.
        -12    1    1    2    0    0 -0.95823585274E-01  0.31033780269E+02  0.73223302493E+01  0.31886066239E+02  0.00000000000E+00 0.  1.
         11    1    3    3    0    0  0.16299408987E+01  0.66970812147E+01 -0.12517035843E+02  0.14289289370E+02  0.51100000000E-03 0. -1.
        -11    1    3    3    0    0  0.57360233752E+00 -0.29246085669E+01  0.94268444043E+01  0.98867462087E+01  0.51100000000E-03 0.  1.
         12    1    3    3    0    0 -0.21077196509E+01 -0.34806252916E+02 -0.42321388103E+01  0.35125898182E+02  0.00000000000E+00 0. -1.
</event>
<event>
 7    1  0.1290195E-011  0.5930188E+02  0.7816164E-02  0.1266605E+00
        -11   -1    0    0    0    0  0.00000000000E+00  0.00000000000E+00  0.45593999997E+02  0.45594000000E+02  0.51100000000E-03 0.  1.
         11   -1    0    0    0    0 -0.00000000000E+00 -0.00000000000E+00 -0.45593999997E+02  0.45594000000E+02  0.51100000000E-03 0. -1.
    9900012    2    1    2    0    0 -0.19828070203E+02 -0.23225622050E+02  0.91729454185E+01  0.59301877388E+02  0.49999878465E+02 0.  0.
        -12    1    1    2    0    0  0.19828070203E+02  0.23225622050E+02 -0.91729454185E+01  0.31886122612E+02  0.00000000000E+00 0.  1.
         11    1    3    3    0    0 -0.14389889468E+02 -0.23189208419E+02 -0.10679356329E+01  0.27312063137E+02  0.51100000000E-03 0. -1.
        -11    1    3    3    0    0 -0.95584699097E+01 -0.96418365199E+01  0.15234476259E+02  0.20406337879E+02  0.51100000000E-03 0.  1.
         12    1    3    3    0    0  0.41202891748E+01  0.96054228892E+01 -0.49935952073E+01  0.11583476372E+02  0.00000000000E+00 0. -1.
</event>
<event>
 7    1  0.1290195E-011  0.5930197E+02  0.7816164E-02  0.1266605E+00
        -11   -1    0    0    0    0  0.00000000000E+00  0.00000000000E+00  0.45593999997E+02  0.45594000000E+02  0.51100000000E-03 0.  1.
         11   -1    0    0    0    0 -0.00000000000E+00 -0.00000000000E+00 -0.45593999997E+02  0.45594000000E+02  0.51100000000E-03 0. -1.
    9900012    2    1    2    0    0 -0.25941859115E+02  0.70094137713E+01 -0.17164125237E+02  0.59301966522E+02  0.50000041025E+02 0.  0.
        -12    1    1    2    0    0  0.25941859115E+02 -0.70094137713E+01  0.17164125237E+02  0.31886033478E+02  0.00000000000E+00 0.  1.
         11    1    3    3    0    0 -0.11290780884E+02 -0.15065536550E+02 -0.10818336368E+02  0.21713786555E+02  0.51100000000E-03 0. -1.
        -11    1    3    3    0    0 -0.15182359901E+02  0.12606814036E+02 -0.14970281958E+02  0.24769843650E+02  0.51100000000E-03 0.  1.
         12    1    3    3    0    0  0.53128167000E+00  0.94681362852E+01  0.86244930880E+01  0.12818336318E+02  0.00000000000E+00 0. -1.
</event>
<event>
 7    1  0.1290195E-011  0.5930209E+02  0.7816164E-02  0.1266604E+00
        -11   -1    0    0    0    0  0.00000000000E+00  0.00000000000E+00  0.45593999997E+02  0.45594000000E+02  0.51100000000E-03 0.  1.
         11   -1    0    0    0    0 -0.00000000000E+00 -0.00000000000E+00 -0.45593999997E+02  0.45594000000E+02  0.51100000000E-03 0. -1.
    9900012    2    1    2    0    0  0.67734880038E+00 -0.77908999758E+01 -0.30912041299E+02  0.59302090556E+02  0.50000267231E+02 0.  0.
        -12    1    1    2    0    0 -0.67734880038E+00  0.77908999758E+01  0.30912041299E+02  0.31885909444E+02  0.00000000000E+00 0.  1.
         11    1    3    3    0    0  0.10840751672E+01 -0.79683476714E+01 -0.20271170163E+02  0.21808028880E+02  0.51100000000E-03 0. -1.
        -11    1    3    3    0    0 -0.72921520042E+01 -0.49460005398E+01 -0.21743496670E+02  0.23460989960E+02  0.51100000000E-03 0.  1.
        -12    1    3    3    0    0  0.68854256373E+01  0.51234482354E+01  0.11102625534E+02  0.14033071716E+02  0.00000000000E+00 0.  1.
</event>
<event>
 7    1  0.1373735E-011  0.5930194E+02  0.7816164E-02  0.1266605E+00
        -11   -1    0    0    0    0  0.00000000000E+00  0.00000000000E+00  0.45593999997E+02  0.45594000000E+02  0.51100000000E-03 0. -1.
         11   -1    0    0    0    0 -0.00000000000E+00 -0.00000000000E+00 -0.45593999997E+02  0.45594000000E+02  0.51100000000E-03 0.  1.
    9900012    2    1    2    0    0  0.98951815139E+01 -0.14948332165E+02  0.26369554543E+02  0.59301942569E+02  0.49999997340E+02 0.  0.
        -12    1    1    2    0    0 -0.98951815139E+01  0.14948332165E+02 -0.26369554543E+02  0.31886057431E+02  0.00000000000E+00 0.  1.
         11    1    3    3    0    0  0.11890561755E+02 -0.13727771978E+01  0.14728296972E+02  0.18978743584E+02  0.51100000000E-03 0. -1.
        -11    1    3    3    0    0  0.87323063116E+01  0.15834899541E+01 -0.89434086773E+01  0.12599411613E+02  0.51100000000E-03 0.  1.
         12    1    3    3    0    0 -0.10727686553E+02 -0.15159044921E+02  0.20584666248E+02  0.27723787372E+02  0.00000000000E+00 0. -1.
</event>
<event>
 7    1  0.1290195E-011  0.5930195E+02  0.7816164E-02  0.1266605E+00
        -11   -1    0    0    0    0  0.00000000000E+00  0.00000000000E+00  0.45593999997E+02  0.45594000000E+02  0.51100000000E-03 0. -1.
         11   -1    0    0    0    0 -0.00000000000E+00 -0.00000000000E+00 -0.45593999997E+02  0.45594000000E+02  0.51100000000E-03 0.  1.
    9900012    2    1    2    0    0 -0.19394538097E+02 -0.25185348240E+02  0.25040920686E+01  0.59301947390E+02  0.50000006132E+02 0.  0.
        -12    1    1    2    0    0  0.19394538097E+02  0.25185348240E+02 -0.25040920686E+01  0.31886052610E+02  0.00000000000E+00 0.  1.
         11    1    3    3    0    0  0.10098831038E+02 -0.46794699702E+01  0.99361410213E+01  0.14920144979E+02  0.51100000000E-03 0. -1.
        -11    1    3    3    0    0 -0.12294837275E+02  0.26752288049E+01  0.41953074078E+01  0.13263501697E+02  0.51100000000E-03 0.  1.
        -12    1    3    3    0    0 -0.17198531860E+02 -0.23181107075E+02 -0.11627356360E+02  0.31118300714E+02  0.00000000000E+00 0.  1.
</event>
<event>
 7    1  0.1290195E-011  0.5930200E+02  0.7816164E-02  0.1266605E+00
        -11   -1    0    0    0    0  0.00000000000E+00  0.00000000000E+00  0.45593999997E+02  0.45594000000E+02  0.51100000000E-03 0. -1.
         11   -1    0    0    0    0 -0.00000000000E+00 -0.00000000000E+00 -0.45593999997E+02  0.45594000000E+02  0.51100000000E-03 0.  1.
    9900012    2    1    2    0    0  0.24681394204E+01  0.62507833221E+00  0.31784182669E+02  0.59302004594E+02  0.50000110458E+02 0.  0.
        -12    1    1    2    0    0 -0.24681394204E+01 -0.62507833221E+00 -0.31784182669E+02  0.31885995406E+02  0.00000000000E+00 0.  1.
         11    1    3    3    0    0  0.28021952612E+01  0.83902287920E+01  0.85298421073E+01  0.12288467931E+02  0.51100000000E-03 0.  1.
        -11    1    3    3    0    0 -0.84780516718E+01  0.81148117790E+01  0.26400882158E+02  0.28891765424E+02  0.51100000000E-03 0. -1.
        -12    1    3    3    0    0  0.81439958310E+01 -0.15879962239E+02 -0.31465415962E+01  0.18121771238E+02  0.00000000000E+00 0.  1.
</event>
<event>
 7    1  0.1290195E-011  0.5930194E+02  0.7816164E-02  0.1266605E+00
        -11   -1    0    0    0    0  0.00000000000E+00  0.00000000000E+00  0.45593999997E+02  0.45594000000E+02  0.51100000000E-03 0.  1.
         11   -1    0    0    0    0 -0.00000000000E+00 -0.00000000000E+00 -0.45593999997E+02  0.45594000000E+02  0.51100000000E-03 0. -1.
    9900012    2    1    2    0    0 -0.77119813199E+01 -0.86653983547E+01 -0.29701131471E+02  0.59301937289E+02  0.49999987710E+02 0.  0.
        -12    1    1    2    0    0  0.77119813199E+01  0.86653983547E+01  0.29701131471E+02  0.31886062711E+02  0.00000000000E+00 0.  1.
         11    1    3    3    0    0 -0.16806522952E+01 -0.77508743778E+01  0.46087483266E+01  0.91728516372E+01  0.51100000000E-03 0. -1.
        -11    1    3    3    0    0 -0.56991713206E+01 -0.68572577028E+00  0.68670051881E+01  0.89502253652E+01  0.51100000000E-03 0.  1.
         12    1    3    3    0    0 -0.33215770413E+00 -0.22879820662E+00 -0.41176884986E+02  0.41178860287E+02  0.00000000000E+00 0. -1.
</event>
<event>
 7    1  0.1290195E-011  0.5930184E+02  0.7816164E-02  0.1266605E+00
        -11   -1    0    0    0    0  0.00000000000E+00  0.00000000000E+00  0.45593999997E+02  0.45594000000E+02  0.51100000000E-03 0.  1.
         11   -1    0    0    0    0 -0.00000000000E+00 -0.00000000000E+00 -0.45593999997E+02  0.45594000000E+02  0.51100000000E-03 0. -1.
    9900012    2    1    2    0    0 -0.20139437664E+02  0.70913339816E+01 -0.23682133597E+02  0.59301836562E+02  0.49999804009E+02 0.  0.
        -12    1    1    2    0    0  0.20139437664E+02 -0.70913339816E+01  0.23682133597E+02  0.31886163438E+02  0.00000000000E+00 0.  1.
         11    1    3    3    0    0  0.77293174030E+01  0.63222277357E+01 -0.16642698973E+02  0.19408563585E+02  0.51100000000E-03 0. -1.
        -11    1    3    3    0    0 -0.41931054639E+00 -0.63629153582E+01  0.59297647621E+01  0.87077335504E+01  0.51100000000E-03 0.  1.
        -12    1    3    3    0    0 -0.27449444520E+02  0.71320216042E+01 -0.12969199386E+02  0.31185539427E+02  0.00000000000E+00 0.  1.
</event>
<event>
 7    1  0.1290195E-011  0.5930195E+02  0.7816164E-02  0.1266605E+00
        -11   -1    0    0    0    0  0.00000000000E+00  0.00000000000E+00  0.45593999997E+02  0.45594000000E+02  0.51100000000E-03 0. -1.
         11   -1    0    0    0    0 -0.00000000000E+00 -0.00000000000E+00 -0.45593999997E+02  0.45594000000E+02  0.51100000000E-03 0.  1.
    9900012    2    1    2    0    0 -0.25061184364E+02 -0.18225195673E+02  0.75166166542E+01  0.59301949053E+02  0.50000009165E+02 0.  0.
        -12    1    1    2    0    0  0.25061184364E+02  0.18225195673E+02 -0.75166166542E+01  0.31886050947E+02  0.00000000000E+00 0.  1.
         11    1    3    3    0    0 -0.77995287307E+01 -0.19167891148E+01  0.38232500503E+00  0.80407028053E+01  0.51100000000E-03 0. -1.
        -11    1    3    3    0    0 -0.27904541874E+02  0.22481271077E+01  0.98942438840E+01  0.29691978630E+02  0.51100000000E-03 0.  1.
         12    1    3    3    0    0  0.10642886240E+02 -0.18556533666E+02 -0.27599522349E+01  0.21569267617E+02  0.00000000000E+00 0. -1.
</event>
<event>
 7    1  0.1290195E-011  0.5930194E+02  0.7816164E-02  0.1266605E+00
        -11   -1    0    0    0    0  0.00000000000E+00  0.00000000000E+00  0.45593999997E+02  0.45594000000E+02  0.51100000000E-03 0. -1.
         11   -1    0    0    0    0 -0.00000000000E+00 -0.00000000000E+00 -0.45593999997E+02  0.45594000000E+02  0.51100000000E-03 0.  1.
    9900012    2    1    2    0    0 -0.13956750613E+02 -0.28367703638E+02  0.41477079910E+01  0.59301937544E+02  0.49999988176E+02 0.  0.
        -12    1    1    2    0    0  0.13956750613E+02  0.28367703638E+02 -0.41477079910E+01  0.31886062456E+02  0.00000000000E+00 0.  1.
         11    1    3    3    0    0 -0.19504922238E+02 -0.93931363423E+01 -0.11284468829E+02  0.24413361892E+02  0.51100000000E-03 0.  1.
        -11    1    3    3    0    0  0.85868236144E+01 -0.37676216897E+01  0.16884044024E+02  0.19313193828E+02  0.51100000000E-03 0. -1.
        -12    1    3    3    0    0 -0.30386519893E+01 -0.15206945606E+02 -0.14518672040E+01  0.15575381823E+02  0.00000000000E+00 0.  1.
</event>
<event>
 7    1  0.1290195E-011  0.5930193E+02  0.7816164E-02  0.1266605E+00
        -11   -1    0    0    0    0  0.00000000000E+00  0.00000000000E+00  0.45593999997E+02  0.45594000000E+02  0.51100000000E-03 0. -1.
         11   -1    0    0    0    0 -0.00000000000E+00 -0.00000000000E+00 -0.45593999997E+02  0.45594000000E+02  0.51100000000E-03 0.  1.
    9900012    2    1    2    0    0  0.83115351636E+00  0.13420785473E+02  0.28912163278E+02  0.59301929620E+02  0.49999973724E+02 0.  0.
        -12    1    1    2    0    0 -0.83115351636E+00 -0.13420785473E+02 -0.28912163278E+02  0.31886070380E+02  0.00000000000E+00 0.  1.
         11    1    3    3    0    0  0.21668710468E+00 -0.39143462232E+01  0.86541962834E+01  0.95007459302E+01  0.51100000000E-03 0. -1.
        -11    1    3    3    0    0  0.16919632545E+02 -0.93250724519E-01  0.19644844179E+02  0.25926869542E+02  0.51100000000E-03 0.  1.
        -12    1    3    3    0    0 -0.16305166134E+02  0.17428382421E+02  0.61312281556E+00  0.23874314148E+02  0.00000000000E+00 0.  1.
</event>
<event>
 7    1  0.1290195E-011  0.5930195E+02  0.7816164E-02  0.1266605E+00
        -11   -1    0    0    0    0  0.00000000000E+00  0.00000000000E+00  0.45593999997E+02  0.45594000000E+02  0.51100000000E-03 0.  1.
         11   -1    0    0    0    0 -0.00000000000E+00 -0.00000000000E+00 -0.45593999997E+02  0.45594000000E+02  0.51100000000E-03 0. -1.
    9900012    2    1    2    0    0  0.24427463443E+01 -0.30732921222E+01 -0.31643450475E+02  0.59301951450E+02  0.50000013537E+02 0.  0.
        -12    1    1    2    0    0 -0.24427463443E+01  0.30732921222E+01  0.31643450475E+02  0.31886048550E+02  0.00000000000E+00 0.  1.
         11    1    3    3    0    0  0.16770119877E+02 -0.17850702366E+01 -0.28104520551E+02  0.32776324871E+02  0.51100000000E-03 0. -1.
        -11    1    3    3    0    0 -0.73491049441E+01  0.10043258342E+02 -0.43749898053E+01  0.13191547205E+02  0.51100000000E-03 0.  1.
        -12    1    3    3    0    0 -0.69782685883E+01 -0.11331480227E+02  0.83605988129E+00  0.13334079374E+02  0.00000000000E+00 0.  1.
</event>
<event>
 7    1  0.1290195E-011  0.5930190E+02  0.7816164E-02  0.1266605E+00
        -11   -1    0    0    0    0  0.00000000000E+00  0.00000000000E+00  0.45593999997E+02  0.45594000000E+02  0.51100000000E-03 0. -1.
         11   -1    0    0    0    0 -0.00000000000E+00 -0.00000000000E+00 -0.45593999997E+02  0.45594000000E+02  0.51100000000E-03 0.  1.
    9900012    2    1    2    0    0  0.13985560310E+01 -0.55744038304E+01  0.31363883920E+02  0.59301903475E+02  0.49999926042E+02 0.  0.
        -12    1    1    2    0    0 -0.13985560310E+01  0.55744038304E+01 -0.31363883920E+02  0.31886096525E+02  0.00000000000E+00 0.  1.
         11    1    3    3    0    0  0.15510565906E+02 -0.42606931171E+01 -0.51458791044E+01  0.16888198027E+02  0.51100000000E-03 0. -1.
        -11    1    3    3    0    0  0.42591185833E+00  0.16579610487E+01 -0.10643692099E+01  0.20157176950E+01  0.51100000000E-03 0.  1.
         12    1    3    3    0    0 -0.14537921734E+02 -0.29716717620E+01  0.37574132234E+02  0.40397987754E+02  0.00000000000E+00 0. -1.
</event>
<event>
 7    1  0.1290195E-011  0.5930196E+02  0.7816164E-02  0.1266605E+00
        -11   -1    0    0    0    0  0.00000000000E+00  0.00000000000E+00  0.45593999997E+02  0.45594000000E+02  0.51100000000E-03 0. -1.
         11   -1    0    0    0    0 -0.00000000000E+00 -0.00000000000E+00 -0.45593999997E+02  0.45594000000E+02  0.51100000000E-03 0.  1.
    9900012    2    1    2    0    0  0.20335230727E+02  0.40522991362E+01 -0.24223479008E+02  0.59301958034E+02  0.50000025545E+02 0.  0.
        -12    1    1    2    0    0 -0.20335230727E+02 -0.40522991362E+01  0.24223479008E+02  0.31886041966E+02  0.00000000000E+00 0.  1.
         11    1    3    3    0    0  0.30501844150E+01  0.15822830729E+01  0.15826416663E+01  0.37831203514E+01  0.51100000000E-03 0. -1.
        -11    1    3    3    0    0 -0.35089898114E+01  0.18730422492E+02 -0.66911130325E+00  0.19068021566E+02  0.51100000000E-03 0.  1.
        -12    1    3    3    0    0  0.20794036123E+02 -0.16260406429E+02 -0.25137009371E+02  0.36450816117E+02  0.00000000000E+00 0.  1.
</event>
<event>
 7    1  0.1290195E-011  0.5930197E+02  0.7816164E-02  0.1266605E+00
        -11   -1    0    0    0    0  0.00000000000E+00  0.00000000000E+00  0.45593999997E+02  0.45594000000E+02  0.51100000000E-03 0.  1.
         11   -1    0    0    0    0 -0.00000000000E+00 -0.00000000000E+00 -0.45593999997E+02  0.45594000000E+02  0.51100000000E-03 0. -1.
    9900012    2    1    2    0    0  0.14368582555E+02 -0.27877394168E+02 -0.57544240945E+01  0.59301973799E+02  0.50000054296E+02 0.  0.
        -12    1    1    2    0    0 -0.14368582555E+02  0.27877394168E+02  0.57544240945E+01  0.31886026201E+02  0.00000000000E+00 0.  1.
         11    1    3    3    0    0  0.19966161509E+02 -0.15993943397E+02 -0.14945675475E+02  0.29628146187E+02  0.51100000000E-03 0. -1.
        -11    1    3    3    0    0 -0.54238822144E+01 -0.65962893116E+00 -0.76704089335E+01  0.94174721699E+01  0.51100000000E-03 0.  1.
        -12    1    3    3    0    0 -0.17369673963E+00 -0.11223821840E+02  0.16861660314E+02  0.20256355442E+02  0.00000000000E+00 0.  1.
</event>
<event>
 7    1  0.1290195E-011  0.5930201E+02  0.7816164E-02  0.1266605E+00
        -11   -1    0    0    0    0  0.00000000000E+00  0.00000000000E+00  0.45593999997E+02  0.45594000000E+02  0.51100000000E-03 0. -1.
         11   -1    0    0    0    0 -0.00000000000E+00 -0.00000000000E+00 -0.45593999997E+02  0.45594000000E+02  0.51100000000E-03 0.  1.
    9900012    2    1    2    0    0 -0.16302873507E+02  0.80913086890E+01  0.26181350919E+02  0.59302014100E+02  0.50000127794E+02 0.  0.
        -12    1    1    2    0    0  0.16302873507E+02 -0.80913086890E+01 -0.26181350919E+02  0.31885985900E+02  0.00000000000E+00 0.  1.
         11    1    3    3    0    0 -0.10971470259E+02  0.18798196632E+02  0.13500342939E+02  0.25612587062E+02  0.51100000000E-03 0. -1.
        -11    1    3    3    0    0 -0.75338680845E+01 -0.77968654470E+01  0.21536362493E+02  0.24111515688E+02  0.51100000000E-03 0.  1.
        -12    1    3    3    0    0  0.22024648373E+01 -0.29100224957E+01 -0.88553545122E+01  0.95779113496E+01  0.00000000000E+00 0.  1.
</event>
<event>
 7    1  0.1290195E-011  0.5930199E+02  0.7816164E-02  0.1266605E+00
        -11   -1    0    0    0    0  0.00000000000E+00  0.00000000000E+00  0.45593999997E+02  0.45594000000E+02  0.51100000000E-03 0.  1.
         11   -1    0    0    0    0 -0.00000000000E+00 -0.00000000000E+00 -0.45593999997E+02  0.45594000000E+02  0.51100000000E-03 0. -1.
    9900012    2    1    2    0    0 -0.25285441579E+02  0.19124785097E+02 -0.34069000465E+01  0.59301985373E+02  0.50000075404E+02 0.  0.
        -12    1    1    2    0    0  0.25285441579E+02 -0.19124785097E+02  0.34069000465E+01  0.31886014627E+02  0.00000000000E+00 0.  1.
         11    1    3    3    0    0 -0.11660439441E+02  0.27261245707E+01  0.93365328064E+01  0.15184480506E+02  0.51100000000E-03 0. -1.
        -11    1    3    3    0    0 -0.17389371835E+02  0.43745220385E+00  0.67365844066E+01  0.18653771387E+02  0.51100000000E-03 0.  1.
        -12    1    3    3    0    0  0.37643696964E+01  0.15961208322E+02 -0.19480017260E+02  0.25463733480E+02  0.00000000000E+00 0.  1.
</event>
<event>
 7    1  0.1290195E-011  0.5930195E+02  0.7816164E-02  0.1266605E+00
        -11   -1    0    0    0    0  0.00000000000E+00  0.00000000000E+00  0.45593999997E+02  0.45594000000E+02  0.51100000000E-03 0. -1.
         11   -1    0    0    0    0 -0.00000000000E+00 -0.00000000000E+00 -0.45593999997E+02  0.45594000000E+02  0.51100000000E-03 0.  1.
    9900012    2    1    2    0    0 -0.31399509616E+02 -0.34772382772E+01  0.43243561670E+01  0.59301945895E+02  0.50000003405E+02 0.  0.
        -12    1    1    2    0    0  0.31399509616E+02  0.34772382772E+01 -0.43243561670E+01  0.31886054105E+02  0.00000000000E+00 0.  1.
         11    1    3    3    0    0 -0.33842540417E+01 -0.32942018920E+01  0.18613142096E+02  0.19202968533E+02  0.51100000000E-03 0.  1.
        -11    1    3    3    0    0 -0.10707712258E+02 -0.59989492160E+01  0.52566985453E+01  0.13351980129E+02  0.51100000000E-03 0. -1.
        -12    1    3    3    0    0 -0.17307543316E+02  0.58159128308E+01 -0.19545484474E+02  0.26746997234E+02  0.00000000000E+00 0.  1.
</event>
<event>
 7    1  0.1290195E-011  0.5930194E+02  0.7816164E-02  0.1266605E+00
        -11   -1    0    0    0    0  0.00000000000E+00  0.00000000000E+00  0.45593999997E+02  0.45594000000E+02  0.51100000000E-03 0.  1.
         11   -1    0    0    0    0 -0.00000000000E+00 -0.00000000000E+00 -0.45593999997E+02  0.45594000000E+02  0.51100000000E-03 0. -1.
    9900012    2    1    2    0    0 -0.21892340657E+02  0.89161068585E+01 -0.21399752748E+02  0.59301937863E+02  0.49999988757E+02 0.  0.
        -12    1    1    2    0    0  0.21892340657E+02 -0.89161068585E+01  0.21399752748E+02  0.31886062137E+02  0.00000000000E+00 0.  1.
         11    1    3    3    0    0  0.39206949802E+01  0.20320370637E+01  0.88927204808E+00  0.45046452460E+01  0.51100000000E-03 0. -1.
        -11    1    3    3    0    0  0.99397392437E+01 -0.57569068751E+01 -0.90764814466E+01  0.14639771471E+02  0.51100000000E-03 0.  1.
         12    1    3    3    0    0 -0.35752774881E+02  0.12640976670E+02 -0.13212543350E+02  0.40157521146E+02  0.00000000000E+00 0. -1.
</event>
<event>
 7    1  0.1290195E-011  0.5930192E+02  0.7816164E-02  0.1266605E+00
        -11   -1    0    0    0    0  0.00000000000E+00  0.00000000000E+00  0.45593999997E+02  0.45594000000E+02  0.51100000000E-03 0. -1.
         11   -1    0    0    0    0 -0.00000000000E+00 -0.00000000000E+00 -0.45593999997E+02  0.45594000000E+02  0.51100000000E-03 0.  1.
    9900012    2    1    2    0    0 -0.81972757058E+01 -0.90412562489E+01  0.29458149659E+02  0.59301918007E+02  0.49999952544E+02 0.  0.
        -12    1    1    2    0    0  0.81972757058E+01  0.90412562489E+01 -0.29458149659E+02  0.31886081993E+02  0.00000000000E+00 0.  1.
         11    1    3    3    0    0  0.82684504443E+00  0.57548287936E+01 -0.34490923730E+01  0.67600270436E+01  0.51100000000E-03 0.  1.
        -11    1    3    3    0    0 -0.89341002435E+01 -0.23811927194E+02  0.89788940098E+01  0.26971217283E+02  0.51100000000E-03 0. -1.
         12    1    3    3    0    0 -0.90020506748E-01  0.90158421512E+01  0.23928348022E+02  0.25570673680E+02  0.00000000000E+00 0. -1.
</event>
<event>
 7    1  0.1290195E-011  0.5930182E+02  0.7816164E-02  0.1266605E+00
        -11   -1    0    0    0    0  0.00000000000E+00  0.00000000000E+00  0.45593999997E+02  0.45594000000E+02  0.51100000000E-03 0.  1.
         11   -1    0    0    0    0 -0.00000000000E+00 -0.00000000000E+00 -0.45593999997E+02  0.45594000000E+02  0.51100000000E-03 0. -1.
    9900012    2    1    2    0    0  0.22594021415E+02 -0.69185175948E+01 -0.21409647035E+02  0.59301816855E+02  0.49999768067E+02 0.  0.
        -12    1    1    2    0    0 -0.22594021415E+02  0.69185175948E+01  0.21409647035E+02  0.31886183145E+02  0.00000000000E+00 0.  1.
         11    1    3    3    0    0  0.37222926170E+01  0.10127292200E+02 -0.26935842302E+00  0.10793056280E+02  0.51100000000E-03 0. -1.
        -11    1    3    3    0    0  0.15367827946E+02  0.85341894375E+01 -0.11195481842E+02  0.20840857445E+02  0.51100000000E-03 0.  1.
         12    1    3    3    0    0  0.35039008518E+01 -0.25579999233E+02 -0.99448067699E+01  0.27667903130E+02  0.00000000000E+00 0. -1.
</event>
<event>
 7    1  0.1290195E-011  0.5930201E+02  0.7816164E-02  0.1266605E+00
        -11   -1    0    0    0    0  0.00000000000E+00  0.00000000000E+00  0.45593999997E+02  0.45594000000E+02  0.51100000000E-03 0. -1.
         11   -1    0    0    0    0 -0.00000000000E+00 -0.00000000000E+00 -0.45593999997E+02  0.45594000000E+02  0.51100000000E-03 0.  1.
    9900012    2    1    2    0    0  0.31722478290E+02  0.22195187284E+01 -0.23397869435E+01  0.59302007853E+02  0.50000116402E+02 0.  0.
        -12    1    1    2    0    0 -0.31722478290E+02 -0.22195187284E+01  0.23397869435E+01  0.31885992147E+02  0.00000000000E+00 0.  1.
         11    1    3    3    0    0  0.25956912162E+02 -0.25783224546E+00 -0.10957421945E+02  0.28176104457E+02  0.51100000000E-03 0. -1.
        -11    1    3    3    0    0 -0.47589287066E+01 -0.89017163308E+01 -0.42778474560E+01  0.10963025823E+02  0.51100000000E-03 0.  1.
         12    1    3    3    0    0  0.10524494835E+02  0.11379067305E+02  0.12895482457E+02  0.20162877574E+02  0.00000000000E+00 0. -1.
</event>
<event>
 7    1  0.1290195E-011  0.5930201E+02  0.7816164E-02  0.1266605E+00
        -11   -1    0    0    0    0  0.00000000000E+00  0.00000000000E+00  0.45593999997E+02  0.45594000000E+02  0.51100000000E-03 0. -1.
         11   -1    0    0    0    0 -0.00000000000E+00 -0.00000000000E+00 -0.45593999997E+02  0.45594000000E+02  0.51100000000E-03 0.  1.
    9900012    2    1    2    0    0  0.45772636720E+01 -0.20912946579E+02  0.23630779961E+02  0.59302008735E+02  0.50000118011E+02 0.  0.
        -12    1    1    2    0    0 -0.45772636720E+01  0.20912946579E+02 -0.23630779961E+02  0.31885991265E+02  0.00000000000E+00 0.  1.
         11    1    3    3    0    0  0.79921982449E+00 -0.21377163045E+02  0.83579435264E+01  0.22966869017E+02  0.51100000000E-03 0. -1.
        -11    1    3    3    0    0 -0.13663225442E+02 -0.41056120014E+01  0.10409863713E+02  0.17660833564E+02  0.51100000000E-03 0.  1.
         12    1    3    3    0    0  0.17441269290E+02  0.45698284676E+01  0.48629727225E+01  0.18674306155E+02  0.00000000000E+00 0. -1.
</event>
<event>
 7    1  0.1290195E-011  0.5930192E+02  0.7816164E-02  0.1266605E+00
        -11   -1    0    0    0    0  0.00000000000E+00  0.00000000000E+00  0.45593999997E+02  0.45594000000E+02  0.51100000000E-03 0. -1.
         11   -1    0    0    0    0 -0.00000000000E+00 -0.00000000000E+00 -0.45593999997E+02  0.45594000000E+02  0.51100000000E-03 0.  1.
    9900012    2    1    2    0    0  0.18806411918E+02 -0.13334843072E+02 -0.22027777776E+02  0.59301918981E+02  0.49999954321E+02 0.  0.
        -12    1    1    2    0    0 -0.18806411918E+02  0.13334843072E+02  0.22027777776E+02  0.31886081019E+02  0.00000000000E+00 0.  1.
         11    1    3    3    0    0  0.26595536849E+01 -0.49426822561E+01  0.31103581288E+01  0.64169822844E+01  0.51100000000E-03 0. -1.
        -11    1    3    3    0    0 -0.43618052506E+01 -0.21532231309E+02 -0.94704461176E+01  0.23923872599E+02  0.51100000000E-03 0.  1.
         12    1    3    3    0    0  0.20508663484E+02  0.13140070493E+02 -0.15667689787E+02  0.28961064098E+02  0.00000000000E+00 0. -1.
</event>
<event>
 7    1  0.1290195E-011  0.5930193E+02  0.7816164E-02  0.1266605E+00
        -11   -1    0    0    0    0  0.00000000000E+00  0.00000000000E+00  0.45593999997E+02  0.45594000000E+02  0.51100000000E-03 0. -1.
         11   -1    0    0    0    0 -0.00000000000E+00 -0.00000000000E+00 -0.45593999997E+02  0.45594000000E+02  0.51100000000E-03 0.  1.
    9900012    2    1    2    0    0  0.82374365870E+01 -0.29459473194E+02  0.90002989129E+01  0.59301932464E+02  0.49999978911E+02 0.  0.
        -12    1    1    2    0    0 -0.82374365870E+01  0.29459473194E+02 -0.90002989129E+01  0.31886067536E+02  0.00000000000E+00 0.  1.
         11    1    3    3    0    0  0.11156927335E+02 -0.27544267482E+02 -0.18773340285E+01  0.29777308173E+02  0.51100000000E-03 0. -1.
        -11    1    3    3    0    0 -0.11044711143E+02 -0.95255074517E+01  0.96244214040E+00  0.14616676489E+02  0.51100000000E-03 0.  1.
        -12    1    3    3    0    0  0.81252203955E+01  0.76103017403E+01  0.99151908010E+01  0.14907947802E+02  0.00000000000E+00 0.  1.
</event>
<event>
 7    1  0.1290195E-011  0.5930205E+02  0.7816164E-02  0.1266604E+00
        -11   -1    0    0    0    0  0.00000000000E+00  0.00000000000E+00  0.45593999997E+02  0.45594000000E+02  0.51100000000E-03 0. -1.
         11   -1    0    0    0    0 -0.00000000000E+00 -0.00000000000E+00 -0.45593999997E+02  0.45594000000E+02  0.51100000000E-03 0.  1.
    9900012    2    1    2    0    0  0.13859530774E+02 -0.75695160813E+00  0.28706344760E+02  0.59302050140E+02  0.50000193523E+02 0.  0.
        -12    1    1    2    0    0 -0.13859530774E+02  0.75695160813E+00 -0.28706344760E+02  0.31885949860E+02  0.00000000000E+00 0.  1.
         11    1    3    3    0    0  0.12758366897E+01 -0.10189296045E+02 -0.41378283361E+01  0.11071184975E+02  0.51100000000E-03 0.  1.
        -11    1    3    3    0    0  0.15056161050E+01 -0.39821156299E+01  0.30359895446E+02  0.30656930317E+02  0.51100000000E-03 0. -1.
        -12    1    3    3    0    0  0.11078077980E+02  0.13414460066E+02  0.24842776498E+01  0.17573934848E+02  0.00000000000E+00 0.  1.
</event>
<event>
 7    1  0.1290195E-011  0.5930215E+02  0.7816164E-02  0.1266604E+00
        -11   -1    0    0    0    0  0.00000000000E+00  0.00000000000E+00  0.45593999997E+02  0.45594000000E+02  0.51100000000E-03 0.  1.
         11   -1    0    0    0    0 -0.00000000000E+00 -0.00000000000E+00 -0.45593999997E+02  0.45594000000E+02  0.51100000000E-03 0. -1.
    9900012    2    1    2    0    0  0.37416700667E+01 -0.14303824389E+02 -0.28250802949E+02  0.59302151191E+02  0.50000377815E+02 0.  0.
        -12    1    1    2    0    0 -0.37416700667E+01  0.14303824389E+02  0.28250802949E+02  0.31885848809E+02  0.00000000000E+00 0.  1.
         11    1    3    3    0    0  0.20241668391E+02  0.34521317137E+01 -0.13255722051E+02  0.24440878053E+02  0.51100000000E-03 0. -1.
        -11    1    3    3    0    0  0.12994726394E+01 -0.71033184677E+01  0.25851770397E+01  0.76700001944E+01  0.51100000000E-03 0.  1.
        -12    1    3    3    0    0 -0.17799470964E+02 -0.10652637635E+02 -0.17580257937E+02  0.27191272944E+02  0.00000000000E+00 0.  1.
</event>
<event>
 7    1  0.1290195E-011  0.5930196E+02  0.7816164E-02  0.1266605E+00
        -11   -1    0    0    0    0  0.00000000000E+00  0.00000000000E+00  0.45593999997E+02  0.45594000000E+02  0.51100000000E-03 0. -1.
         11   -1    0    0    0    0 -0.00000000000E+00 -0.00000000000E+00 -0.45593999997E+02  0.45594000000E+02  0.51100000000E-03 0.  1.
    9900012    2    1    2    0    0  0.27175973171E+02  0.14555482545E+02 -0.81439639060E+01  0.59301957003E+02  0.50000023664E+02 0.  0.
        -12    1    1    2    0    0 -0.27175973171E+02 -0.14555482545E+02  0.81439639060E+01  0.31886042997E+02  0.00000000000E+00 0.  1.
         11    1    3    3    0    0 -0.21219923272E+01 -0.72519226283E+00 -0.24984420949E+01  0.33572262982E+01  0.51100000000E-03 0. -1.
        -11    1    3    3    0    0  0.11406190291E+01  0.71478533010E+01 -0.21455847248E+02  0.22643899841E+02  0.51100000000E-03 0.  1.
         12    1    3    3    0    0  0.28157346469E+02  0.81328215068E+01  0.15810325437E+02  0.33300830864E+02  0.00000000000E+00 0. -1.
</event>
<event>
 7    1  0.1290195E-011  0.5930195E+02  0.7816164E-02  0.1266605E+00
        -11   -1    0    0    0    0  0.00000000000E+00  0.00000000000E+00  0.45593999997E+02  0.45594000000E+02  0.51100000000E-03 0. -1.
         11   -1    0    0    0    0 -0.00000000000E+00 -0.00000000000E+00 -0.45593999997E+02  0.45594000000E+02  0.51100000000E-03 0.  1.
    9900012    2    1    2    0    0  0.19186982332E+02 -0.13131751536E+02  0.21820564023E+02  0.59301949700E+02  0.50000010345E+02 0.  0.
        -12    1    1    2    0    0 -0.19186982332E+02  0.13131751536E+02 -0.21820564023E+02  0.31886050300E+02  0.00000000000E+00 0.  1.
         11    1    3    3    0    0  0.57826391353E+00 -0.22818673687E+01  0.11432130908E+02  0.11671971779E+02  0.51100000000E-03 0. -1.
        -11    1    3    3    0    0  0.11201485667E+01  0.13676013946E+02  0.10866827543E+02  0.17503600526E+02  0.51100000000E-03 0.  1.
        -12    1    3    3    0    0  0.17488569852E+02 -0.24525898114E+02 -0.47839442795E+00  0.30126377395E+02  0.00000000000E+00 0.  1.
</event>
<event>
 7    1  0.1290195E-011  0.5930196E+02  0.7816164E-02  0.1266605E+00
        -11   -1    0    0    0    0  0.00000000000E+00  0.00000000000E+00  0.45593999997E+02  0.45594000000E+02  0.51100000000E-03 0. -1.
         11   -1    0    0    0    0 -0.00000000000E+00 -0.00000000000E+00 -0.45593999997E+02  0.45594000000E+02  0.51100000000E-03 0.  1.
    9900012    2    1    2    0    0  0.26126064947E+02  0.18068158264E+02  0.27730778075E+01  0.59301959587E+02  0.50000028376E+02 0.  0.
        -12    1    1    2    0    0 -0.26126064947E+02 -0.18068158264E+02 -0.27730778075E+01  0.31886040413E+02  0.00000000000E+00 0.  1.
         11    1    3    3    0    0 -0.77366861244E+00  0.10243774348E+02 -0.18381706878E+01  0.10436107883E+02  0.51100000000E-03 0. -1.
        -11    1    3    3    0    0  0.16929849054E+02 -0.55443443681E+01 -0.14881603677E+02  0.23212532643E+02  0.51100000000E-03 0.  1.
         12    1    3    3    0    0  0.99698845056E+01  0.13368728285E+02  0.19492852172E+02  0.25653319060E+02  0.00000000000E+00 0. -1.
</event>
<event>
 7    1  0.1290195E-011  0.5930193E+02  0.7816164E-02  0.1266605E+00
        -11   -1    0    0    0    0  0.00000000000E+00  0.00000000000E+00  0.45593999997E+02  0.45594000000E+02  0.51100000000E-03 0. -1.
         11   -1    0    0    0    0 -0.00000000000E+00 -0.00000000000E+00 -0.45593999997E+02  0.45594000000E+02  0.51100000000E-03 0.  1.
    9900012    2    1    2    0    0  0.76987076767E+01  0.24965268288E+02  0.18280773066E+02  0.59301931185E+02  0.49999976578E+02 0.  0.
        -12    1    1    2    0    0 -0.76987076767E+01 -0.24965268288E+02 -0.18280773066E+02  0.31886068815E+02  0.00000000000E+00 0.  1.
         11    1    3    3    0    0  0.15471099236E+02  0.99936243255E+01  0.16184469227E+02  0.24518655819E+02  0.51100000000E-03 0. -1.
        -11    1    3    3    0    0  0.44778999754E+01  0.49052769305E+01  0.13639627557E+02  0.15170786734E+02  0.51100000000E-03 0.  1.
        -12    1    3    3    0    0 -0.12250291535E+02  0.10066367032E+02 -0.11543323718E+02  0.19612488633E+02  0.00000000000E+00 0.  1.
</event>
<event>
 7    1  0.1290195E-011  0.5930186E+02  0.7816164E-02  0.1266605E+00
        -11   -1    0    0    0    0  0.00000000000E+00  0.00000000000E+00  0.45593999997E+02  0.45594000000E+02  0.51100000000E-03 0. -1.
         11   -1    0    0    0    0 -0.00000000000E+00 -0.00000000000E+00 -0.45593999997E+02  0.45594000000E+02  0.51100000000E-03 0.  1.
    9900012    2    1    2    0    0 -0.18953342375E+02 -0.61081999374E+01  0.24903542294E+02  0.59301863318E+02  0.49999852805E+02 0.  0.
        -12    1    1    2    0    0  0.18953342375E+02  0.61081999374E+01 -0.24903542294E+02  0.31886136682E+02  0.00000000000E+00 0.  1.
         11    1    3    3    0    0 -0.24193823080E+01 -0.39535409393E+01  0.20612189573E+02  0.21126908339E+02  0.51100000000E-03 0. -1.
        -11    1    3    3    0    0 -0.14598337920E+01 -0.16347008806E+02 -0.20067534035E+01  0.16534293788E+02  0.51100000000E-03 0.  1.
         12    1    3    3    0    0 -0.15074126275E+02  0.14192349807E+02  0.62981061242E+01  0.21640661191E+02  0.00000000000E+00 0. -1.
</event>
<event>
 7    1  0.1290195E-011  0.5930196E+02  0.7816164E-02  0.1266605E+00
        -11   -1    0    0    0    0  0.00000000000E+00  0.00000000000E+00  0.45593999997E+02  0.45594000000E+02  0.51100000000E-03 0. -1.
         11   -1    0    0    0    0 -0.00000000000E+00 -0.00000000000E+00 -0.45593999997E+02  0.45594000000E+02  0.51100000000E-03 0.  1.
    9900012    2    1    2    0    0  0.20947022817E+01 -0.19126413025E+02  0.25426603884E+02  0.59301958572E+02  0.50000026526E+02 0.  0.
        -12    1    1    2    0    0 -0.20947022817E+01  0.19126413025E+02 -0.25426603884E+02  0.31886041428E+02  0.00000000000E+00 0.  1.
         11    1    3    3    0    0  0.76068580462E+01  0.13545463279E+01  0.13956848645E+02  0.15952827632E+02  0.51100000000E-03 0. -1.
        -11    1    3    3    0    0  0.44614659710E+01  0.78923929014E+01  0.96172559020E+01  0.13216889031E+02  0.51100000000E-03 0.  1.
         12    1    3    3    0    0 -0.99736217354E+01 -0.28373352254E+02  0.18524993364E+01  0.30132241909E+02  0.00000000000E+00 0. -1.
</event>
<event>
 7    1  0.1290195E-011  0.5930196E+02  0.7816164E-02  0.1266605E+00
        -11   -1    0    0    0    0  0.00000000000E+00  0.00000000000E+00  0.45593999997E+02  0.45594000000E+02  0.51100000000E-03 0.  1.
         11   -1    0    0    0    0 -0.00000000000E+00 -0.00000000000E+00 -0.45593999997E+02  0.45594000000E+02  0.51100000000E-03 0. -1.
    9900012    2    1    2    0    0 -0.29200070934E+02  0.10238739950E+02  0.76969717204E+01  0.59301963684E+02  0.50000035848E+02 0.  0.
        -12    1    1    2    0    0  0.29200070934E+02 -0.10238739950E+02 -0.76969717204E+01  0.31886036316E+02  0.00000000000E+00 0.  1.
         11    1    3    3    0    0 -0.15036651713E+02  0.43107937803E+01 -0.10243355653E+02  0.18697865467E+02  0.51100000000E-03 0. -1.
        -11    1    3    3    0    0 -0.14103374738E+02  0.84797384401E+01 -0.52501732913E+01  0.17273548068E+02  0.51100000000E-03 0.  1.
         12    1    3    3    0    0 -0.60044483008E-01 -0.25517922708E+01  0.23190500664E+02  0.23330550148E+02  0.00000000000E+00 0. -1.
</event>
<event>
 7    1  0.1290195E-011  0.5930192E+02  0.7816164E-02  0.1266605E+00
        -11   -1    0    0    0    0  0.00000000000E+00  0.00000000000E+00  0.45593999997E+02  0.45594000000E+02  0.51100000000E-03 0.  1.
         11   -1    0    0    0    0 -0.00000000000E+00 -0.00000000000E+00 -0.45593999997E+02  0.45594000000E+02  0.51100000000E-03 0. -1.
    9900012    2    1    2    0    0  0.27895865694E+02 -0.15166033175E+02 -0.29213202880E+01  0.59301921575E+02  0.49999959052E+02 0.  0.
        -12    1    1    2    0    0 -0.27895865694E+02  0.15166033175E+02  0.29213202880E+01  0.31886078425E+02  0.00000000000E+00 0.  1.
         11    1    3    3    0    0  0.43462001741E+01  0.88665050211E+01 -0.46292912316E+01  0.10905718904E+02  0.51100000000E-03 0. -1.
        -11    1    3    3    0    0  0.11511333349E+02  0.64413261044E+01 -0.63716781825E+01  0.14649223890E+02  0.51100000000E-03 0.  1.
        -12    1    3    3    0    0  0.12038332171E+02 -0.30473864301E+02  0.80796491261E+01  0.33746978781E+02  0.00000000000E+00 0.  1.
</event>
<event>
 7    1  0.1290195E-011  0.5930185E+02  0.7816164E-02  0.1266605E+00
        -11   -1    0    0    0    0  0.00000000000E+00  0.00000000000E+00  0.45593999997E+02  0.45594000000E+02  0.51100000000E-03 0.  1.
         11   -1    0    0    0    0 -0.00000000000E+00 -0.00000000000E+00 -0.45593999997E+02  0.45594000000E+02  0.51100000000E-03 0. -1.
    9900012    2    1    2    0    0  0.26797435708E+02 -0.15369929179E+02 -0.78987014506E+01  0.59301846765E+02  0.49999822617E+02 0.  0.
        -12    1    1    2    0    0 -0.26797435708E+02  0.15369929179E+02  0.78987014506E+01  0.31886153235E+02  0.00000000000E+00 0.  1.
         11    1    3    3    0    0 -0.32607595680E+01 -0.81705910115E+01 -0.15270299024E+02  0.17623085512E+02  0.51100000000E-03 0. -1.
        -11    1    3    3    0    0  0.25783160524E+02  0.40440666796E+01 -0.23621168822E+01  0.26205065127E+02  0.51100000000E-03 0.  1.
        -12    1    3    3    0    0  0.42750347522E+01 -0.11243404847E+02  0.97337144555E+01  0.15473696126E+02  0.00000000000E+00 0.  1.
</event>
<event>
 7    1  0.1290195E-011  0.5930191E+02  0.7816164E-02  0.1266605E+00
        -11   -1    0    0    0    0  0.00000000000E+00  0.00000000000E+00  0.45593999997E+02  0.45594000000E+02  0.51100000000E-03 0. -1.
         11   -1    0    0    0    0 -0.00000000000E+00 -0.00000000000E+00 -0.45593999997E+02  0.45594000000E+02  0.51100000000E-03 0.  1.
    9900012    2    1    2    0    0 -0.15968473152E+02 -0.27383695757E+02 -0.34443605742E+01  0.59301912942E+02  0.49999943307E+02 0.  0.
        -12    1    1    2    0    0  0.15968473152E+02  0.27383695757E+02  0.34443605742E+01  0.31886087058E+02  0.00000000000E+00 0.  1.
         11    1    3    3    0    0 -0.15918855637E+01 -0.11145597313E+02  0.88601848518E+01  0.14326943672E+02  0.51100000000E-03 0. -1.
        -11    1    3    3    0    0  0.10856689478E+02 -0.30754309157E-01  0.30580366051E+01  0.11279195024E+02  0.51100000000E-03 0.  1.
        -12    1    3    3    0    0 -0.25233277066E+02 -0.16207344135E+02 -0.15362582031E+02  0.33695774246E+02  0.00000000000E+00 0.  1.
</event>
<event>
 7    1  0.1290195E-011  0.5930189E+02  0.7816164E-02  0.1266605E+00
        -11   -1    0    0    0    0  0.00000000000E+00  0.00000000000E+00  0.45593999997E+02  0.45594000000E+02  0.51100000000E-03 0.  1.
         11   -1    0    0    0    0 -0.00000000000E+00 -0.00000000000E+00 -0.45593999997E+02  0.45594000000E+02  0.51100000000E-03 0. -1.
    9900012    2    1    2    0    0 -0.31582813759E+02 -0.22360926635E+01 -0.37749070219E+01  0.59301887688E+02  0.49999897249E+02 0.  0.
        -12    1    1    2    0    0  0.31582813759E+02  0.22360926635E+01  0.37749070219E+01  0.31886112312E+02  0.00000000000E+00 0.  1.
         11    1    3    3    0    0 -0.80717307873E+01  0.19859474558E+01 -0.82742449697E+01  0.11728595623E+02  0.51100000000E-03 0. -1.
        -11    1    3    3    0    0  0.97787438199E+01 -0.50778156331E+01  0.86588481424E+01  0.14013696647E+02  0.51100000000E-03 0.  1.
         12    1    3    3    0    0 -0.33289826792E+02  0.85577551376E+00 -0.41595101946E+01  0.33559595418E+02  0.00000000000E+00 0. -1.
</event>
<event>
 7    1  0.1290195E-011  0.5930192E+02  0.7816164E-02  0.1266605E+00
        -11   -1    0    0    0    0  0.00000000000E+00  0.00000000000E+00  0.45593999997E+02  0.45594000000E+02  0.51100000000E-03 0.  1.
         11   -1    0    0    0    0 -0.00000000000E+00 -0.00000000000E+00 -0.45593999997E+02  0.45594000000E+02  0.51100000000E-03 0. -1.
    9900012    2    1    2    0    0  0.71573827607E+01 -0.30885326602E+02  0.34044499189E+01  0.59301924567E+02  0.49999964508E+02 0.  0.
        -12    1    1    2    0    0 -0.71573827607E+01  0.30885326602E+02 -0.34044499189E+01  0.31886075433E+02  0.00000000000E+00 0.  1.
         11    1    3    3    0    0 -0.15296758419E+02 -0.69677753418E+01  0.14055306657E+02  0.21911009945E+02  0.51100000000E-03 0. -1.
        -11    1    3    3    0    0  0.14516923956E+02 -0.52117694022E+01 -0.32336802145E+01  0.15759451432E+02  0.51100000000E-03 0.  1.
        -12    1    3    3    0    0  0.79372172239E+01 -0.18705781858E+02 -0.74171765231E+01  0.21631463190E+02  0.00000000000E+00 0.  1.
</event>
<event>
 7    1  0.1290195E-011  0.5930195E+02  0.7816164E-02  0.1266605E+00
        -11   -1    0    0    0    0  0.00000000000E+00  0.00000000000E+00  0.45593999997E+02  0.45594000000E+02  0.51100000000E-03 0.  1.
         11   -1    0    0    0    0 -0.00000000000E+00 -0.00000000000E+00 -0.45593999997E+02  0.45594000000E+02  0.51100000000E-03 0. -1.
    9900012    2    1    2    0    0 -0.20974478787E+01 -0.26731618808E+02 -0.17255189767E+02  0.59301948103E+02  0.50000007431E+02 0.  0.
        -12    1    1    2    0    0  0.20974478787E+01  0.26731618808E+02  0.17255189767E+02  0.31886051897E+02  0.00000000000E+00 0.  1.
         11    1    3    3    0    0 -0.11177043633E+02 -0.20307292388E+02 -0.19740455484E+02  0.30446642040E+02  0.51100000000E-03 0. -1.
        -11    1    3    3    0    0 -0.88908302064E+01 -0.60473857827E+01  0.39533247355E+00  0.10759833855E+02  0.51100000000E-03 0.  1.
         12    1    3    3    0    0  0.17970425961E+02 -0.37694063755E+00  0.20899332432E+01  0.18095472208E+02  0.00000000000E+00 0. -1.
</event>
<event>
 7    1  0.1290195E-011  0.5930200E+02  0.7816164E-02  0.1266605E+00
        -11   -1    0    0    0    0  0.00000000000E+00  0.00000000000E+00  0.45593999997E+02  0.45594000000E+02  0.51100000000E-03 0. -1.
         11   -1    0    0    0    0 -0.00000000000E+00 -0.00000000000E+00 -0.45593999997E+02  0.45594000000E+02  0.51100000000E-03 0.  1.
    9900012    2    1    2    0    0 -0.13210106711E+02 -0.24690809889E+02  0.15250379832E+02  0.59301998411E+02  0.50000099183E+02 0.  0.
        -12    1    1    2    0    0  0.13210106711E+02  0.24690809889E+02 -0.15250379832E+02  0.31886001589E+02  0.00000000000E+00 0.  1.
         11    1    3    3    0    0  0.59264320961E+01 -0.13079503985E+02  0.35446772937E+01  0.14790563182E+02  0.51100000000E-03 0. -1.
        -11    1    3    3    0    0  0.34569981391E+01 -0.17544332461E+02 -0.10194530613E+01  0.17910715297E+02  0.51100000000E-03 0.  1.
         12    1    3    3    0    0 -0.22593536946E+02  0.59330265571E+01  0.12725155600E+02  0.26600719932E+02  0.00000000000E+00 0. -1.
</event>
<event>
 7    1  0.1290195E-011  0.5930193E+02  0.7816164E-02  0.1266605E+00
        -11   -1    0    0    0    0  0.00000000000E+00  0.00000000000E+00  0.45593999997E+02  0.45594000000E+02  0.51100000000E-03 0.  1.
         11   -1    0    0    0    0 -0.00000000000E+00 -0.00000000000E+00 -0.45593999997E+02  0.45594000000E+02  0.51100000000E-03 0. -1.
    9900012    2    1    2    0    0 -0.24353133167E+02 -0.19213029559E+02  0.73828067652E+01  0.59301930382E+02  0.49999975114E+02 0.  0.
        -12    1    1    2    0    0  0.24353133167E+02  0.19213029559E+02 -0.73828067652E+01  0.31886069618E+02  0.00000000000E+00 0.  1.
         11    1    3    3    0    0 -0.63762565914E+01 -0.21537048419E+02  0.53208190623E+01  0.23082725543E+02  0.51100000000E-03 0. -1.
        -11    1    3    3    0    0 -0.25090568422E+02 -0.51948186165E+01 -0.20324937759E+00  0.25623506293E+02  0.51100000000E-03 0.  1.
        -12    1    3    3    0    0  0.71136918457E+01  0.75188374759E+01  0.22652370805E+01  0.10595698547E+02  0.00000000000E+00 0.  1.
</event>
<event>
 7    1  0.1290195E-011  0.5930194E+02  0.7816164E-02  0.1266605E+00
        -11   -1    0    0    0    0  0.00000000000E+00  0.00000000000E+00  0.45593999997E+02  0.45594000000E+02  0.51100000000E-03 0.  1.
         11   -1    0    0    0    0 -0.00000000000E+00 -0.00000000000E+00 -0.45593999997E+02  0.45594000000E+02  0.51100000000E-03 0. -1.
    9900012    2    1    2    0    0 -0.21859512363E+02 -0.23046851376E+02 -0.27793846632E+01  0.59301943201E+02  0.49999998492E+02 0.  0.
        -12    1    1    2    0    0  0.21859512363E+02  0.23046851376E+02  0.27793846632E+01  0.31886056799E+02  0.00000000000E+00 0.  1.
         11    1    3    3    0    0 -0.66599938997E+01  0.26199270794E+01  0.18405738618E+02  0.19748183486E+02  0.51100000000E-03 0. -1.
        -11    1    3    3    0    0 -0.27612301548E+01  0.33206728898E-01  0.14492999142E+01  0.31186479694E+01  0.51100000000E-03 0.  1.
         12    1    3    3    0    0 -0.12438288309E+02 -0.25699985184E+02 -0.22634423196E+02  0.36435111746E+02  0.00000000000E+00 0. -1.
</event>
<event>
 7    1  0.1290195E-011  0.5930197E+02  0.7816164E-02  0.1266605E+00
        -11   -1    0    0    0    0  0.00000000000E+00  0.00000000000E+00  0.45593999997E+02  0.45594000000E+02  0.51100000000E-03 0. -1.
         11   -1    0    0    0    0 -0.00000000000E+00 -0.00000000000E+00 -0.45593999997E+02  0.45594000000E+02  0.51100000000E-03 0.  1.
    9900012    2    1    2    0    0 -0.29989413429E+02 -0.69305604594E+01 -0.83259295769E+01  0.59301973446E+02  0.50000053651E+02 0.  0.
        -12    1    1    2    0    0  0.29989413429E+02  0.69305604594E+01  0.83259295769E+01  0.31886026554E+02  0.00000000000E+00 0.  1.
         11    1    3    3    0    0 -0.46387291990E+01  0.13321671771E+02  0.10012102142E+02  0.17298177271E+02  0.51100000000E-03 0. -1.
        -11    1    3    3    0    0 -0.36135721126E+01 -0.47119591328E+01  0.40134506852E+01  0.71671646379E+01  0.51100000000E-03 0.  1.
        -12    1    3    3    0    0 -0.21737112118E+02 -0.15540273097E+02 -0.22351482404E+02  0.34836631536E+02  0.00000000000E+00 0.  1.
</event>
<event>
 7    1  0.1290195E-011  0.5930212E+02  0.7816164E-02  0.1266604E+00
        -11   -1    0    0    0    0  0.00000000000E+00  0.00000000000E+00  0.45593999997E+02  0.45594000000E+02  0.51100000000E-03 0.  1.
         11   -1    0    0    0    0 -0.00000000000E+00 -0.00000000000E+00 -0.45593999997E+02  0.45594000000E+02  0.51100000000E-03 0. -1.
    9900012    2    1    2    0    0  0.28806715806E+02  0.28811136489E+01 -0.13363444605E+02  0.59302120004E+02  0.50000320938E+02 0.  0.
        -12    1    1    2    0    0 -0.28806715806E+02 -0.28811136489E+01  0.13363444605E+02  0.31885879996E+02  0.00000000000E+00 0.  1.
         11    1    3    3    0    0  0.69390848868E+01  0.40219470482E+01 -0.95637240365E+01  0.12481657535E+02  0.51100000000E-03 0. -1.
        -11    1    3    3    0    0  0.15253430394E+02  0.18655847417E+02  0.42121170293E+01  0.24463231834E+02  0.51100000000E-03 0.  1.
         12    1    3    3    0    0  0.66142005250E+01 -0.19796680817E+02 -0.80118375981E+01  0.22357230634E+02  0.00000000000E+00 0. -1.
</event>
<event>
 7    1  0.1290195E-011  0.5930196E+02  0.7816164E-02  0.1266605E+00
        -11   -1    0    0    0    0  0.00000000000E+00  0.00000000000E+00  0.45593999997E+02  0.45594000000E+02  0.51100000000E-03 0.  1.
         11   -1    0    0    0    0 -0.00000000000E+00 -0.00000000000E+00 -0.45593999997E+02  0.45594000000E+02  0.51100000000E-03 0. -1.
    9900012    2    1    2    0    0  0.17567588590E+01  0.19070968838E+01 -0.31780441844E+02  0.59301957536E+02  0.50000024636E+02 0.  0.
        -12    1    1    2    0    0 -0.17567588590E+01 -0.19070968838E+01  0.31780441844E+02  0.31886042464E+02  0.00000000000E+00 0.  1.
         11    1    3    3    0    0  0.44184805075E+01  0.33375284535E+01 -0.46080671130E+01  0.72039120589E+01  0.51100000000E-03 0. -1.
        -11    1    3    3    0    0  0.59035496212E+01  0.15565050619E+02  0.25131055543E+01  0.16835628848E+02  0.51100000000E-03 0.  1.
         12    1    3    3    0    0 -0.85652712697E+01 -0.16995482189E+02 -0.29685480285E+02  0.35262416629E+02  0.00000000000E+00 0. -1.
</event>
<event>
 7    1  0.1290195E-011  0.5930192E+02  0.7816164E-02  0.1266605E+00
        -11   -1    0    0    0    0  0.00000000000E+00  0.00000000000E+00  0.45593999997E+02  0.45594000000E+02  0.51100000000E-03 0. -1.
         11   -1    0    0    0    0 -0.00000000000E+00 -0.00000000000E+00 -0.45593999997E+02  0.45594000000E+02  0.51100000000E-03 0.  1.
    9900012    2    1    2    0    0 -0.14430080506E+02  0.26104655921E+02  0.11271295332E+02  0.59301915533E+02  0.49999948033E+02 0.  0.
        -12    1    1    2    0    0  0.14430080506E+02 -0.26104655921E+02 -0.11271295332E+02  0.31886084467E+02  0.00000000000E+00 0.  1.
         11    1    3    3    0    0  0.48155621508E+01  0.34360994086E+01  0.17604964633E+02  0.18572323440E+02  0.51100000000E-03 0. -1.
        -11    1    3    3    0    0  0.53444266506E+01  0.12479650769E+02 -0.30092858214E+01  0.13905408335E+02  0.51100000000E-03 0.  1.
        -12    1    3    3    0    0 -0.24590069307E+02  0.10188905744E+02 -0.33243834794E+01  0.26824183758E+02  0.00000000000E+00 0.  1.
</event>
<event>
 7    1  0.1290195E-011  0.5930196E+02  0.7816164E-02  0.1266605E+00
        -11   -1    0    0    0    0  0.00000000000E+00  0.00000000000E+00  0.45593999997E+02  0.45594000000E+02  0.51100000000E-03 0.  1.
         11   -1    0    0    0    0 -0.00000000000E+00 -0.00000000000E+00 -0.45593999997E+02  0.45594000000E+02  0.51100000000E-03 0. -1.
    9900012    2    1    2    0    0 -0.18793609914E+02  0.21875722797E+02 -0.13600465733E+02  0.59301957762E+02  0.50000025047E+02 0.  0.
        -12    1    1    2    0    0  0.18793609914E+02 -0.21875722797E+02  0.13600465733E+02  0.31886042238E+02  0.00000000000E+00 0.  1.
         11    1    3    3    0    0 -0.55494379626E+01  0.11895828820E+02  0.49423143755E+00  0.13135877207E+02  0.51100000000E-03 0. -1.
        -11    1    3    3    0    0  0.65003743691E+01 -0.39717612431E+01  0.96399088531E+01  0.12286480264E+02  0.51100000000E-03 0.  1.
         12    1    3    3    0    0 -0.19744546321E+02  0.13951655220E+02 -0.23734606024E+02  0.33879600291E+02  0.00000000000E+00 0. -1.
</event>
<event>
 7    1  0.1290195E-011  0.5930196E+02  0.7816164E-02  0.1266605E+00
        -11   -1    0    0    0    0  0.00000000000E+00  0.00000000000E+00  0.45593999997E+02  0.45594000000E+02  0.51100000000E-03 0.  1.
         11   -1    0    0    0    0 -0.00000000000E+00 -0.00000000000E+00 -0.45593999997E+02  0.45594000000E+02  0.51100000000E-03 0. -1.
    9900012    2    1    2    0    0  0.17126656314E+01 -0.85369091154E+01 -0.30674213120E+02  0.59301962439E+02  0.50000033578E+02 0.  0.
        -12    1    1    2    0    0 -0.17126656314E+01  0.85369091154E+01  0.30674213120E+02  0.31886037561E+02  0.00000000000E+00 0.  1.
         11    1    3    3    0    0 -0.14115760392E+02 -0.56445824121E+01 -0.42165733093E+01  0.15776422053E+02  0.51100000000E-03 0. -1.
        -11    1    3    3    0    0  0.69920930291E+01 -0.68938649372E+01  0.47049578218E+01  0.10888129640E+02  0.51100000000E-03 0.  1.
        -12    1    3    3    0    0  0.88363329943E+01  0.40015382339E+01 -0.31162597632E+02  0.32637410746E+02  0.00000000000E+00 0.  1.
</event>
<event>
 7    1  0.1290195E-011  0.5930191E+02  0.7816164E-02  0.1266605E+00
        -11   -1    0    0    0    0  0.00000000000E+00  0.00000000000E+00  0.45593999997E+02  0.45594000000E+02  0.51100000000E-03 0.  1.
         11   -1    0    0    0    0 -0.00000000000E+00 -0.00000000000E+00 -0.45593999997E+02  0.45594000000E+02  0.51100000000E-03 0. -1.
    9900012    2    1    2    0    0 -0.23863096808E+02 -0.18871691741E+02 -0.95464352706E+01  0.59301912676E+02  0.49999942822E+02 0.  0.
        -12    1    1    2    0    0  0.23863096808E+02  0.18871691741E+02  0.95464352706E+01  0.31886087324E+02  0.00000000000E+00 0.  1.
         11    1    3    3    0    0 -0.12373052452E+02 -0.24352627775E+02 -0.19214860125E+02  0.33396912379E+02  0.51100000000E-03 0. -1.
        -11    1    3    3    0    0 -0.46782780874E+01 -0.73595164969E+01  0.68725064040E+01  0.11103157815E+02  0.51100000000E-03 0.  1.
        -12    1    3    3    0    0 -0.68117662689E+01  0.12840452530E+02  0.27959184507E+01  0.14801842482E+02  0.00000000000E+00 0.  1.
</event>
<event>
 7    1  0.1290195E-011  0.5930198E+02  0.7816164E-02  0.1266605E+00
        -11   -1    0    0    0    0  0.00000000000E+00  0.00000000000E+00  0.45593999997E+02  0.45594000000E+02  0.51100000000E-03 0.  1.
         11   -1    0    0    0    0 -0.00000000000E+00 -0.00000000000E+00 -0.45593999997E+02  0.45594000000E+02  0.51100000000E-03 0. -1.
    9900012    2    1    2    0    0  0.17599296171E+02  0.20335266460E+02 -0.17130680095E+02  0.59301976601E+02  0.50000059405E+02 0.  0.
        -12    1    1    2    0    0 -0.17599296171E+02 -0.20335266460E+02  0.17130680095E+02  0.31886023399E+02  0.00000000000E+00 0.  1.
         11    1    3    3    0    0  0.28549138551E+01  0.15525995021E+02 -0.92893840564E+01  0.18316651193E+02  0.51100000000E-03 0. -1.
        -11    1    3    3    0    0 -0.98732544881E+01  0.81602478665E+01  0.40602315769E+01  0.13437123210E+02  0.51100000000E-03 0.  1.
        -12    1    3    3    0    0  0.24617636804E+02 -0.33509764269E+01 -0.11901527615E+02  0.27548202199E+02  0.00000000000E+00 0.  1.
</event>
<event>
 7    1  0.1290195E-011  0.5930194E+02  0.7816164E-02  0.1266605E+00
        -11   -1    0    0    0    0  0.00000000000E+00  0.00000000000E+00  0.45593999997E+02  0.45594000000E+02  0.51100000000E-03 0.  1.
         11   -1    0    0    0    0 -0.00000000000E+00 -0.00000000000E+00 -0.45593999997E+02  0.45594000000E+02  0.51100000000E-03 0. -1.
    9900012    2    1    2    0    0  0.10193137101E+02 -0.22256098958E+02 -0.20432497318E+02  0.59301938289E+02  0.49999989533E+02 0.  0.
        -12    1    1    2    0    0 -0.10193137101E+02  0.22256098958E+02  0.20432497318E+02  0.31886061711E+02  0.00000000000E+00 0.  1.
         11    1    3    3    0    0  0.63170651786E+01 -0.19925719378E+02 -0.14444380578E+02  0.25408261171E+02  0.51100000000E-03 0. -1.
        -11    1    3    3    0    0  0.21245850825E+01 -0.16129417614E+02  0.40195049442E+01  0.16757935272E+02  0.51100000000E-03 0.  1.
        -12    1    3    3    0    0  0.17514868403E+01  0.13799038034E+02 -0.10007621684E+02  0.17135741845E+02  0.00000000000E+00 0.  1.
</event>
<event>
 7    1  0.1511406E-011  0.5930190E+02  0.7816164E-02  0.1266605E+00
        -11   -1    0    0    0    0  0.00000000000E+00  0.00000000000E+00  0.45593999997E+02  0.45594000000E+02  0.51100000000E-03 0.  1.
         11   -1    0    0    0    0 -0.00000000000E+00 -0.00000000000E+00 -0.45593999997E+02  0.45594000000E+02  0.51100000000E-03 0. -1.
    9900012    2    1    2    0    0  0.31498675011E+02 -0.24363736929E+00 -0.49494699582E+01  0.59301903665E+02  0.49999926388E+02 0.  0.
        -12    1    1    2    0    0 -0.31498675011E+02  0.24363736929E+00  0.49494699582E+01  0.31886096335E+02  0.00000000000E+00 0.  1.
         11    1    3    3    0    0  0.16157151023E+02  0.17585906376E+02 -0.57842873295E+01  0.24571845931E+02  0.51100000000E-03 0. -1.
        -11    1    3    3    0    0  0.17469389859E+02 -0.17240846477E+01  0.44016211856E+01  0.18097688229E+02  0.51100000000E-03 0.  1.
        -12    1    3    3    0    0 -0.21278658708E+01 -0.16105459098E+02 -0.35668038143E+01  0.16632369506E+02  0.00000000000E+00 0.  1.
</event>
<event>
 7    1  0.1290195E-011  0.5930197E+02  0.7816164E-02  0.1266605E+00
        -11   -1    0    0    0    0  0.00000000000E+00  0.00000000000E+00  0.45593999997E+02  0.45594000000E+02  0.51100000000E-03 0. -1.
         11   -1    0    0    0    0 -0.00000000000E+00 -0.00000000000E+00 -0.45593999997E+02  0.45594000000E+02  0.51100000000E-03 0.  1.
    9900012    2    1    2    0    0 -0.30668766447E+02  0.39256997234E+01  0.77932320009E+01  0.59301971418E+02  0.50000049953E+02 0.  0.
        -12    1    1    2    0    0  0.30668766447E+02 -0.39256997234E+01 -0.77932320009E+01  0.31886028582E+02  0.00000000000E+00 0.  1.
         11    1    3    3    0    0 -0.13888765982E+02  0.15462279816E+02  0.21490735988E+01  0.20894938028E+02  0.51100000000E-03 0. -1.
        -11    1    3    3    0    0 -0.67745588144E+01 -0.44087510958E+01 -0.13456193922E+02  0.15697161797E+02  0.51100000000E-03 0.  1.
         12    1    3    3    0    0 -0.10005441651E+02 -0.71278289965E+01  0.19100352324E+02  0.22709871592E+02  0.00000000000E+00 0. -1.
</event>
<event>
 7    1  0.1290195E-011  0.5930197E+02  0.7816164E-02  0.1266605E+00
        -11   -1    0    0    0    0  0.00000000000E+00  0.00000000000E+00  0.45593999997E+02  0.45594000000E+02  0.51100000000E-03 0.  1.
         11   -1    0    0    0    0 -0.00000000000E+00 -0.00000000000E+00 -0.45593999997E+02  0.45594000000E+02  0.51100000000E-03 0. -1.
    9900012    2    1    2    0    0  0.60306518368E+01  0.28824973466E+02  0.12225827279E+02  0.59301973130E+02  0.50000053076E+02 0.  0.
        -12    1    1    2    0    0 -0.60306518368E+01 -0.28824973466E+02 -0.12225827279E+02  0.31886026870E+02  0.00000000000E+00 0.  1.
         11    1    3    3    0    0  0.12228644235E+02  0.26523221189E+02 -0.12514373660E+02  0.31774684113E+02  0.51100000000E-03 0.  1.
        -11    1    3    3    0    0 -0.43569619917E+01  0.41894357567E+01  0.57089527820E+01  0.83142427127E+01  0.51100000000E-03 0. -1.
        -12    1    3    3    0    0 -0.18410304063E+01 -0.18876834802E+01  0.19031248158E+02  0.19213046305E+02  0.00000000000E+00 0.  1.
</event>
<event>
 7    1  0.1290195E-011  0.5930199E+02  0.7816164E-02  0.1266605E+00
        -11   -1    0    0    0    0  0.00000000000E+00  0.00000000000E+00  0.45593999997E+02  0.45594000000E+02  0.51100000000E-03 0.  1.
         11   -1    0    0    0    0 -0.00000000000E+00 -0.00000000000E+00 -0.45593999997E+02  0.45594000000E+02  0.51100000000E-03 0. -1.
    9900012    2    1    2    0    0  0.24008982166E+02 -0.17717918158E+02 -0.11241087303E+02  0.59301985946E+02  0.50000076449E+02 0.  0.
        -12    1    1    2    0    0 -0.24008982166E+02  0.17717918158E+02  0.11241087303E+02  0.31886014054E+02  0.00000000000E+00 0.  1.
         11    1    3    3    0    0  0.97063530556E+01  0.89226549221E+01 -0.47930338124E+01  0.14028550670E+02  0.51100000000E-03 0. -1.
        -11    1    3    3    0    0  0.15681423735E+02  0.20770336439E+01 -0.45519281256E+01  0.16460290673E+02  0.51100000000E-03 0.  1.
        -12    1    3    3    0    0 -0.13787946247E+01 -0.28717606724E+02 -0.18961253652E+01  0.28813144604E+02  0.00000000000E+00 0.  1.
</event>
<event>
 7    1  0.1290195E-011  0.5930194E+02  0.7816164E-02  0.1266605E+00
        -11   -1    0    0    0    0  0.00000000000E+00  0.00000000000E+00  0.45593999997E+02  0.45594000000E+02  0.51100000000E-03 0. -1.
         11   -1    0    0    0    0 -0.00000000000E+00 -0.00000000000E+00 -0.45593999997E+02  0.45594000000E+02  0.51100000000E-03 0.  1.
    9900012    2    1    2    0    0  0.62447699965E+01  0.27785652738E+01  0.31144875502E+02  0.59301939608E+02  0.49999991940E+02 0.  0.
        -12    1    1    2    0    0 -0.62447699965E+01 -0.27785652738E+01 -0.31144875502E+02  0.31886060392E+02  0.00000000000E+00 0.  1.
         11    1    3    3    0    0 -0.20652964862E+01 -0.34288482736E+01  0.24976016376E+01  0.47180996450E+01  0.51100000000E-03 0. -1.
        -11    1    3    3    0    0 -0.98505623039E+01 -0.14674746611E+02  0.17114333072E+02  0.24602482854E+02  0.51100000000E-03 0.  1.
         12    1    3    3    0    0  0.18160628787E+02  0.20882160159E+02  0.11532940792E+02  0.29981357110E+02  0.00000000000E+00 0. -1.
</event>
<event>
 7    1  0.1290195E-011  0.5930193E+02  0.7816164E-02  0.1266605E+00
        -11   -1    0    0    0    0  0.00000000000E+00  0.00000000000E+00  0.45593999997E+02  0.45594000000E+02  0.51100000000E-03 0. -1.
         11   -1    0    0    0    0 -0.00000000000E+00 -0.00000000000E+00 -0.45593999997E+02  0.45594000000E+02  0.51100000000E-03 0.  1.
    9900012    2    1    2    0    0 -0.25519956999E+02 -0.14417671064E+02 -0.12553238916E+02  0.59301933271E+02  0.49999980383E+02 0.  0.
        -12    1    1    2    0    0  0.25519956999E+02  0.14417671064E+02  0.12553238916E+02  0.31886066729E+02  0.00000000000E+00 0.  1.
         11    1    3    3    0    0 -0.11577827165E+02  0.57369725519E+01  0.78880971026E+00  0.12945314092E+02  0.51100000000E-03 0. -1.
        -11    1    3    3    0    0 -0.26521622810E+02 -0.15319777462E+02 -0.11671859991E+02  0.32776887800E+02  0.51100000000E-03 0.  1.
        -12    1    3    3    0    0  0.12579492976E+02 -0.48348661536E+01 -0.16701886356E+01  0.13579731379E+02  0.00000000000E+00 0.  1.
</event>
<event>
 7    1  0.1290195E-011  0.5930194E+02  0.7816164E-02  0.1266605E+00
        -11   -1    0    0    0    0  0.00000000000E+00  0.00000000000E+00  0.45593999997E+02  0.45594000000E+02  0.51100000000E-03 0. -1.
         11   -1    0    0    0    0 -0.00000000000E+00 -0.00000000000E+00 -0.45593999997E+02  0.45594000000E+02  0.51100000000E-03 0.  1.
    9900012    2    1    2    0    0 -0.28589112273E+02  0.97317608574E+00  0.14086748622E+02  0.59301938798E+02  0.49999990462E+02 0.  0.
        -12    1    1    2    0    0  0.28589112273E+02 -0.97317608574E+00 -0.14086748622E+02  0.31886061202E+02  0.00000000000E+00 0.  1.
         11    1    3    3    0    0 -0.23926013352E+02  0.36810250280E+01 -0.20925026790E+01  0.24297790597E+02  0.51100000000E-03 0. -1.
        -11    1    3    3    0    0 -0.71307356867E+01 -0.28321410971E+01 -0.77746980967E+01  0.10923110609E+02  0.51100000000E-03 0.  1.
        -12    1    3    3    0    0  0.24676367652E+01  0.12429215489E+00  0.23953949398E+02  0.24081037592E+02  0.00000000000E+00 0.  1.
</event>
<event>
 7    1  0.1290195E-011  0.5930198E+02  0.7816164E-02  0.1266605E+00
        -11   -1    0    0    0    0  0.00000000000E+00  0.00000000000E+00  0.45593999997E+02  0.45594000000E+02  0.51100000000E-03 0.  1.
         11   -1    0    0    0    0 -0.00000000000E+00 -0.00000000000E+00 -0.45593999997E+02  0.45594000000E+02  0.51100000000E-03 0. -1.
    9900012    2    1    2    0    0 -0.13623780476E+02  0.20835669342E+02 -0.19924501043E+02  0.59301980286E+02  0.50000066126E+02 0.  0.
        -12    1    1    2    0    0  0.13623780476E+02 -0.20835669342E+02  0.19924501043E+02  0.31886019714E+02  0.00000000000E+00 0.  1.
         11    1    3    3    0    0 -0.34485211408E+01 -0.13726040854E+02 -0.16945160368E+02  0.22077929154E+02  0.51100000000E-03 0. -1.
        -11    1    3    3    0    0  0.16231325558E+01  0.56330726286E+01 -0.52370967579E+00  0.58856043545E+01  0.51100000000E-03 0.  1.
        -12    1    3    3    0    0 -0.11798391892E+02  0.28928637568E+02 -0.24556309990E+01  0.31338446777E+02  0.00000000000E+00 0.  1.
</event>
<event>
 7    1  0.1290195E-011  0.5930195E+02  0.7816164E-02  0.1266605E+00
        -11   -1    0    0    0    0  0.00000000000E+00  0.00000000000E+00  0.45593999997E+02  0.45594000000E+02  0.51100000000E-03 0.  1.
         11   -1    0    0    0    0 -0.00000000000E+00 -0.00000000000E+00 -0.45593999997E+02  0.45594000000E+02  0.51100000000E-03 0. -1.
    9900012    2    1    2    0    0 -0.17729919996E+02  0.26434394275E+02 -0.18954401039E+01  0.59301953571E+02  0.50000017404E+02 0.  0.
        -12    1    1    2    0    0  0.17729919996E+02 -0.26434394275E+02  0.18954401039E+01  0.31886046429E+02  0.00000000000E+00 0.  1.
         11    1    3    3    0    0 -0.82092751682E+01 -0.60611022556E+01 -0.59605838477E+01  0.11817686720E+02  0.51100000000E-03 0. -1.
        -11    1    3    3    0    0 -0.56177725888E+01 -0.59176641287E+01 -0.19969510896E+01  0.84003530590E+01  0.51100000000E-03 0.  1.
        -12    1    3    3    0    0 -0.39028722386E+01  0.38413160659E+02  0.60620948334E+01  0.39083913792E+02  0.00000000000E+00 0.  1.
</event>
<event>
 7    1  0.1290195E-011  0.5930195E+02  0.7816164E-02  0.1266605E+00
        -11   -1    0    0    0    0  0.00000000000E+00  0.00000000000E+00  0.45593999997E+02  0.45594000000E+02  0.51100000000E-03 0.  1.
         11   -1    0    0    0    0 -0.00000000000E+00 -0.00000000000E+00 -0.45593999997E+02  0.45594000000E+02  0.51100000000E-03 0. -1.
    9900012    2    1    2    0    0 -0.13361816481E+01 -0.26659251652E+02 -0.17441882413E+02  0.59301947529E+02  0.50000006386E+02 0.  0.
        -12    1    1    2    0    0  0.13361816481E+01  0.26659251652E+02  0.17441882413E+02  0.31886052471E+02  0.00000000000E+00 0.  1.
         11    1    3    3    0    0 -0.81294133826E+00  0.69907310474E+01 -0.69078366670E+01  0.98615111355E+01  0.51100000000E-03 0. -1.
        -11    1    3    3    0    0  0.20089254374E+01  0.35306098598E+01 -0.11463693714E+02  0.12162124042E+02  0.51100000000E-03 0.  1.
         12    1    3    3    0    0 -0.25321657472E+01 -0.37180592559E+02  0.92964796813E+00  0.37278312352E+02  0.00000000000E+00 0. -1.
</event>
<event>
 7    1  0.1290195E-011  0.5930192E+02  0.7816164E-02  0.1266605E+00
        -11   -1    0    0    0    0  0.00000000000E+00  0.00000000000E+00  0.45593999997E+02  0.45594000000E+02  0.51100000000E-03 0. -1.
         11   -1    0    0    0    0 -0.00000000000E+00 -0.00000000000E+00 -0.45593999997E+02  0.45594000000E+02  0.51100000000E-03 0.  1.
    9900012    2    1    2    0    0 -0.23551993756E+02  0.12491774745E+02 -0.17492316998E+02  0.59301921531E+02  0.49999958971E+02 0.  0.
        -12    1    1    2    0    0  0.23551993756E+02 -0.12491774745E+02  0.17492316998E+02  0.31886078469E+02  0.00000000000E+00 0.  1.
         11    1    3    3    0    0 -0.18924441289E+02 -0.53407696042E+01 -0.91693992683E+01  0.21696455500E+02  0.51100000000E-03 0. -1.
        -11    1    3    3    0    0  0.39275836180E+00 -0.54283182597E+01  0.73246669726E+01  0.91253298451E+01  0.51100000000E-03 0.  1.
         12    1    3    3    0    0 -0.50203108291E+01  0.23260862609E+02 -0.15647584702E+02  0.28480136186E+02  0.00000000000E+00 0. -1.
</event>
<event>
 7    1  0.1290195E-011  0.5930194E+02  0.7816164E-02  0.1266605E+00
        -11   -1    0    0    0    0  0.00000000000E+00  0.00000000000E+00  0.45593999997E+02  0.45594000000E+02  0.51100000000E-03 0. -1.
         11   -1    0    0    0    0 -0.00000000000E+00 -0.00000000000E+00 -0.45593999997E+02  0.45594000000E+02  0.51100000000E-03 0.  1.
    9900012    2    1    2    0    0 -0.16626786891E+02 -0.20064361944E+02  0.18376394818E+02  0.59301944285E+02  0.50000000469E+02 0.  0.
        -12    1    1    2    0    0  0.16626786891E+02  0.20064361944E+02 -0.18376394818E+02  0.31886055715E+02  0.00000000000E+00 0.  1.
         11    1    3    3    0    0  0.15584887797E+02 -0.64211206762E+01  0.10844523585E+02  0.20043033963E+02  0.51100000000E-03 0. -1.
        -11    1    3    3    0    0  0.17911280434E+01 -0.42815872069E+00  0.12894556905E+01  0.22481449680E+01  0.51100000000E-03 0.  1.
        -12    1    3    3    0    0 -0.34002802731E+02 -0.13215082547E+02  0.62424155425E+01  0.37010765354E+02  0.00000000000E+00 0.  1.
</event>
<event>
 7    1  0.1290195E-011  0.5930195E+02  0.7816164E-02  0.1266605E+00
        -11   -1    0    0    0    0  0.00000000000E+00  0.00000000000E+00  0.45593999997E+02  0.45594000000E+02  0.51100000000E-03 0. -1.
         11   -1    0    0    0    0 -0.00000000000E+00 -0.00000000000E+00 -0.45593999997E+02  0.45594000000E+02  0.51100000000E-03 0.  1.
    9900012    2    1    2    0    0  0.22745012328E+02 -0.14920199623E+02  0.16636475102E+02  0.59301949031E+02  0.50000009125E+02 0.  0.
        -12    1    1    2    0    0 -0.22745012328E+02  0.14920199623E+02 -0.16636475102E+02  0.31886050969E+02  0.00000000000E+00 0.  1.
         11    1    3    3    0    0  0.10775224570E+02 -0.22780220100E+02 -0.32968922619E+01  0.25414826208E+02  0.51100000000E-03 0. -1.
        -11    1    3    3    0    0  0.28245954844E+01 -0.37185363931E+01 -0.37464123228E+01  0.59867735978E+01  0.51100000000E-03 0.  1.
         12    1    3    3    0    0  0.91451922730E+01  0.11578556870E+02  0.23679779686E+02  0.27900349225E+02  0.00000000000E+00 0. -1.
</event>
<event>
 7    1  0.1290195E-011  0.5930196E+02  0.7816164E-02  0.1266605E+00
        -11   -1    0    0    0    0  0.00000000000E+00  0.00000000000E+00  0.45593999997E+02  0.45594000000E+02  0.51100000000E-03 0.  1.
         11   -1    0    0    0    0 -0.00000000000E+00 -0.00000000000E+00 -0.45593999997E+02  0.45594000000E+02  0.51100000000E-03 0. -1.
    9900012    2    1    2    0    0  0.28094602157E+02 -0.33735175928E+01 -0.14698027219E+02  0.59301963943E+02  0.50000036321E+02 0.  0.
        -12    1    1    2    0    0 -0.28094602157E+02  0.33735175928E+01  0.14698027219E+02  0.31886036057E+02  0.00000000000E+00 0.  1.
         11    1    3    3    0    0  0.83502313192E+01 -0.10591218550E+02 -0.10190295185E+02  0.16903916401E+02  0.51100000000E-03 0. -1.
        -11    1    3    3    0    0  0.15292649982E+02 -0.80685260019E+01 -0.15361766609E+02  0.23128988930E+02  0.51100000000E-03 0.  1.
        -12    1    3    3    0    0  0.44517208553E+01  0.15286226959E+02  0.10854034575E+02  0.19269058612E+02  0.00000000000E+00 0.  1.
</event>
<event>
 7    1  0.1290195E-011  0.5930195E+02  0.7816164E-02  0.1266605E+00
        -11   -1    0    0    0    0  0.00000000000E+00  0.00000000000E+00  0.45593999997E+02  0.45594000000E+02  0.51100000000E-03 0.  1.
         11   -1    0    0    0    0 -0.00000000000E+00 -0.00000000000E+00 -0.45593999997E+02  0.45594000000E+02  0.51100000000E-03 0. -1.
    9900012    2    1    2    0    0 -0.22984737635E+02  0.22099319495E+02  0.20590671119E+00  0.59301945307E+02  0.50000002333E+02 0.  0.
        -12    1    1    2    0    0  0.22984737635E+02 -0.22099319495E+02 -0.20590671119E+00  0.31886054693E+02  0.00000000000E+00 0.  1.
         11    1    3    3    0    0 -0.12712758666E+02  0.62681582775E+01  0.12960398122E+02  0.19206143830E+02  0.51100000000E-03 0. -1.
        -11    1    3    3    0    0  0.42813055768E+01  0.42861071453E+01  0.94004322049E+01  0.11183399206E+02  0.51100000000E-03 0.  1.
        -12    1    3    3    0    0 -0.14553284546E+02  0.11545054072E+02 -0.22154923616E+02  0.28912402271E+02  0.00000000000E+00 0.  1.
</event>
<event>
 7    1  0.1290195E-011  0.5930197E+02  0.7816164E-02  0.1266605E+00
        -11   -1    0    0    0    0  0.00000000000E+00  0.00000000000E+00  0.45593999997E+02  0.45594000000E+02  0.51100000000E-03 0. -1.
         11   -1    0    0    0    0 -0.00000000000E+00 -0.00000000000E+00 -0.45593999997E+02  0.45594000000E+02  0.51100000000E-03 0.  1.
    9900012    2    1    2    0    0 -0.25558563456E+02 -0.18720125681E+02 -0.36105318522E+01  0.59301965256E+02  0.50000038715E+02 0.  0.
        -12    1    1    2    0    0  0.25558563456E+02  0.18720125681E+02  0.36105318522E+01  0.31886034744E+02  0.00000000000E+00 0.  1.
         11    1    3    3    0    0 -0.23487812893E+02 -0.73318397167E+01  0.16669342845E+02  0.29720367079E+02  0.51100000000E-03 0. -1.
        -11    1    3    3    0    0  0.16323662043E+01  0.22713153362E+01  0.18210179678E+01  0.33376038533E+01  0.51100000000E-03 0.  1.
        -12    1    3    3    0    0 -0.37031167672E+01 -0.13659601300E+02 -0.22100892665E+02  0.26243994324E+02  0.00000000000E+00 0.  1.
</event>
<event>
 7    1  0.1290195E-011  0.5930195E+02  0.7816164E-02  0.1266605E+00
        -11   -1    0    0    0    0  0.00000000000E+00  0.00000000000E+00  0.45593999997E+02  0.45594000000E+02  0.51100000000E-03 0.  1.
         11   -1    0    0    0    0 -0.00000000000E+00 -0.00000000000E+00 -0.45593999997E+02  0.45594000000E+02  0.51100000000E-03 0. -1.
    9900012    2    1    2    0    0  0.23107733817E+02  0.13322619297E+02  0.17471713700E+02  0.59301947772E+02  0.50000006829E+02 0.  0.
        -12    1    1    2    0    0 -0.23107733817E+02 -0.13322619297E+02 -0.17471713700E+02  0.31886052228E+02  0.00000000000E+00 0.  1.
         11    1    3    3    0    0  0.12060266345E+02 -0.44713863947E+01  0.27880514269E+01  0.13161175921E+02  0.51100000000E-03 0. -1.
        -11    1    3    3    0    0 -0.44658230619E+01 -0.64959064462E+01  0.15411322883E+02  0.17310379818E+02  0.51100000000E-03 0.  1.
         12    1    3    3    0    0  0.15513290534E+02  0.24289912137E+02 -0.72766061080E+00  0.28830392033E+02  0.00000000000E+00 0. -1.
</event>
<event>
 7    1  0.1290195E-011  0.5930194E+02  0.7816164E-02  0.1266605E+00
        -11   -1    0    0    0    0  0.00000000000E+00  0.00000000000E+00  0.45593999997E+02  0.45594000000E+02  0.51100000000E-03 0.  1.
         11   -1    0    0    0    0 -0.00000000000E+00 -0.00000000000E+00 -0.45593999997E+02  0.45594000000E+02  0.51100000000E-03 0. -1.
    9900012    2    1    2    0    0  0.20954573564E+02 -0.24017454258E+02  0.88799104376E+00  0.59301940501E+02  0.49999993568E+02 0.  0.
        -12    1    1    2    0    0 -0.20954573564E+02  0.24017454258E+02 -0.88799104376E+00  0.31886059499E+02  0.00000000000E+00 0.  1.
         11    1    3    3    0    0  0.18834872006E+02  0.19692571208E+01 -0.99444982027E+01  0.21389797144E+02  0.51100000000E-03 0. -1.
        -11    1    3    3    0    0  0.68659360367E+01  0.25119825096E+01  0.92467814180E+00  0.73692715865E+01  0.51100000000E-03 0.  1.
        -12    1    3    3    0    0 -0.47462344790E+01 -0.28498693889E+02  0.99078111046E+01  0.30542871770E+02  0.00000000000E+00 0.  1.
</event>
<event>
 7    1  0.1290195E-011  0.5930195E+02  0.7816164E-02  0.1266605E+00
        -11   -1    0    0    0    0  0.00000000000E+00  0.00000000000E+00  0.45593999997E+02  0.45594000000E+02  0.51100000000E-03 0.  1.
         11   -1    0    0    0    0 -0.00000000000E+00 -0.00000000000E+00 -0.45593999997E+02  0.45594000000E+02  0.51100000000E-03 0. -1.
    9900012    2    1    2    0    0  0.25685671877E+02  0.99105482357E+01 -0.16085621950E+02  0.59301953842E+02  0.50000017898E+02 0.  0.
        -12    1    1    2    0    0 -0.25685671877E+02 -0.99105482357E+01  0.16085621950E+02  0.31886046158E+02  0.00000000000E+00 0.  1.
         11    1    3    3    0    0  0.12589706045E+02 -0.61379613357E+01 -0.88555928110E+01  0.16570962312E+02  0.51100000000E-03 0. -1.
        -11    1    3    3    0    0 -0.10956143365E+02  0.12677861326E+02  0.17270243461E+01  0.16844816965E+02  0.51100000000E-03 0.  1.
         12    1    3    3    0    0  0.24052109197E+02  0.33706482454E+01 -0.89570534853E+01  0.25886174564E+02  0.00000000000E+00 0. -1.
</event>
<event>
 7    1  0.1290195E-011  0.5930188E+02  0.7816164E-02  0.1266605E+00
        -11   -1    0    0    0    0  0.00000000000E+00  0.00000000000E+00  0.45593999997E+02  0.45594000000E+02  0.51100000000E-03 0. -1.
         11   -1    0    0    0    0 -0.00000000000E+00 -0.00000000000E+00 -0.45593999997E+02  0.45594000000E+02  0.51100000000E-03 0.  1.
    9900012    2    1    2    0    0  0.29358544487E+02 -0.63010054679E+01  0.10728380457E+02  0.59301875250E+02  0.49999874567E+02 0.  0.
        -12    1    1    2    0    0 -0.29358544487E+02  0.63010054679E+01 -0.10728380457E+02  0.31886124750E+02  0.00000000000E+00 0.  1.
         11    1    3    3    0    0  0.44773042395E+01 -0.31466424299E+01  0.78553682152E+00  0.55285332769E+01  0.51100000000E-03 0. -1.
        -11    1    3    3    0    0  0.10150202699E+02  0.11988224904E+02  0.23794156473E+02  0.28511507040E+02  0.51100000000E-03 0.  1.
         12    1    3    3    0    0  0.14731037549E+02 -0.15142587942E+02 -0.13851312838E+02  0.25261834933E+02  0.00000000000E+00 0. -1.
</event>
<event>
 7    1  0.1290195E-011  0.5930196E+02  0.7816164E-02  0.1266605E+00
        -11   -1    0    0    0    0  0.00000000000E+00  0.00000000000E+00  0.45593999997E+02  0.45594000000E+02  0.51100000000E-03 0. -1.
         11   -1    0    0    0    0 -0.00000000000E+00 -0.00000000000E+00 -0.45593999997E+02  0.45594000000E+02  0.51100000000E-03 0.  1.
    9900012    2    1    2    0    0 -0.38942059830E+01  0.30513462155E+02  0.83954524879E+01  0.59301955476E+02  0.50000020879E+02 0.  0.
        -12    1    1    2    0    0  0.38942059830E+01 -0.30513462155E+02 -0.83954524879E+01  0.31886044524E+02  0.00000000000E+00 0.  1.
         11    1    3    3    0    0  0.38193517571E+01 -0.14235116088E+01 -0.46232829829E+01  0.61634875636E+01  0.51100000000E-03 0. -1.
        -11    1    3    3    0    0  0.14254473090E+02  0.64472105386E+01 -0.29030905183E+01  0.15911771166E+02  0.51100000000E-03 0.  1.
         12    1    3    3    0    0 -0.21968030830E+02  0.25489763225E+02  0.15921825989E+02  0.37226696747E+02  0.00000000000E+00 0. -1.
</event>
<event>
 7    1  0.1290195E-011  0.5930193E+02  0.7816164E-02  0.1266605E+00
        -11   -1    0    0    0    0  0.00000000000E+00  0.00000000000E+00  0.45593999997E+02  0.45594000000E+02  0.51100000000E-03 0. -1.
         11   -1    0    0    0    0 -0.00000000000E+00 -0.00000000000E+00 -0.45593999997E+02  0.45594000000E+02  0.51100000000E-03 0.  1.
    9900012    2    1    2    0    0  0.64552391204E+01  0.18393075636E+02  0.25233823203E+02  0.59301934441E+02  0.49999982516E+02 0.  0.
        -12    1    1    2    0    0 -0.64552391204E+01 -0.18393075636E+02 -0.25233823203E+02  0.31886065559E+02  0.00000000000E+00 0.  1.
         11    1    3    3    0    0  0.70649469151E+01 -0.14741767472E+01 -0.41757888644E+01  0.83380983981E+01  0.51100000000E-03 0. -1.
        -11    1    3    3    0    0  0.11641050995E+02 -0.43880430420E+00 -0.17774330632E+01  0.11784137051E+02  0.51100000000E-03 0.  1.
         12    1    3    3    0    0 -0.12250758790E+02  0.20306056687E+02  0.31187045130E+02  0.39179698991E+02  0.00000000000E+00 0. -1.
</event>
<event>
 7    1  0.1290195E-011  0.5930195E+02  0.7816164E-02  0.1266605E+00
        -11   -1    0    0    0    0  0.00000000000E+00  0.00000000000E+00  0.45593999997E+02  0.45594000000E+02  0.51100000000E-03 0. -1.
         11   -1    0    0    0    0 -0.00000000000E+00 -0.00000000000E+00 -0.45593999997E+02  0.45594000000E+02  0.51100000000E-03 0.  1.
    9900012    2    1    2    0    0  0.18825941884E+02  0.21874886646E+02  0.13557051163E+02  0.59301946782E+02  0.50000005023E+02 0.  0.
        -12    1    1    2    0    0 -0.18825941884E+02 -0.21874886646E+02 -0.13557051163E+02  0.31886053218E+02  0.00000000000E+00 0.  1.
         11    1    3    3    0    0  0.54343341552E+01  0.32151936263E+01  0.12341523485E+02  0.13862996067E+02  0.51100000000E-03 0. -1.
        -11    1    3    3    0    0  0.19929751062E+02 -0.44088643875E+01  0.53661048145E+01  0.21105168649E+02  0.51100000000E-03 0.  1.
         12    1    3    3    0    0 -0.65381433324E+01  0.23068557407E+02 -0.41505771367E+01  0.24333782066E+02  0.00000000000E+00 0. -1.
</event>
<event>
 7    1  0.1290195E-011  0.5930194E+02  0.7816164E-02  0.1266605E+00
        -11   -1    0    0    0    0  0.00000000000E+00  0.00000000000E+00  0.45593999997E+02  0.45594000000E+02  0.51100000000E-03 0.  1.
         11   -1    0    0    0    0 -0.00000000000E+00 -0.00000000000E+00 -0.45593999997E+02  0.45594000000E+02  0.51100000000E-03 0. -1.
    9900012    2    1    2    0    0  0.38776995218E+01  0.16358547074E+02 -0.27093952596E+02  0.59301939045E+02  0.49999990913E+02 0.  0.
        -12    1    1    2    0    0 -0.38776995218E+01 -0.16358547074E+02  0.27093952596E+02  0.31886060955E+02  0.00000000000E+00 0.  1.
         11    1    3    3    0    0 -0.66555944622E+01  0.13795985043E+02 -0.25504928226E+02  0.29751092502E+02  0.51100000000E-03 0. -1.
        -11    1    3    3    0    0 -0.85784217868E+01  0.50039580015E+01  0.14801431689E+01  0.10040903351E+02  0.51100000000E-03 0.  1.
        -12    1    3    3    0    0  0.19111715771E+02 -0.24413959708E+01 -0.30691675384E+01  0.19509943192E+02  0.00000000000E+00 0.  1.
</event>
<event>
 7    1  0.1290195E-011  0.5930194E+02  0.7816164E-02  0.1266605E+00
        -11   -1    0    0    0    0  0.00000000000E+00  0.00000000000E+00  0.45593999997E+02  0.45594000000E+02  0.51100000000E-03 0.  1.
         11   -1    0    0    0    0 -0.00000000000E+00 -0.00000000000E+00 -0.45593999997E+02  0.45594000000E+02  0.51100000000E-03 0. -1.
    9900012    2    1    2    0    0  0.22834261064E+02 -0.14534583281E+01 -0.22208209161E+02  0.59301943900E+02  0.49999999767E+02 0.  0.
        -12    1    1    2    0    0 -0.22834261064E+02  0.14534583281E+01  0.22208209161E+02  0.31886056100E+02  0.00000000000E+00 0.  1.
         11    1    3    3    0    0  0.11772032447E+02  0.51515301974E+01  0.82350716619E+01  0.15262221885E+02  0.51100000000E-03 0. -1.
        -11    1    3    3    0    0  0.12172713844E+02  0.19847192682E+01  0.56930310718E-01  0.12333584808E+02  0.51100000000E-03 0.  1.
         12    1    3    3    0    0 -0.11104852271E+01 -0.85897077937E+01 -0.30500211134E+02  0.31706137208E+02  0.00000000000E+00 0. -1.
</event>
<event>
 7    1  0.1290195E-011  0.5930196E+02  0.7816164E-02  0.1266605E+00
        -11   -1    0    0    0    0  0.00000000000E+00  0.00000000000E+00  0.45593999997E+02  0.45594000000E+02  0.51100000000E-03 0.  1.
         11   -1    0    0    0    0 -0.00000000000E+00 -0.00000000000E+00 -0.45593999997E+02  0.45594000000E+02  0.51100000000E-03 0. -1.
    9900012    2    1    2    0    0  0.34350193843E+01  0.53804218398E+01 -0.31240539748E+02  0.59301958837E+02  0.50000027008E+02 0.  0.
        -12    1    1    2    0    0 -0.34350193843E+01 -0.53804218398E+01  0.31240539748E+02  0.31886041163E+02  0.00000000000E+00 0.  1.
         11    1    3    3    0    0 -0.15553382334E+02  0.75057709149E+01 -0.29350064003E+02  0.34053935988E+02  0.51100000000E-03 0. -1.
        -11    1    3    3    0    0  0.88144922093E+01  0.71361745358E+01 -0.18431169705E+01  0.11489879910E+02  0.51100000000E-03 0.  1.
        -12    1    3    3    0    0  0.10173909509E+02 -0.92615236109E+01 -0.47358774552E-01  0.13758142939E+02  0.00000000000E+00 0.  1.
</event>
<event>
 7    1  0.1290195E-011  0.5930195E+02  0.7816164E-02  0.1266605E+00
        -11   -1    0    0    0    0  0.00000000000E+00  0.00000000000E+00  0.45593999997E+02  0.45594000000E+02  0.51100000000E-03 0.  1.
         11   -1    0    0    0    0 -0.00000000000E+00 -0.00000000000E+00 -0.45593999997E+02  0.45594000000E+02  0.51100000000E-03 0. -1.
    9900012    2    1    2    0    0 -0.21311483761E+00 -0.15504437951E+02 -0.27861926205E+02  0.59301953743E+02  0.50000017718E+02 0.  0.
        -12    1    1    2    0    0  0.21311483761E+00  0.15504437951E+02  0.27861926205E+02  0.31886046257E+02  0.00000000000E+00 0.  1.
         11    1    3    3    0    0  0.90639657801E+01 -0.16270610878E+02 -0.21143347278E+02  0.28176752623E+02  0.51100000000E-03 0. -1.
        -11    1    3    3    0    0 -0.20651928600E+01 -0.98057232318E+01 -0.13365145127E+02  0.16704620144E+02  0.51100000000E-03 0.  1.
        -12    1    3    3    0    0 -0.72118877577E+01  0.10571896159E+02  0.66465661997E+01  0.14420580976E+02  0.00000000000E+00 0.  1.
</event>
<event>
 7    1  0.1290195E-011  0.5930194E+02  0.7816164E-02  0.1266605E+00
        -11   -1    0    0    0    0  0.00000000000E+00  0.00000000000E+00  0.45593999997E+02  0.45594000000E+02  0.51100000000E-03 0. -1.
         11   -1    0    0    0    0 -0.00000000000E+00 -0.00000000000E+00 -0.45593999997E+02  0.45594000000E+02  0.51100000000E-03 0.  1.
    9900012    2    1    2    0    0 -0.79548956289E+01  0.27703054304E+02  0.13637485046E+02  0.59301943790E+02  0.49999999567E+02 0.  0.
        -12    1    1    2    0    0  0.79548956289E+01 -0.27703054304E+02 -0.13637485046E+02  0.31886056210E+02  0.00000000000E+00 0.  1.
         11    1    3    3    0    0  0.27212755883E+01 -0.73804774698E+01 -0.37416962348E+01  0.87107450590E+01  0.51100000000E-03 0. -1.
        -11    1    3    3    0    0  0.57554198350E+01  0.12874510567E+02 -0.50775419819E+01  0.14988639453E+02  0.51100000000E-03 0.  1.
         12    1    3    3    0    0 -0.16431591052E+02  0.22209021207E+02  0.22456723262E+02  0.35602559278E+02  0.00000000000E+00 0. -1.
</event>
<event>
 7    1  0.1290195E-011  0.5930185E+02  0.7816164E-02  0.1266605E+00
        -11   -1    0    0    0    0  0.00000000000E+00  0.00000000000E+00  0.45593999997E+02  0.45594000000E+02  0.51100000000E-03 0.  1.
         11   -1    0    0    0    0 -0.00000000000E+00 -0.00000000000E+00 -0.45593999997E+02  0.45594000000E+02  0.51100000000E-03 0. -1.
    9900012    2    1    2    0    0  0.55024649016E+01  0.22390898161E+02  0.22024925821E+02  0.59301846299E+02  0.49999821765E+02 0.  0.
        -12    1    1    2    0    0 -0.55024649016E+01 -0.22390898161E+02 -0.22024925821E+02  0.31886153701E+02  0.00000000000E+00 0.  1.
         11    1    3    3    0    0  0.95653230361E+01 -0.54981453115E+01  0.66755062606E+01  0.12895246828E+02  0.51100000000E-03 0. -1.
        -11    1    3    3    0    0  0.12743444377E+02  0.20525290741E+01  0.33849145163E+01  0.13344133420E+02  0.51100000000E-03 0.  1.
        -12    1    3    3    0    0 -0.16806302512E+02  0.25836514399E+02  0.11964505044E+02  0.33062466050E+02  0.00000000000E+00 0.  1.
</event>
<event>
 7    1  0.1290195E-011  0.5930194E+02  0.7816164E-02  0.1266605E+00
        -11   -1    0    0    0    0  0.00000000000E+00  0.00000000000E+00  0.45593999997E+02  0.45594000000E+02  0.51100000000E-03 0.  1.
         11   -1    0    0    0    0 -0.00000000000E+00 -0.00000000000E+00 -0.45593999997E+02  0.45594000000E+02  0.51100000000E-03 0. -1.
    9900012    2    1    2    0    0  0.22343401818E+02  0.14377401985E+02 -0.17629051006E+02  0.59301941416E+02  0.49999995237E+02 0.  0.
        -12    1    1    2    0    0 -0.22343401818E+02 -0.14377401985E+02  0.17629051006E+02  0.31886058584E+02  0.00000000000E+00 0.  1.
         11    1    3    3    0    0  0.18460509192E+01 -0.93809216866E+00  0.37731961651E+01  0.43040597666E+01  0.51100000000E-03 0. -1.
        -11    1    3    3    0    0 -0.55672862871E+01  0.76790912660E+01  0.97947069509E+01  0.13634493162E+02  0.51100000000E-03 0.  1.
         12    1    3    3    0    0  0.26064637186E+02  0.76364028879E+01 -0.31196954122E+02  0.41363388487E+02  0.00000000000E+00 0. -1.
</event>
<event>
 7    1  0.1290195E-011  0.5930194E+02  0.7816164E-02  0.1266605E+00
        -11   -1    0    0    0    0  0.00000000000E+00  0.00000000000E+00  0.45593999997E+02  0.45594000000E+02  0.51100000000E-03 0. -1.
         11   -1    0    0    0    0 -0.00000000000E+00 -0.00000000000E+00 -0.45593999997E+02  0.45594000000E+02  0.51100000000E-03 0.  1.
    9900012    2    1    2    0    0 -0.45156917404E+01  0.26114404884E+02  0.17730398131E+02  0.59301942982E+02  0.49999998092E+02 0.  0.
        -12    1    1    2    0    0  0.45156917404E+01 -0.26114404884E+02 -0.17730398131E+02  0.31886057018E+02  0.00000000000E+00 0.  1.
         11    1    3    3    0    0  0.68763631237E+01  0.13629287745E+02  0.29721350518E+01  0.15552345201E+02  0.51100000000E-03 0. -1.
        -11    1    3    3    0    0 -0.12671344203E+02  0.24819613413E+02  0.14343837925E+02  0.31342014303E+02  0.51100000000E-03 0.  1.
        -12    1    3    3    0    0  0.12792893387E+01 -0.12334496274E+02  0.41442515404E+00  0.12407583478E+02  0.00000000000E+00 0.  1.
</event>
<event>
 7    1  0.1290195E-011  0.5930196E+02  0.7816164E-02  0.1266605E+00
        -11   -1    0    0    0    0  0.00000000000E+00  0.00000000000E+00  0.45593999997E+02  0.45594000000E+02  0.51100000000E-03 0. -1.
         11   -1    0    0    0    0 -0.00000000000E+00 -0.00000000000E+00 -0.45593999997E+02  0.45594000000E+02  0.51100000000E-03 0.  1.
    9900012    2    1    2    0    0 -0.95961554411E+01  0.28985611831E+02 -0.91906452605E+01  0.59301955204E+02  0.50000020382E+02 0.  0.
        -12    1    1    2    0    0  0.95961554411E+01 -0.28985611831E+02  0.91906452605E+01  0.31886044796E+02  0.00000000000E+00 0.  1.
         11    1    3    3    0    0  0.31561589880E+01  0.76857829309E+01  0.74067160107E+01  0.11130680174E+02  0.51100000000E-03 0. -1.
        -11    1    3    3    0    0  0.12058455789E+02  0.31482725261E+01 -0.11600415315E+02  0.17026086211E+02  0.51100000000E-03 0.  1.
        -12    1    3    3    0    0 -0.24810770219E+02  0.18151556374E+02 -0.49969459564E+01  0.31145188818E+02  0.00000000000E+00 0.  1.
</event>
<event>
 7    1  0.1290195E-011  0.5930194E+02  0.7816164E-02  0.1266605E+00
        -11   -1    0    0    0    0  0.00000000000E+00  0.00000000000E+00  0.45593999997E+02  0.45594000000E+02  0.51100000000E-03 0.  1.
         11   -1    0    0    0    0 -0.00000000000E+00 -0.00000000000E+00 -0.45593999997E+02  0.45594000000E+02  0.51100000000E-03 0. -1.
    9900012    2    1    2    0    0 -0.27684723959E+01  0.17315304720E+02 -0.26631495378E+02  0.59301940930E+02  0.49999994351E+02 0.  0.
        -12    1    1    2    0    0  0.27684723959E+01 -0.17315304720E+02  0.26631495378E+02  0.31886059070E+02  0.00000000000E+00 0.  1.
         11    1    3    3    0    0  0.94016281556E+00 -0.10187893144E+02 -0.37829259206E+01  0.10908143821E+02  0.51100000000E-03 0. -1.
        -11    1    3    3    0    0  0.87878594286E+01  0.69042598875E+01  0.44095032984E+01  0.12014116594E+02  0.51100000000E-03 0.  1.
         12    1    3    3    0    0 -0.12496494640E+02  0.20598937976E+02 -0.27258072756E+02  0.36379680515E+02  0.00000000000E+00 0. -1.
</event>
<event>
 7    1  0.1290195E-011  0.5930195E+02  0.7816164E-02  0.1266605E+00
        -11   -1    0    0    0    0  0.00000000000E+00  0.00000000000E+00  0.45593999997E+02  0.45594000000E+02  0.51100000000E-03 0. -1.
         11   -1    0    0    0    0 -0.00000000000E+00 -0.00000000000E+00 -0.45593999997E+02  0.45594000000E+02  0.51100000000E-03 0.  1.
    9900012    2    1    2    0    0  0.28978339081E+02  0.66459804788E+01  0.11524188686E+02  0.59301951055E+02  0.50000012816E+02 0.  0.
        -12    1    1    2    0    0 -0.28978339081E+02 -0.66459804788E+01 -0.11524188686E+02  0.31886048945E+02  0.00000000000E+00 0.  1.
         11    1    3    3    0    0  0.23889749521E+02 -0.24726746398E+01 -0.30829411002E+01  0.24214433261E+02  0.51100000000E-03 0. -1.
        -11    1    3    3    0    0  0.11466815572E+01  0.12128924422E+02 -0.62192872140E+01  0.13678641013E+02  0.51100000000E-03 0.  1.
        -12    1    3    3    0    0  0.39419080033E+01 -0.30102693039E+01  0.20826417000E+02  0.21408876782E+02  0.00000000000E+00 0.  1.
</event>
<event>
 7    1  0.1290195E-011  0.5930194E+02  0.7816164E-02  0.1266605E+00
        -11   -1    0    0    0    0  0.00000000000E+00  0.00000000000E+00  0.45593999997E+02  0.45594000000E+02  0.51100000000E-03 0. -1.
         11   -1    0    0    0    0 -0.00000000000E+00 -0.00000000000E+00 -0.45593999997E+02  0.45594000000E+02  0.51100000000E-03 0.  1.
    9900012    2    1    2    0    0  0.30142239162E+02 -0.24817502982E+01 -0.10099856370E+02  0.59301940900E+02  0.49999994295E+02 0.  0.
        -12    1    1    2    0    0 -0.30142239162E+02  0.24817502982E+01  0.10099856370E+02  0.31886059100E+02  0.00000000000E+00 0.  1.
         11    1    3    3    0    0  0.11260594014E+02  0.24711403247E+01 -0.12866957876E+02  0.17276171952E+02  0.51100000000E-03 0. -1.
        -11    1    3    3    0    0 -0.34801240351E+01  0.53806552984E+01 -0.11785124516E+02  0.13414614227E+02  0.51100000000E-03 0.  1.
         12    1    3    3    0    0  0.22361769183E+02 -0.10333545921E+02  0.14552226022E+02  0.28611154721E+02  0.00000000000E+00 0. -1.
</event>
<event>
 7    1  0.1290195E-011  0.5930197E+02  0.7816164E-02  0.1266605E+00
        -11   -1    0    0    0    0  0.00000000000E+00  0.00000000000E+00  0.45593999997E+02  0.45594000000E+02  0.51100000000E-03 0. -1.
         11   -1    0    0    0    0 -0.00000000000E+00 -0.00000000000E+00 -0.45593999997E+02  0.45594000000E+02  0.51100000000E-03 0.  1.
    9900012    2    1    2    0    0  0.14809252701E+02  0.27937707351E+02  0.41096552544E+01  0.59301972905E+02  0.50000052664E+02 0.  0.
        -12    1    1    2    0    0 -0.14809252701E+02 -0.27937707351E+02 -0.41096552544E+01  0.31886027095E+02  0.00000000000E+00 0.  1.
         11    1    3    3    0    0  0.36349681319E+01 -0.68359456035E+01  0.16318919577E+02  0.18062399676E+02  0.51100000000E-03 0. -1.
        -11    1    3    3    0    0  0.51690922929E+01  0.19154334404E+01  0.42177066379E+00  0.55286789698E+01  0.51100000000E-03 0.  1.
         12    1    3    3    0    0  0.60051922766E+01  0.32858219514E+02 -0.12631034987E+02  0.35710894259E+02  0.00000000000E+00 0. -1.
</event>
<event>
 7    1  0.1290195E-011  0.5930193E+02  0.7816164E-02  0.1266605E+00
        -11   -1    0    0    0    0  0.00000000000E+00  0.00000000000E+00  0.45593999997E+02  0.45594000000E+02  0.51100000000E-03 0. -1.
         11   -1    0    0    0    0 -0.00000000000E+00 -0.00000000000E+00 -0.45593999997E+02  0.45594000000E+02  0.51100000000E-03 0.  1.
    9900012    2    1    2    0    0 -0.26745967194E+02 -0.17338559450E+02  0.86542226046E+00  0.59301931559E+02  0.49999977261E+02 0.  0.
        -12    1    1    2    0    0  0.26745967194E+02  0.17338559450E+02 -0.86542226046E+00  0.31886068441E+02  0.00000000000E+00 0.  1.
         11    1    3    3    0    0 -0.17361029324E+02 -0.14163253210E+02 -0.91252623318E+01  0.24192426368E+02  0.51100000000E-03 0. -1.
        -11    1    3    3    0    0 -0.29640405757E+01 -0.16135561519E+02 -0.17253566347E+01  0.16496021879E+02  0.51100000000E-03 0.  1.
         12    1    3    3    0    0 -0.64208972934E+01  0.12960255279E+02  0.11716041227E+02  0.18613483312E+02  0.00000000000E+00 0. -1.
</event>
<event>
 7    1  0.1290195E-011  0.5930198E+02  0.7816164E-02  0.1266605E+00
        -11   -1    0    0    0    0  0.00000000000E+00  0.00000000000E+00  0.45593999997E+02  0.45594000000E+02  0.51100000000E-03 0.  1.
         11   -1    0    0    0    0 -0.00000000000E+00 -0.00000000000E+00 -0.45593999997E+02  0.45594000000E+02  0.51100000000E-03 0. -1.
    9900012    2    1    2    0    0 -0.11277139319E+02  0.15244548006E+02 -0.25634895010E+02  0.59301984926E+02  0.50000074589E+02 0.  0.
        -12    1    1    2    0    0  0.11277139319E+02 -0.15244548006E+02  0.25634895010E+02  0.31886015074E+02  0.00000000000E+00 0.  1.
         11    1    3    3    0    0 -0.16712958406E+02 -0.27211624947E+01 -0.25154368973E+02  0.30322763440E+02  0.51100000000E-03 0. -1.
        -11    1    3    3    0    0  0.58724316529E+01  0.17474402283E+02 -0.89442651760E+01  0.20489999230E+02  0.51100000000E-03 0.  1.
        -12    1    3    3    0    0 -0.43661256605E+00  0.49130821794E+00  0.84637391390E+01  0.84892222560E+01  0.00000000000E+00 0.  1.
</event>
<event>
 7    1  0.1290195E-011  0.5930195E+02  0.7816164E-02  0.1266605E+00
        -11   -1    0    0    0    0  0.00000000000E+00  0.00000000000E+00  0.45593999997E+02  0.45594000000E+02  0.51100000000E-03 0. -1.
         11   -1    0    0    0    0 -0.00000000000E+00 -0.00000000000E+00 -0.45593999997E+02  0.45594000000E+02  0.51100000000E-03 0.  1.
    9900012    2    1    2    0    0 -0.25882376299E+02 -0.18541679133E+02  0.17403338038E+01  0.59301952429E+02  0.50000015321E+02 0.  0.
        -12    1    1    2    0    0  0.25882376299E+02  0.18541679133E+02 -0.17403338038E+01  0.31886047571E+02  0.00000000000E+00 0.  1.
         11    1    3    3    0    0 -0.17675053148E+02 -0.12037604037E+02  0.39042020434E+01  0.21738311999E+02  0.51100000000E-03 0. -1.
        -11    1    3    3    0    0 -0.65634032898E+01 -0.11044892280E+02 -0.17372207446E+02  0.21606978040E+02  0.51100000000E-03 0.  1.
         12    1    3    3    0    0 -0.16439198616E+01  0.45408171833E+01  0.15208339206E+02  0.15956662389E+02  0.00000000000E+00 0. -1.
</event>
<event>
 7    1  0.1290195E-011  0.5930196E+02  0.7816164E-02  0.1266605E+00
        -11   -1    0    0    0    0  0.00000000000E+00  0.00000000000E+00  0.45593999997E+02  0.45594000000E+02  0.51100000000E-03 0.  1.
         11   -1    0    0    0    0 -0.00000000000E+00 -0.00000000000E+00 -0.45593999997E+02  0.45594000000E+02  0.51100000000E-03 0. -1.
    9900012    2    1    2    0    0 -0.31172987063E+02 -0.45904028271E+01 -0.48879985867E+01  0.59301961507E+02  0.50000031878E+02 0.  0.
        -12    1    1    2    0    0  0.31172987063E+02  0.45904028271E+01  0.48879985867E+01  0.31886038493E+02  0.00000000000E+00 0.  1.
         11    1    3    3    0    0  0.16679369042E+01  0.11353489542E+02  0.91169087171E+01  0.14656116918E+02  0.51100000000E-03 0. -1.
        -11    1    3    3    0    0 -0.12592013720E+02  0.25015751834E+01  0.18911588255E+01  0.12976639392E+02  0.51100000000E-03 0.  1.
         12    1    3    3    0    0 -0.20248910247E+02 -0.18445467553E+02 -0.15896066129E+02  0.31669205197E+02  0.00000000000E+00 0. -1.
</event>
<event>
 7    1  0.1290195E-011  0.5930190E+02  0.7816164E-02  0.1266605E+00
        -11   -1    0    0    0    0  0.00000000000E+00  0.00000000000E+00  0.45593999997E+02  0.45594000000E+02  0.51100000000E-03 0.  1.
         11   -1    0    0    0    0 -0.00000000000E+00 -0.00000000000E+00 -0.45593999997E+02  0.45594000000E+02  0.51100000000E-03 0. -1.
    9900012    2    1    2    0    0  0.24394373039E+02  0.20532312676E+02  0.24857975300E+00  0.59301904414E+02  0.49999927754E+02 0.  0.
        -12    1    1    2    0    0 -0.24394373039E+02 -0.20532312676E+02 -0.24857975300E+00  0.31886095586E+02  0.00000000000E+00 0.  1.
         11    1    3    3    0    0 -0.11074077762E+02  0.10619968641E+02  0.71036375925E+01  0.16908004007E+02  0.51100000000E-03 0.  1.
        -11    1    3    3    0    0  0.76121023432E+01 -0.30527008173E+00 -0.99836496537E+01  0.12558286212E+02  0.51100000000E-03 0. -1.
        -12    1    3    3    0    0  0.27856348458E+02  0.10217614117E+02  0.31285918142E+01  0.29835614195E+02  0.00000000000E+00 0.  1.
</event>
<event>
 7    1  0.1290195E-011  0.5930195E+02  0.7816164E-02  0.1266605E+00
        -11   -1    0    0    0    0  0.00000000000E+00  0.00000000000E+00  0.45593999997E+02  0.45594000000E+02  0.51100000000E-03 0.  1.
         11   -1    0    0    0    0 -0.00000000000E+00 -0.00000000000E+00 -0.45593999997E+02  0.45594000000E+02  0.51100000000E-03 0. -1.
    9900012    2    1    2    0    0  0.16269511605E+02 -0.19343306538E+01 -0.27354735197E+02  0.59301950062E+02  0.50000011005E+02 0.  0.
        -12    1    1    2    0    0 -0.16269511605E+02  0.19343306538E+01  0.27354735197E+02  0.31886049938E+02  0.00000000000E+00 0.  1.
         11    1    3    3    0    0  0.77477635132E+01  0.54724833003E+01  0.15411444005E+01  0.96099448101E+01  0.51100000000E-03 0. -1.
        -11    1    3    3    0    0  0.13825089860E+02  0.13102505475E+02 -0.11252070936E+02  0.22122790511E+02  0.51100000000E-03 0.  1.
         12    1    3    3    0    0 -0.53033417682E+01 -0.20509319429E+02 -0.17643808661E+02  0.27569214741E+02  0.00000000000E+00 0. -1.
</event>
<event>
 7    1  0.1290195E-011  0.5930186E+02  0.7816164E-02  0.1266605E+00
        -11   -1    0    0    0    0  0.00000000000E+00  0.00000000000E+00  0.45593999997E+02  0.45594000000E+02  0.51100000000E-03 0.  1.
         11   -1    0    0    0    0 -0.00000000000E+00 -0.00000000000E+00 -0.45593999997E+02  0.45594000000E+02  0.51100000000E-03 0. -1.
    9900012    2    1    2    0    0 -0.12766780380E+02 -0.63581920801E+01 -0.28518567640E+02  0.59301858997E+02  0.49999844924E+02 0.  0.
        -12    1    1    2    0    0  0.12766780380E+02  0.63581920801E+01  0.28518567640E+02  0.31886141003E+02  0.00000000000E+00 0.  1.
         11    1    3    3    0    0  0.36964198677E+01 -0.57718680170E+01 -0.30702607991E+02  0.31458355297E+02  0.51100000000E-03 0. -1.
        -11    1    3    3    0    0 -0.17107238874E+02  0.42940197943E+01 -0.57110436185E+01  0.18539478077E+02  0.51100000000E-03 0.  1.
        -12    1    3    3    0    0  0.64403862633E+00 -0.48803438574E+01  0.78950839695E+01  0.93040256236E+01  0.00000000000E+00 0.  1.
</event>
<event>
 7    1  0.1290195E-011  0.5930196E+02  0.7816164E-02  0.1266605E+00
        -11   -1    0    0    0    0  0.00000000000E+00  0.00000000000E+00  0.45593999997E+02  0.45594000000E+02  0.51100000000E-03 0.  1.
         11   -1    0    0    0    0 -0.00000000000E+00 -0.00000000000E+00 -0.45593999997E+02  0.45594000000E+02  0.51100000000E-03 0. -1.
    9900012    2    1    2    0    0  0.16839718569E+02  0.35616750838E+01 -0.26841342653E+02  0.59301963459E+02  0.50000035438E+02 0.  0.
        -12    1    1    2    0    0 -0.16839718569E+02 -0.35616750838E+01  0.26841342653E+02  0.31886036541E+02  0.00000000000E+00 0.  1.
         11    1    3    3    0    0  0.15935352396E+02  0.12592376353E+02 -0.36383602319E+01  0.20633493734E+02  0.51100000000E-03 0. -1.
        -11    1    3    3    0    0 -0.11525304950E+02  0.35489308357E+01 -0.14794242488E+02  0.19086570548E+02  0.51100000000E-03 0.  1.
        -12    1    3    3    0    0  0.12429671122E+02 -0.12579632105E+02 -0.84087399334E+01  0.19581899177E+02  0.00000000000E+00 0.  1.
</event>
<event>
 7    1  0.1290195E-011  0.5930195E+02  0.7816164E-02  0.1266605E+00
        -11   -1    0    0    0    0  0.00000000000E+00  0.00000000000E+00  0.45593999997E+02  0.45594000000E+02  0.51100000000E-03 0. -1.
         11   -1    0    0    0    0 -0.00000000000E+00 -0.00000000000E+00 -0.45593999997E+02  0.45594000000E+02  0.51100000000E-03 0.  1.
    9900012    2    1    2    0    0 -0.77294484949E+01  0.60625408819E+01  0.30335154397E+02  0.59301947120E+02  0.50000005639E+02 0.  0.
        -12    1    1    2    0    0  0.77294484949E+01 -0.60625408819E+01 -0.30335154397E+02  0.31886052880E+02  0.00000000000E+00 0.  1.
         11    1    3    3    0    0 -0.11163335799E+01 -0.21464988064E+00  0.31915656793E+02  0.31935895542E+02  0.51100000000E-03 0. -1.
        -11    1    3    3    0    0 -0.51496008250E+01  0.16345852338E+02 -0.66999294529E+00  0.17150923244E+02  0.51100000000E-03 0.  1.
        -12    1    3    3    0    0 -0.14635140900E+01 -0.10068661576E+02 -0.91050945069E+00  0.10215128334E+02  0.00000000000E+00 0.  1.
</event>
<event>
 7    1  0.1290195E-011  0.5930195E+02  0.7816164E-02  0.1266605E+00
        -11   -1    0    0    0    0  0.00000000000E+00  0.00000000000E+00  0.45593999997E+02  0.45594000000E+02  0.51100000000E-03 0. -1.
         11   -1    0    0    0    0 -0.00000000000E+00 -0.00000000000E+00 -0.45593999997E+02  0.45594000000E+02  0.51100000000E-03 0.  1.
    9900012    2    1    2    0    0 -0.19746518556E+02  0.22564798665E+01  0.24933988516E+02  0.59301945372E+02  0.50000002451E+02 0.  0.
        -12    1    1    2    0    0  0.19746518556E+02 -0.22564798665E+01 -0.24933988516E+02  0.31886054628E+02  0.00000000000E+00 0.  1.
         11    1    3    3    0    0 -0.18340170798E+02  0.60059389592E+01  0.54710091919E+01  0.20059040593E+02  0.51100000000E-03 0. -1.
        -11    1    3    3    0    0 -0.74330599735E+00  0.11686138595E+02 -0.28986019480E+01  0.12063176720E+02  0.51100000000E-03 0.  1.
         12    1    3    3    0    0 -0.66304176060E+00 -0.15435597688E+02  0.22361581272E+02  0.27179728058E+02  0.00000000000E+00 0. -1.
</event>
<event>
 7    1  0.1290195E-011  0.5930188E+02  0.7816164E-02  0.1266605E+00
        -11   -1    0    0    0    0  0.00000000000E+00  0.00000000000E+00  0.45593999997E+02  0.45594000000E+02  0.51100000000E-03 0.  1.
         11   -1    0    0    0    0 -0.00000000000E+00 -0.00000000000E+00 -0.45593999997E+02  0.45594000000E+02  0.51100000000E-03 0. -1.
    9900012    2    1    2    0    0 -0.20720802713E+00  0.25130866883E+02 -0.19624503832E+02  0.59301881452E+02  0.49999885876E+02 0.  0.
        -12    1    1    2    0    0  0.20720802713E+00 -0.25130866883E+02  0.19624503832E+02  0.31886118548E+02  0.00000000000E+00 0.  1.
         11    1    3    3    0    0 -0.38445848842E+01  0.24339359425E+02 -0.72153740400E+01  0.25675803258E+02  0.51100000000E-03 0. -1.
        -11    1    3    3    0    0 -0.28762373780E+01  0.75926519684E+01  0.78448020850E+01  0.11289908121E+02  0.51100000000E-03 0.  1.
         12    1    3    3    0    0  0.65136142351E+01 -0.68011445105E+01 -0.20253931877E+02  0.22336170073E+02  0.00000000000E+00 0. -1.
</event>
<event>
 7    1  0.1290195E-011  0.5930195E+02  0.7816164E-02  0.1266605E+00
        -11   -1    0    0    0    0  0.00000000000E+00  0.00000000000E+00  0.45593999997E+02  0.45594000000E+02  0.51100000000E-03 0.  1.
         11   -1    0    0    0    0 -0.00000000000E+00 -0.00000000000E+00 -0.45593999997E+02  0.45594000000E+02  0.51100000000E-03 0. -1.
    9900012    2    1    2    0    0 -0.26188389325E+02  0.17851544072E+02 -0.34944130403E+01  0.59301948446E+02  0.50000008059E+02 0.  0.
        -12    1    1    2    0    0  0.26188389325E+02 -0.17851544072E+02  0.34944130403E+01  0.31886051554E+02  0.00000000000E+00 0.  1.
         11    1    3    3    0    0 -0.16512594176E+02  0.16696672031E+01  0.58692564746E+01  0.17604025870E+02  0.51100000000E-03 0. -1.
        -11    1    3    3    0    0 -0.43452071073E+01 -0.69780602572E+01 -0.15151504703E+02  0.17237814385E+02  0.51100000000E-03 0.  1.
         12    1    3    3    0    0 -0.53305880410E+01  0.23159937126E+02  0.57878351880E+01  0.24460108191E+02  0.00000000000E+00 0. -1.
</event>
<event>
 7    1  0.1290195E-011  0.5930196E+02  0.7816164E-02  0.1266605E+00
        -11   -1    0    0    0    0  0.00000000000E+00  0.00000000000E+00  0.45593999997E+02  0.45594000000E+02  0.51100000000E-03 0. -1.
         11   -1    0    0    0    0 -0.00000000000E+00 -0.00000000000E+00 -0.45593999997E+02  0.45594000000E+02  0.51100000000E-03 0.  1.
    9900012    2    1    2    0    0 -0.20532760274E+02  0.12663405183E+02  0.20850986824E+02  0.59301957178E+02  0.50000023983E+02 0.  0.
        -12    1    1    2    0    0  0.20532760274E+02 -0.12663405183E+02 -0.20850986824E+02  0.31886042822E+02  0.00000000000E+00 0.  1.
         11    1    3    3    0    0 -0.11062947538E+02  0.93597424087E+01  0.22887637845E+02  0.27089436181E+02  0.51100000000E-03 0. -1.
        -11    1    3    3    0    0 -0.17792729549E+02  0.10911452734E+02 -0.13280308987E+01  0.20914222239E+02  0.51100000000E-03 0.  1.
         12    1    3    3    0    0  0.83229168130E+01 -0.76077899592E+01 -0.70862012241E+00  0.11298298758E+02  0.00000000000E+00 0. -1.
</event>
<event>
 7    1  0.1290195E-011  0.5930194E+02  0.7816164E-02  0.1266605E+00
        -11   -1    0    0    0    0  0.00000000000E+00  0.00000000000E+00  0.45593999997E+02  0.45594000000E+02  0.51100000000E-03 0. -1.
         11   -1    0    0    0    0 -0.00000000000E+00 -0.00000000000E+00 -0.45593999997E+02  0.45594000000E+02  0.51100000000E-03 0.  1.
    9900012    2    1    2    0    0 -0.19627785127E+01 -0.15062126814E+02  0.28035699947E+02  0.59301942934E+02  0.49999998006E+02 0.  0.
        -12    1    1    2    0    0  0.19627785127E+01  0.15062126814E+02 -0.28035699947E+02  0.31886057066E+02  0.00000000000E+00 0.  1.
         11    1    3    3    0    0  0.11722606007E+02 -0.10656689427E+02  0.80115086688E+01  0.17752993903E+02  0.51100000000E-03 0. -1.
        -11    1    3    3    0    0 -0.76934551252E+01 -0.13746715904E+02 -0.29571341000E+01  0.16028290372E+02  0.51100000000E-03 0.  1.
        -12    1    3    3    0    0 -0.59919293944E+01  0.93412785168E+01  0.22981325379E+02  0.25520658658E+02  0.00000000000E+00 0.  1.
</event>
<event>
 7    1  0.1290195E-011  0.5930184E+02  0.7816164E-02  0.1266605E+00
        -11   -1    0    0    0    0  0.00000000000E+00  0.00000000000E+00  0.45593999997E+02  0.45594000000E+02  0.51100000000E-03 0.  1.
         11   -1    0    0    0    0 -0.00000000000E+00 -0.00000000000E+00 -0.45593999997E+02  0.45594000000E+02  0.51100000000E-03 0. -1.
    9900012    2    1    2    0    0 -0.30255792616E+02  0.88113446889E+01  0.48656422045E+01  0.59301839113E+02  0.49999808660E+02 0.  0.
        -12    1    1    2    0    0  0.30255792616E+02 -0.88113446889E+01 -0.48656422045E+01  0.31886160887E+02  0.00000000000E+00 0.  1.
         11    1    3    3    0    0  0.47715914819E+01  0.82198838909E+00  0.46933067179E+01  0.67432097988E+01  0.51100000000E-03 0. -1.
        -11    1    3    3    0    0  0.33090524522E+01 -0.19644079532E+01  0.10870613928E+02  0.11531650973E+02  0.51100000000E-03 0.  1.
        -12    1    3    3    0    0 -0.38336436550E+02  0.99537642530E+01 -0.10698278441E+02  0.41026978341E+02  0.00000000000E+00 0.  1.
</event>
<event>
 7    1  0.1290195E-011  0.5930199E+02  0.7816164E-02  0.1266605E+00
        -11   -1    0    0    0    0  0.00000000000E+00  0.00000000000E+00  0.45593999997E+02  0.45594000000E+02  0.51100000000E-03 0.  1.
         11   -1    0    0    0    0 -0.00000000000E+00 -0.00000000000E+00 -0.45593999997E+02  0.45594000000E+02  0.51100000000E-03 0. -1.
    9900012    2    1    2    0    0 -0.22346583968E+02  0.53559691270E+01 -0.22105691208E+02  0.59301987328E+02  0.50000078968E+02 0.  0.
        -12    1    1    2    0    0  0.22346583968E+02 -0.53559691270E+01  0.22105691208E+02  0.31886012672E+02  0.00000000000E+00 0.  1.
         11    1    3    3    0    0  0.25474947808E-02  0.72327150906E+01  0.43557429476E+01  0.84430249886E+01  0.51100000000E-03 0. -1.
        -11    1    3    3    0    0 -0.44895735455E+01 -0.44463255071E+01 -0.31498164629E+02  0.32125697757E+02  0.51100000000E-03 0.  1.
         12    1    3    3    0    0 -0.17859557918E+02  0.25695795434E+01  0.50367304727E+01  0.18733264582E+02  0.00000000000E+00 0. -1.
</event>
<event>
 7    1  0.1310635E-011  0.5930194E+02  0.7816164E-02  0.1266605E+00
        -11   -1    0    0    0    0  0.00000000000E+00  0.00000000000E+00  0.45593999997E+02  0.45594000000E+02  0.51100000000E-03 0. -1.
         11   -1    0    0    0    0 -0.00000000000E+00 -0.00000000000E+00 -0.45593999997E+02  0.45594000000E+02  0.51100000000E-03 0.  1.
    9900012    2    1    2    0    0  0.26529582800E+02 -0.13094325679E+02  0.11892891762E+02  0.59301937167E+02  0.49999987488E+02 0.  0.
        -12    1    1    2    0    0 -0.26529582800E+02  0.13094325679E+02 -0.11892891762E+02  0.31886062833E+02  0.00000000000E+00 0.  1.
         11    1    3    3    0    0  0.10457860236E+02 -0.25198056358E+02  0.18299855912E+02  0.32851082350E+02  0.51100000000E-03 0. -1.
        -11    1    3    3    0    0  0.14564440898E+01  0.35191044943E+01 -0.85557945956E+01  0.93651987300E+01  0.51100000000E-03 0.  1.
        -12    1    3    3    0    0  0.14615278475E+02  0.85846261848E+01  0.21488304452E+01  0.17085656087E+02  0.00000000000E+00 0.  1.
</event>
<event>
 7    1  0.1290195E-011  0.5930193E+02  0.7816164E-02  0.1266605E+00
        -11   -1    0    0    0    0  0.00000000000E+00  0.00000000000E+00  0.45593999997E+02  0.45594000000E+02  0.51100000000E-03 0.  1.
         11   -1    0    0    0    0 -0.00000000000E+00 -0.00000000000E+00 -0.45593999997E+02  0.45594000000E+02  0.51100000000E-03 0. -1.
    9900012    2    1    2    0    0 -0.97540850928E+01 -0.15196879252E+02 -0.26279913304E+02  0.59301934732E+02  0.49999983046E+02 0.  0.
        -12    1    1    2    0    0  0.97540850928E+01  0.15196879252E+02  0.26279913304E+02  0.31886065268E+02  0.00000000000E+00 0.  1.
         11    1    3    3    0    0  0.24074507571E+01 -0.17041007072E+01  0.86971963797E+01  0.91837358137E+01  0.51100000000E-03 0. -1.
        -11    1    3    3    0    0  0.22763003377E+01 -0.86149124038E+01  0.28348913810E+01  0.93506613860E+01  0.51100000000E-03 0.  1.
         12    1    3    3    0    0 -0.14437836188E+02 -0.48778661413E+01 -0.37812001065E+02  0.40767537532E+02  0.00000000000E+00 0. -1.
</event>
<event>
 7    1  0.1290195E-011  0.5930222E+02  0.7816164E-02  0.1266604E+00
        -11   -1    0    0    0    0  0.00000000000E+00  0.00000000000E+00  0.45593999997E+02  0.45594000000E+02  0.51100000000E-03 0.  1.
         11   -1    0    0    0    0 -0.00000000000E+00 -0.00000000000E+00 -0.45593999997E+02  0.45594000000E+02  0.51100000000E-03 0. -1.
    9900012    2    1    2    0    0  0.25553940550E+02  0.99123620661E+01 -0.16292464185E+02  0.59302216513E+02  0.50000496945E+02 0.  0.
        -12    1    1    2    0    0 -0.25553940550E+02 -0.99123620661E+01  0.16292464185E+02  0.31885783487E+02  0.00000000000E+00 0.  1.
         11    1    3    3    0    0  0.14039138423E+02  0.17204403100E+02 -0.23492435609E+02  0.32326203377E+02  0.51100000000E-03 0. -1.
        -11    1    3    3    0    0  0.98043635228E+01  0.48453036324E+01  0.95220136629E+01  0.14500732941E+02  0.51100000000E-03 0.  1.
        -12    1    3    3    0    0  0.17104386047E+01 -0.12137344666E+02 -0.23220422391E+01  0.12475280194E+02  0.00000000000E+00 0.  1.
</event>
<event>
 7    1  0.1290195E-011  0.5930194E+02  0.7816164E-02  0.1266605E+00
        -11   -1    0    0    0    0  0.00000000000E+00  0.00000000000E+00  0.45593999997E+02  0.45594000000E+02  0.51100000000E-03 0.  1.
         11   -1    0    0    0    0 -0.00000000000E+00 -0.00000000000E+00 -0.45593999997E+02  0.45594000000E+02  0.51100000000E-03 0. -1.
    9900012    2    1    2    0    0  0.27265990887E+02  0.16526341422E+02 -0.40809401519E+00  0.59301940968E+02  0.49999994420E+02 0.  0.
        -12    1    1    2    0    0 -0.27265990887E+02 -0.16526341422E+02  0.40809401519E+00  0.31886059032E+02  0.00000000000E+00 0.  1.
         11    1    3    3    0    0  0.41678949318E+00 -0.62770821998E+00 -0.58045530215E+00  0.95113601024E+00  0.51100000000E-03 0. -1.
        -11    1    3    3    0    0 -0.14533769078E+01  0.14106170906E+02  0.19377282835E+02  0.24011985599E+02  0.51100000000E-03 0.  1.
         12    1    3    3    0    0  0.28302578302E+02  0.30478787359E+01 -0.19204921548E+02  0.34338819359E+02  0.00000000000E+00 0. -1.
</event>
<event>
 7    1  0.1290195E-011  0.5930193E+02  0.7816164E-02  0.1266605E+00
        -11   -1    0    0    0    0  0.00000000000E+00  0.00000000000E+00  0.45593999997E+02  0.45594000000E+02  0.51100000000E-03 0.  1.
         11   -1    0    0    0    0 -0.00000000000E+00 -0.00000000000E+00 -0.45593999997E+02  0.45594000000E+02  0.51100000000E-03 0. -1.
    9900012    2    1    2    0    0  0.21784575337E+02  0.68926309914E+01 -0.22240617439E+02  0.59301934883E+02  0.49999983322E+02 0.  0.
        -12    1    1    2    0    0 -0.21784575337E+02 -0.68926309914E+01  0.22240617439E+02  0.31886065117E+02  0.00000000000E+00 0.  1.
         11    1    3    3    0    0 -0.79858816667E+01  0.78479870337E+01 -0.43481978142E+01  0.12011329276E+02  0.51100000000E-03 0. -1.
        -11    1    3    3    0    0 -0.68841741083E+01  0.46384039970E+00 -0.12599662996E+01  0.70138802675E+01  0.51100000000E-03 0.  1.
         12    1    3    3    0    0  0.36654631112E+02 -0.14191964420E+01 -0.16632453325E+02  0.40276725340E+02  0.00000000000E+00 0. -1.
</event>
<event>
 7    1  0.1290195E-011  0.5930194E+02  0.7816164E-02  0.1266605E+00
        -11   -1    0    0    0    0  0.00000000000E+00  0.00000000000E+00  0.45593999997E+02  0.45594000000E+02  0.51100000000E-03 0.  1.
         11   -1    0    0    0    0 -0.00000000000E+00 -0.00000000000E+00 -0.45593999997E+02  0.45594000000E+02  0.51100000000E-03 0. -1.
    9900012    2    1    2    0    0 -0.10051869968E+02  0.22777190349E+02 -0.19921857551E+02  0.59301938808E+02  0.49999990481E+02 0.  0.
        -12    1    1    2    0    0  0.10051869968E+02 -0.22777190349E+02  0.19921857551E+02  0.31886061192E+02  0.00000000000E+00 0.  1.
         11    1    3    3    0    0 -0.13192002111E+01 -0.68828750432E+01 -0.21254107101E+02  0.22379707929E+02  0.51100000000E-03 0. -1.
        -11    1    3    3    0    0  0.10072709444E+01  0.21190772821E+01 -0.63053738912E+01  0.67277651157E+01  0.51100000000E-03 0.  1.
        -12    1    3    3    0    0 -0.97399407008E+01  0.27540988110E+02  0.76376234412E+01  0.30194465764E+02  0.00000000000E+00 0.  1.
</event>
<event>
 7    1  0.1290195E-011  0.5930196E+02  0.7816164E-02  0.1266605E+00
        -11   -1    0    0    0    0  0.00000000000E+00  0.00000000000E+00  0.45593999997E+02  0.45594000000E+02  0.51100000000E-03 0. -1.
         11   -1    0    0    0    0 -0.00000000000E+00 -0.00000000000E+00 -0.45593999997E+02  0.45594000000E+02  0.51100000000E-03 0.  1.
    9900012    2    1    2    0    0  0.12527588199E+02 -0.18450579066E+02  0.22789369754E+02  0.59301957477E+02  0.50000024529E+02 0.  0.
        -12    1    1    2    0    0 -0.12527588199E+02  0.18450579066E+02 -0.22789369754E+02  0.31886042523E+02  0.00000000000E+00 0.  1.
         11    1    3    3    0    0 -0.15565560625E+01 -0.17013288137E+02  0.25002147007E+01  0.17266323112E+02  0.51100000000E-03 0. -1.
        -11    1    3    3    0    0  0.41436919658E+01 -0.17459634375E+02  0.92950563955E+01  0.20209084325E+02  0.51100000000E-03 0.  1.
        -12    1    3    3    0    0  0.99404522960E+01  0.16022343446E+02  0.10994098658E+02  0.21826550040E+02  0.00000000000E+00 0.  1.
</event>
<event>
 7    1  0.1290195E-011  0.5930192E+02  0.7816164E-02  0.1266605E+00
        -11   -1    0    0    0    0  0.00000000000E+00  0.00000000000E+00  0.45593999997E+02  0.45594000000E+02  0.51100000000E-03 0.  1.
         11   -1    0    0    0    0 -0.00000000000E+00 -0.00000000000E+00 -0.45593999997E+02  0.45594000000E+02  0.51100000000E-03 0. -1.
    9900012    2    1    2    0    0 -0.16550794158E+02 -0.18581320215E+02 -0.19938092789E+02  0.59301924790E+02  0.49999964916E+02 0.  0.
        -12    1    1    2    0    0  0.16550794158E+02  0.18581320215E+02  0.19938092789E+02  0.31886075210E+02  0.00000000000E+00 0.  1.
         11    1    3    3    0    0  0.26053848039E+01 -0.53121205564E+01  0.56472554028E+01  0.81791288429E+01  0.51100000000E-03 0. -1.
        -11    1    3    3    0    0 -0.11698246454E+02 -0.68717462576E+01  0.82573721883E+01  0.15882508065E+02  0.51100000000E-03 0.  1.
         12    1    3    3    0    0 -0.74579325083E+01 -0.63974534013E+01 -0.33842720380E+02  0.35240287882E+02  0.00000000000E+00 0. -1.
</event>
<event>
 7    1  0.1290195E-011  0.5930195E+02  0.7816164E-02  0.1266605E+00
        -11   -1    0    0    0    0  0.00000000000E+00  0.00000000000E+00  0.45593999997E+02  0.45594000000E+02  0.51100000000E-03 0.  1.
         11   -1    0    0    0    0 -0.00000000000E+00 -0.00000000000E+00 -0.45593999997E+02  0.45594000000E+02  0.51100000000E-03 0. -1.
    9900012    2    1    2    0    0 -0.12746814394E+02 -0.14978081064E+02 -0.25097728356E+02  0.59301950414E+02  0.50000011647E+02 0.  0.
        -12    1    1    2    0    0  0.12746814394E+02  0.14978081064E+02  0.25097728356E+02  0.31886049586E+02  0.00000000000E+00 0.  1.
         11    1    3    3    0    0 -0.11939481291E+02 -0.19960797282E+02 -0.27853455304E+02  0.36287733661E+02  0.51100000000E-03 0. -1.
        -11    1    3    3    0    0  0.84105289029E+01 -0.43507863976E+01  0.28735506993E+01  0.98956370481E+01  0.51100000000E-03 0.  1.
        -12    1    3    3    0    0 -0.92178620063E+01  0.93335026157E+01 -0.11782375142E+00  0.13118579705E+02  0.00000000000E+00 0.  1.
</event>
<event>
 7    1  0.1290195E-011  0.5930195E+02  0.7816164E-02  0.1266605E+00
        -11   -1    0    0    0    0  0.00000000000E+00  0.00000000000E+00  0.45593999997E+02  0.45594000000E+02  0.51100000000E-03 0. -1.
         11   -1    0    0    0    0 -0.00000000000E+00 -0.00000000000E+00 -0.45593999997E+02  0.45594000000E+02  0.51100000000E-03 0.  1.
    9900012    2    1    2    0    0 -0.22616084816E+02  0.22275198379E+02  0.30080358570E+01  0.59301952347E+02  0.50000015173E+02 0.  0.
        -12    1    1    2    0    0  0.22616084816E+02 -0.22275198379E+02 -0.30080358570E+01  0.31886047653E+02  0.00000000000E+00 0.  1.
         11    1    3    3    0    0 -0.84992130010E+01 -0.11493818735E+02  0.39606577363E+01  0.14833452084E+02  0.51100000000E-03 0.  1.
        -11    1    3    3    0    0 -0.45233691118E+01  0.28316836391E+02  0.85316849909E+01  0.29918117260E+02  0.51100000000E-03 0. -1.
        -12    1    3    3    0    0 -0.95935027029E+01  0.54521807227E+01 -0.94843068702E+01  0.14550383004E+02  0.00000000000E+00 0.  1.
</event>
<event>
 7    1  0.1290195E-011  0.5930192E+02  0.7816164E-02  0.1266605E+00
        -11   -1    0    0    0    0  0.00000000000E+00  0.00000000000E+00  0.45593999997E+02  0.45594000000E+02  0.51100000000E-03 0.  1.
         11   -1    0    0    0    0 -0.00000000000E+00 -0.00000000000E+00 -0.45593999997E+02  0.45594000000E+02  0.51100000000E-03 0. -1.
    9900012    2    1    2    0    0  0.22602727905E+01 -0.21676667765E+02 -0.23275213691E+02  0.59301916346E+02  0.49999949515E+02 0.  0.
        -12    1    1    2    0    0 -0.22602727905E+01  0.21676667765E+02  0.23275213691E+02  0.31886083654E+02  0.00000000000E+00 0.  1.
         11    1    3    3    0    0  0.26853059978E+01  0.44155725722E+01 -0.34389087879E+01  0.62075956178E+01  0.51100000000E-03 0. -1.
        -11    1    3    3    0    0  0.17460483665E+01  0.11367958144E+02 -0.25481910838E+01  0.11780171277E+02  0.51100000000E-03 0.  1.
         12    1    3    3    0    0 -0.21710815738E+01 -0.37460198481E+02 -0.17288113819E+02  0.41314149451E+02  0.00000000000E+00 0. -1.
</event>
<event>
 7    1  0.1290195E-011  0.5930195E+02  0.7816164E-02  0.1266605E+00
        -11   -1    0    0    0    0  0.00000000000E+00  0.00000000000E+00  0.45593999997E+02  0.45594000000E+02  0.51100000000E-03 0.  1.
         11   -1    0    0    0    0 -0.00000000000E+00 -0.00000000000E+00 -0.45593999997E+02  0.45594000000E+02  0.51100000000E-03 0. -1.
    9900012    2    1    2    0    0  0.12094774357E+02  0.15024327830E+01 -0.29464887574E+02  0.59301945513E+02  0.50000002708E+02 0.  0.
        -12    1    1    2    0    0 -0.12094774357E+02 -0.15024327830E+01  0.29464887574E+02  0.31886054487E+02  0.00000000000E+00 0.  1.
         11    1    3    3    0    0  0.52808470182E+01 -0.21382910445E+01 -0.20279654344E+02  0.21064757639E+02  0.51100000000E-03 0. -1.
        -11    1    3    3    0    0 -0.14448708067E+02  0.57562980308E+01 -0.19350763981E+01  0.15673054991E+02  0.51100000000E-03 0.  1.
         12    1    3    3    0    0  0.21262635406E+02 -0.21155742033E+01 -0.72501568318E+01  0.22564132882E+02  0.00000000000E+00 0. -1.
</event>
<event>
 7    1  0.1290195E-011  0.5930193E+02  0.7816164E-02  0.1266605E+00
        -11   -1    0    0    0    0  0.00000000000E+00  0.00000000000E+00  0.45593999997E+02  0.45594000000E+02  0.51100000000E-03 0. -1.
         11   -1    0    0    0    0 -0.00000000000E+00 -0.00000000000E+00 -0.45593999997E+02  0.45594000000E+02  0.51100000000E-03 0.  1.
    9900012    2    1    2    0    0  0.11460721147E+01  0.12104819454E+02  0.29476795296E+02  0.59301927865E+02  0.49999970523E+02 0.  0.
        -12    1    1    2    0    0 -0.11460721147E+01 -0.12104819454E+02 -0.29476795296E+02  0.31886072135E+02  0.00000000000E+00 0.  1.
         11    1    3    3    0    0  0.77982725731E+01  0.28218926692E+01  0.11067525427E+02  0.13829904291E+02  0.51100000000E-03 0. -1.
        -11    1    3    3    0    0  0.79238756780E+01  0.15734912249E+02  0.22917544106E+02  0.28906558034E+02  0.51100000000E-03 0.  1.
        -12    1    3    3    0    0 -0.14576076136E+02 -0.64519854643E+01 -0.45082742371E+01  0.16565465540E+02  0.00000000000E+00 0.  1.
</event>
<event>
 7    1  0.1290195E-011  0.5930194E+02  0.7816164E-02  0.1266605E+00
        -11   -1    0    0    0    0  0.00000000000E+00  0.00000000000E+00  0.45593999997E+02  0.45594000000E+02  0.51100000000E-03 0.  1.
         11   -1    0    0    0    0 -0.00000000000E+00 -0.00000000000E+00 -0.45593999997E+02  0.45594000000E+02  0.51100000000E-03 0. -1.
    9900012    2    1    2    0    0 -0.19507913681E+02 -0.12664711238E+02 -0.21812091818E+02  0.59301937897E+02  0.49999988820E+02 0.  0.
        -12    1    1    2    0    0  0.19507913681E+02  0.12664711238E+02  0.21812091818E+02  0.31886062103E+02  0.00000000000E+00 0.  1.
         11    1    3    3    0    0 -0.38425850464E+01  0.31670297336E+01 -0.29609757031E+02  0.30025543274E+02  0.51100000000E-03 0. -1.
        -11    1    3    3    0    0 -0.12188929852E+02 -0.81721617109E+00  0.50599727483E+00  0.12226769267E+02  0.51100000000E-03 0.  1.
        -12    1    3    3    0    0 -0.34763987826E+01 -0.15014524800E+02  0.72916679382E+01  0.17049625357E+02  0.00000000000E+00 0.  1.
</event>
<event>
 7    1  0.1290195E-011  0.5930193E+02  0.7816164E-02  0.1266605E+00
        -11   -1    0    0    0    0  0.00000000000E+00  0.00000000000E+00  0.45593999997E+02  0.45594000000E+02  0.51100000000E-03 0.  1.
         11   -1    0    0    0    0 -0.00000000000E+00 -0.00000000000E+00 -0.45593999997E+02  0.45594000000E+02  0.51100000000E-03 0. -1.
    9900012    2    1    2    0    0  0.23998368029E+02 -0.18755501520E+02 -0.94356162102E+01  0.59301931591E+02  0.49999977318E+02 0.  0.
        -12    1    1    2    0    0 -0.23998368029E+02  0.18755501520E+02  0.94356162102E+01  0.31886068409E+02  0.00000000000E+00 0.  1.
         11    1    3    3    0    0  0.15797029739E+02 -0.21167341015E+02 -0.10916276305E+02  0.28579145593E+02  0.51100000000E-03 0. -1.
        -11    1    3    3    0    0  0.73408594690E+01 -0.42677157429E+01 -0.12553926832E+02  0.15155945849E+02  0.51100000000E-03 0.  1.
        -12    1    3    3    0    0  0.86047882109E+00  0.66795552375E+01  0.14034586927E+02  0.15566840148E+02  0.00000000000E+00 0.  1.
</event>
<event>
 7    1  0.1290195E-011  0.5930196E+02  0.7816164E-02  0.1266605E+00
        -11   -1    0    0    0    0  0.00000000000E+00  0.00000000000E+00  0.45593999997E+02  0.45594000000E+02  0.51100000000E-03 0. -1.
         11   -1    0    0    0    0 -0.00000000000E+00 -0.00000000000E+00 -0.45593999997E+02  0.45594000000E+02  0.51100000000E-03 0.  1.
    9900012    2    1    2    0    0  0.14929586712E+02  0.12560723893E+02  0.25220137778E+02  0.59301957699E+02  0.50000024933E+02 0.  0.
        -12    1    1    2    0    0 -0.14929586712E+02 -0.12560723893E+02 -0.25220137778E+02  0.31886042301E+02  0.00000000000E+00 0.  1.
         11    1    3    3    0    0  0.35414109853E+01  0.53810993114E+01 -0.10508688861E+01  0.65270320394E+01  0.51100000000E-03 0. -1.
        -11    1    3    3    0    0  0.17043994286E+02  0.59597362818E+01 -0.67308788589E+01  0.19269689365E+02  0.51100000000E-03 0.  1.
         12    1    3    3    0    0 -0.56558185594E+01  0.12198882994E+01  0.33001885523E+02  0.33505236294E+02  0.00000000000E+00 0. -1.
</event>
<event>
 7    1  0.1290195E-011  0.5930193E+02  0.7816164E-02  0.1266605E+00
        -11   -1    0    0    0    0  0.00000000000E+00  0.00000000000E+00  0.45593999997E+02  0.45594000000E+02  0.51100000000E-03 0. -1.
         11   -1    0    0    0    0 -0.00000000000E+00 -0.00000000000E+00 -0.45593999997E+02  0.45594000000E+02  0.51100000000E-03 0.  1.
    9900012    2    1    2    0    0  0.20312706099E+02 -0.22858084528E+02 -0.90345520969E+01  0.59301934252E+02  0.49999982171E+02 0.  0.
        -12    1    1    2    0    0 -0.20312706099E+02  0.22858084528E+02  0.90345520969E+01  0.31886065748E+02  0.00000000000E+00 0.  1.
         11    1    3    3    0    0 -0.11316267227E+02 -0.39283440797E+01 -0.11115210005E+01  0.12030181643E+02  0.51100000000E-03 0. -1.
        -11    1    3    3    0    0 -0.50550292069E+01 -0.38140276706E+01 -0.37921425395E+01  0.73810888530E+01  0.51100000000E-03 0.  1.
         12    1    3    3    0    0  0.36684002533E+02 -0.15115712777E+02 -0.41308885569E+01  0.39890663756E+02  0.00000000000E+00 0. -1.
</event>
<event>
 7    1  0.1290195E-011  0.5930194E+02  0.7816164E-02  0.1266605E+00
        -11   -1    0    0    0    0  0.00000000000E+00  0.00000000000E+00  0.45593999997E+02  0.45594000000E+02  0.51100000000E-03 0.  1.
         11   -1    0    0    0    0 -0.00000000000E+00 -0.00000000000E+00 -0.45593999997E+02  0.45594000000E+02  0.51100000000E-03 0. -1.
    9900012    2    1    2    0    0 -0.21945637107E+02 -0.22323857045E+02 -0.60625908649E+01  0.59301943653E+02  0.49999999317E+02 0.  0.
        -12    1    1    2    0    0  0.21945637107E+02  0.22323857045E+02  0.60625908649E+01  0.31886056347E+02  0.00000000000E+00 0.  1.
         11    1    3    3    0    0  0.58903922759E+01  0.27111449317E+01  0.42409072525E+01  0.77480528257E+01  0.51100000000E-03 0. -1.
        -11    1    3    3    0    0 -0.30857993736E+02 -0.12897401591E+02  0.26466870588E+01  0.33549421722E+02  0.51100000000E-03 0.  1.
         12    1    3    3    0    0  0.30219643538E+01 -0.12137600386E+02 -0.12950185176E+02  0.18004469106E+02  0.00000000000E+00 0. -1.
</event>
<event>
 7    1  0.1290195E-011  0.5930194E+02  0.7816164E-02  0.1266605E+00
        -11   -1    0    0    0    0  0.00000000000E+00  0.00000000000E+00  0.45593999997E+02  0.45594000000E+02  0.51100000000E-03 0. -1.
         11   -1    0    0    0    0 -0.00000000000E+00 -0.00000000000E+00 -0.45593999997E+02  0.45594000000E+02  0.51100000000E-03 0.  1.
    9900012    2    1    2    0    0  0.18226625228E+02  0.13160649864E+02  0.22612120047E+02  0.59301944348E+02  0.50000000584E+02 0.  0.
        -12    1    1    2    0    0 -0.18226625228E+02 -0.13160649864E+02 -0.22612120047E+02  0.31886055652E+02  0.00000000000E+00 0.  1.
         11    1    3    3    0    0  0.14656080332E+01 -0.96378023282E+00 -0.95874295899E+01  0.97465730207E+01  0.51100000000E-03 0. -1.
        -11    1    3    3    0    0 -0.86607143097E+01  0.21083525452E+01  0.11931954380E+02  0.14893779184E+02  0.51100000000E-03 0.  1.
         12    1    3    3    0    0  0.25421731504E+02  0.12016077551E+02  0.20267595257E+02  0.34661592143E+02  0.00000000000E+00 0. -1.
</event>
<event>
 7    1  0.1290195E-011  0.5930193E+02  0.7816164E-02  0.1266605E+00
        -11   -1    0    0    0    0  0.00000000000E+00  0.00000000000E+00  0.45593999997E+02  0.45594000000E+02  0.51100000000E-03 0.  1.
         11   -1    0    0    0    0 -0.00000000000E+00 -0.00000000000E+00 -0.45593999997E+02  0.45594000000E+02  0.51100000000E-03 0. -1.
    9900012    2    1    2    0    0 -0.17129989028E+02  0.22711560988E+02 -0.14403812676E+02  0.59301931785E+02  0.49999977671E+02 0.  0.
        -12    1    1    2    0    0  0.17129989028E+02 -0.22711560988E+02  0.14403812676E+02  0.31886068215E+02  0.00000000000E+00 0.  1.
         11    1    3    3    0    0 -0.21758369748E+02  0.53170511020E+01 -0.17065054853E+02  0.28158724828E+02  0.51100000000E-03 0.  1.
        -11    1    3    3    0    0 -0.75197832829E+01 -0.20894324348E+01 -0.10816357062E+01  0.78792642159E+01  0.51100000000E-03 0. -1.
         12    1    3    3    0    0  0.12148164003E+02  0.19483942321E+02  0.37428778834E+01  0.23263942741E+02  0.00000000000E+00 0. -1.
</event>
<event>
 7    1  0.1290195E-011  0.5930196E+02  0.7816164E-02  0.1266605E+00
        -11   -1    0    0    0    0  0.00000000000E+00  0.00000000000E+00  0.45593999997E+02  0.45594000000E+02  0.51100000000E-03 0.  1.
         11   -1    0    0    0    0 -0.00000000000E+00 -0.00000000000E+00 -0.45593999997E+02  0.45594000000E+02  0.51100000000E-03 0. -1.
    9900012    2    1    2    0    0  0.20525214393E+02  0.12528697223E+02 -0.20939607217E+02  0.59301955554E+02  0.50000021022E+02 0.  0.
        -12    1    1    2    0    0 -0.20525214393E+02 -0.12528697223E+02  0.20939607217E+02  0.31886044446E+02  0.00000000000E+00 0.  1.
         11    1    3    3    0    0  0.81472784098E+01  0.21887225916E+02 -0.29503803762E+02  0.37628489744E+02  0.51100000000E-03 0. -1.
        -11    1    3    3    0    0  0.30843385372E+01 -0.14887794454E+01 -0.32391697047E+01  0.47140035093E+01  0.51100000000E-03 0.  1.
         12    1    3    3    0    0  0.92935974463E+01 -0.78697492469E+01  0.11803366250E+02  0.16959462301E+02  0.00000000000E+00 0. -1.
</event>
<event>
 7    1  0.1290195E-011  0.5930195E+02  0.7816164E-02  0.1266605E+00
        -11   -1    0    0    0    0  0.00000000000E+00  0.00000000000E+00  0.45593999997E+02  0.45594000000E+02  0.51100000000E-03 0. -1.
         11   -1    0    0    0    0 -0.00000000000E+00 -0.00000000000E+00 -0.45593999997E+02  0.45594000000E+02  0.51100000000E-03 0.  1.
    9900012    2    1    2    0    0 -0.60343056011E+01  0.28932789680E+02  0.11966662338E+02  0.59301950225E+02  0.50000011302E+02 0.  0.
        -12    1    1    2    0    0  0.60343056011E+01 -0.28932789680E+02 -0.11966662338E+02  0.31886049775E+02  0.00000000000E+00 0.  1.
         11    1    3    3    0    0 -0.43080159215E+00 -0.82560714898E+00  0.80906055680E+00  0.12336111308E+01  0.51100000000E-03 0. -1.
        -11    1    3    3    0    0  0.73638890881E+01 -0.32819110664E+01 -0.12884056652E+02  0.15198576210E+02  0.51100000000E-03 0.  1.
         12    1    3    3    0    0 -0.12967393097E+02  0.33040307895E+02  0.24041658432E+02  0.42869762884E+02  0.00000000000E+00 0. -1.
</event>
<event>
 7    1  0.1290195E-011  0.5930190E+02  0.7816164E-02  0.1266605E+00
        -11   -1    0    0    0    0  0.00000000000E+00  0.00000000000E+00  0.45593999997E+02  0.45594000000E+02  0.51100000000E-03 0. -1.
         11   -1    0    0    0    0 -0.00000000000E+00 -0.00000000000E+00 -0.45593999997E+02  0.45594000000E+02  0.51100000000E-03 0.  1.
    9900012    2    1    2    0    0  0.15816747296E+02 -0.25315068562E+02  0.11211647999E+02  0.59301902055E+02  0.49999923451E+02 0.  0.
        -12    1    1    2    0    0 -0.15816747296E+02  0.25315068562E+02 -0.11211647999E+02  0.31886097945E+02  0.00000000000E+00 0.  1.
         11    1    3    3    0    0 -0.87920679578E+01  0.35493792149E+00  0.97223254572E+01  0.13112972678E+02  0.51100000000E-03 0. -1.
        -11    1    3    3    0    0  0.36806143803E+01 -0.23746925452E+02 -0.42490385969E+01  0.24403231751E+02  0.51100000000E-03 0.  1.
         12    1    3    3    0    0  0.20928200874E+02 -0.19230810311E+01  0.57383611389E+01  0.21785697625E+02  0.00000000000E+00 0. -1.
</event>
<event>
 7    1  0.1290195E-011  0.5930194E+02  0.7816164E-02  0.1266605E+00
        -11   -1    0    0    0    0  0.00000000000E+00  0.00000000000E+00  0.45593999997E+02  0.45594000000E+02  0.51100000000E-03 0. -1.
         11   -1    0    0    0    0 -0.00000000000E+00 -0.00000000000E+00 -0.45593999997E+02  0.45594000000E+02  0.51100000000E-03 0.  1.
    9900012    2    1    2    0    0  0.22062199174E+02 -0.12461475615E+01 -0.22987550283E+02  0.59301937463E+02  0.49999988027E+02 0.  0.
        -12    1    1    2    0    0 -0.22062199174E+02  0.12461475615E+01  0.22987550283E+02  0.31886062537E+02  0.00000000000E+00 0.  1.
         11    1    3    3    0    0  0.20954637811E+02 -0.16293144902E+02 -0.16209926400E+02  0.31101850922E+02  0.51100000000E-03 0.  1.
        -11    1    3    3    0    0 -0.67106895557E+01 -0.32553759966E+01 -0.14681945607E+01  0.76017381382E+01  0.51100000000E-03 0. -1.
         12    1    3    3    0    0  0.78182509191E+01  0.18302373337E+02 -0.53094293214E+01  0.20598348403E+02  0.00000000000E+00 0. -1.
</event>
<event>
 7    1  0.1290195E-011  0.5930201E+02  0.7816164E-02  0.1266605E+00
        -11   -1    0    0    0    0  0.00000000000E+00  0.00000000000E+00  0.45593999997E+02  0.45594000000E+02  0.51100000000E-03 0.  1.
         11   -1    0    0    0    0 -0.00000000000E+00 -0.00000000000E+00 -0.45593999997E+02  0.45594000000E+02  0.51100000000E-03 0. -1.
    9900012    2    1    2    0    0  0.27002035820E+02  0.12887568917E+02  0.11023463068E+02  0.59302013909E+02  0.50000127446E+02 0.  0.
        -12    1    1    2    0    0 -0.27002035820E+02 -0.12887568917E+02 -0.11023463068E+02  0.31885986091E+02  0.00000000000E+00 0.  1.
         11    1    3    3    0    0 -0.71942498659E+01  0.96204409810E+01  0.69238444970E+01  0.13865415200E+02  0.51100000000E-03 0. -1.
        -11    1    3    3    0    0 -0.92685319765E+00  0.94627955743E+01  0.19534780538E+01  0.97066798494E+01  0.51100000000E-03 0.  1.
        -12    1    3    3    0    0  0.35123138884E+02 -0.61956676388E+01  0.21461405171E+01  0.35729918859E+02  0.00000000000E+00 0.  1.
</event>
<event>
 7    1  0.1290195E-011  0.5930194E+02  0.7816164E-02  0.1266605E+00
        -11   -1    0    0    0    0  0.00000000000E+00  0.00000000000E+00  0.45593999997E+02  0.45594000000E+02  0.51100000000E-03 0.  1.
         11   -1    0    0    0    0 -0.00000000000E+00 -0.00000000000E+00 -0.45593999997E+02  0.45594000000E+02  0.51100000000E-03 0. -1.
    9900012    2    1    2    0    0 -0.22149083459E+01 -0.20539144409E+02 -0.24289061162E+02  0.59301940912E+02  0.49999994318E+02 0.  0.
        -12    1    1    2    0    0  0.22149083459E+01  0.20539144409E+02  0.24289061162E+02  0.31886059088E+02  0.00000000000E+00 0.  1.
         11    1    3    3    0    0  0.73987720499E+01 -0.61940346026E+01 -0.11796205600E+02  0.15240024912E+02  0.51100000000E-03 0. -1.
        -11    1    3    3    0    0  0.52556847445E+01 -0.19071596774E+02 -0.18745406223E+02  0.27253225137E+02  0.51100000000E-03 0.  1.
        -12    1    3    3    0    0 -0.14869365140E+02  0.47264869684E+01  0.62525506612E+01  0.16808690862E+02  0.00000000000E+00 0.  1.
</event>
<event>
 7    1  0.1290195E-011  0.5930192E+02  0.7816164E-02  0.1266605E+00
        -11   -1    0    0    0    0  0.00000000000E+00  0.00000000000E+00  0.45593999997E+02  0.45594000000E+02  0.51100000000E-03 0. -1.
         11   -1    0    0    0    0 -0.00000000000E+00 -0.00000000000E+00 -0.45593999997E+02  0.45594000000E+02  0.51100000000E-03 0.  1.
    9900012    2    1    2    0    0 -0.14309289075E+02 -0.24734891805E+02  0.14147485243E+02  0.59301922080E+02  0.49999959972E+02 0.  0.
        -12    1    1    2    0    0  0.14309289075E+02  0.24734891805E+02 -0.14147485243E+02  0.31886077920E+02  0.00000000000E+00 0.  1.
         11    1    3    3    0    0  0.42739438309E+01 -0.87565142417E+01  0.73419910036E+01  0.12200326622E+02  0.51100000000E-03 0. -1.
        -11    1    3    3    0    0  0.21716345324E-01 -0.24844657945E+02  0.88889963200E+01  0.26386961853E+02  0.51100000000E-03 0.  1.
        -12    1    3    3    0    0 -0.18604949251E+02  0.88662803814E+01 -0.20835020805E+01  0.20714633604E+02  0.00000000000E+00 0.  1.
</event>
<event>
 7    1  0.1290195E-011  0.5930194E+02  0.7816164E-02  0.1266605E+00
        -11   -1    0    0    0    0  0.00000000000E+00  0.00000000000E+00  0.45593999997E+02  0.45594000000E+02  0.51100000000E-03 0.  1.
         11   -1    0    0    0    0 -0.00000000000E+00 -0.00000000000E+00 -0.45593999997E+02  0.45594000000E+02  0.51100000000E-03 0. -1.
    9900012    2    1    2    0    0  0.35769993433E+01  0.31264868737E+02  0.51413896967E+01  0.59301939888E+02  0.49999992450E+02 0.  0.
        -12    1    1    2    0    0 -0.35769993433E+01 -0.31264868737E+02 -0.51413896967E+01  0.31886060112E+02  0.00000000000E+00 0.  1.
         11    1    3    3    0    0 -0.44172851611E+01  0.57573639087E+00 -0.48874025948E+01  0.66129104766E+01  0.51100000000E-03 0. -1.
        -11    1    3    3    0    0 -0.16213117950E+02  0.18061835016E+02  0.67336185728E+01  0.25188026861E+02  0.51100000000E-03 0.  1.
        -12    1    3    3    0    0  0.24207402454E+02  0.12627297330E+02  0.32951737188E+01  0.27501002551E+02  0.00000000000E+00 0.  1.
</event>
<event>
 7    1  0.1290195E-011  0.5930200E+02  0.7816164E-02  0.1266605E+00
        -11   -1    0    0    0    0  0.00000000000E+00  0.00000000000E+00  0.45593999997E+02  0.45594000000E+02  0.51100000000E-03 0. -1.
         11   -1    0    0    0    0 -0.00000000000E+00 -0.00000000000E+00 -0.45593999997E+02  0.45594000000E+02  0.51100000000E-03 0.  1.
    9900012    2    1    2    0    0  0.26912078228E+02 -0.69688850566E+01  0.15617038497E+02  0.59301996725E+02  0.50000096106E+02 0.  0.
        -12    1    1    2    0    0 -0.26912078228E+02  0.69688850566E+01 -0.15617038497E+02  0.31886003275E+02  0.00000000000E+00 0.  1.
         11    1    3    3    0    0  0.10588524045E+02 -0.93359461554E+01 -0.55804860534E+01  0.15179544029E+02  0.51100000000E-03 0. -1.
        -11    1    3    3    0    0 -0.10926036442E+02 -0.27647763629E+00  0.33115231850E+01  0.11420196946E+02  0.51100000000E-03 0.  1.
         12    1    3    3    0    0  0.27249590625E+02  0.26435387351E+01  0.17886001366E+02  0.32702255750E+02  0.00000000000E+00 0. -1.
</event>
<event>
 7    1  0.1290195E-011  0.5930195E+02  0.7816164E-02  0.1266605E+00
        -11   -1    0    0    0    0  0.00000000000E+00  0.00000000000E+00  0.45593999997E+02  0.45594000000E+02  0.51100000000E-03 0.  1.
         11   -1    0    0    0    0 -0.00000000000E+00 -0.00000000000E+00 -0.45593999997E+02  0.45594000000E+02  0.51100000000E-03 0. -1.
    9900012    2    1    2    0    0 -0.18458709170E+02 -0.24984221135E+02 -0.71961747631E+01  0.59301950054E+02  0.50000010991E+02 0.  0.
        -12    1    1    2    0    0  0.18458709170E+02  0.24984221135E+02  0.71961747631E+01  0.31886049946E+02  0.00000000000E+00 0.  1.
         11    1    3    3    0    0  0.17557474665E+01 -0.14506410243E+02 -0.58963020132E+01  0.15757060798E+02  0.51100000000E-03 0. -1.
        -11    1    3    3    0    0 -0.22745647134E+01 -0.22050292306E+02 -0.20491652337E+00  0.22168243649E+02  0.51100000000E-03 0.  1.
         12    1    3    3    0    0 -0.17939891923E+02  0.11572481414E+02 -0.10949562265E+01  0.21376645607E+02  0.00000000000E+00 0. -1.
</event>
<event>
 7    1  0.1290195E-011  0.5930194E+02  0.7816164E-02  0.1266605E+00
        -11   -1    0    0    0    0  0.00000000000E+00  0.00000000000E+00  0.45593999997E+02  0.45594000000E+02  0.51100000000E-03 0.  1.
         11   -1    0    0    0    0 -0.00000000000E+00 -0.00000000000E+00 -0.45593999997E+02  0.45594000000E+02  0.51100000000E-03 0. -1.
    9900012    2    1    2    0    0 -0.85549413827E+00 -0.15545608530E+02 -0.27826658149E+02  0.59301941628E+02  0.49999995624E+02 0.  0.
        -12    1    1    2    0    0  0.85549413827E+00  0.15545608530E+02  0.27826658149E+02  0.31886058372E+02  0.00000000000E+00 0.  1.
         11    1    3    3    0    0 -0.23853484289E+02 -0.10226024661E+02 -0.12076915740E+02  0.28625376629E+02  0.51100000000E-03 0. -1.
        -11    1    3    3    0    0 -0.11551482112E+01  0.29909184026E+00 -0.19806117823E+01  0.23122816896E+01  0.51100000000E-03 0.  1.
        -12    1    3    3    0    0  0.24153138362E+02 -0.56186757084E+01 -0.13769130626E+02  0.28364283309E+02  0.00000000000E+00 0.  1.
</event>
<event>
 7    1  0.1290195E-011  0.5930192E+02  0.7816164E-02  0.1266605E+00
        -11   -1    0    0    0    0  0.00000000000E+00  0.00000000000E+00  0.45593999997E+02  0.45594000000E+02  0.51100000000E-03 0. -1.
         11   -1    0    0    0    0 -0.00000000000E+00 -0.00000000000E+00 -0.45593999997E+02  0.45594000000E+02  0.51100000000E-03 0.  1.
    9900012    2    1    2    0    0 -0.48421343758E+01  0.39487380340E+01  0.31267931789E+02  0.59301915955E+02  0.49999948802E+02 0.  0.
        -12    1    1    2    0    0  0.48421343758E+01 -0.39487380340E+01 -0.31267931789E+02  0.31886084045E+02  0.00000000000E+00 0.  1.
         11    1    3    3    0    0  0.86337550573E+01  0.17841146135E+01  0.45857875173E+01  0.99375167300E+01  0.51100000000E-03 0. -1.
        -11    1    3    3    0    0 -0.18305751349E+02  0.17575396598E+02  0.16679420546E+02  0.30367715884E+02  0.51100000000E-03 0.  1.
         12    1    3    3    0    0  0.48298619155E+01 -0.15410773177E+02  0.10002723725E+02  0.18996683341E+02  0.00000000000E+00 0. -1.
</event>
<event>
 7    1  0.1290195E-011  0.5930193E+02  0.7816164E-02  0.1266605E+00
        -11   -1    0    0    0    0  0.00000000000E+00  0.00000000000E+00  0.45593999997E+02  0.45594000000E+02  0.51100000000E-03 0.  1.
         11   -1    0    0    0    0 -0.00000000000E+00 -0.00000000000E+00 -0.45593999997E+02  0.45594000000E+02  0.51100000000E-03 0. -1.
    9900012    2    1    2    0    0 -0.94808077101E+01 -0.14416896894E+02 -0.26813966428E+02  0.59301930526E+02  0.49999975375E+02 0.  0.
        -12    1    1    2    0    0  0.94808077101E+01  0.14416896894E+02  0.26813966428E+02  0.31886069474E+02  0.00000000000E+00 0.  1.
         11    1    3    3    0    0 -0.12885329867E+00  0.10163138253E+01 -0.15447566052E+02  0.15481498447E+02  0.51100000000E-03 0. -1.
        -11    1    3    3    0    0  0.36312465183E+01 -0.24203881855E+02 -0.13591107588E+02  0.27995214838E+02  0.51100000000E-03 0.  1.
        -12    1    3    3    0    0 -0.12983200930E+02  0.87706711352E+01  0.22247072111E+01  0.15825217241E+02  0.00000000000E+00 0.  1.
</event>
<event>
 7    1  0.1290195E-011  0.5930195E+02  0.7816164E-02  0.1266605E+00
        -11   -1    0    0    0    0  0.00000000000E+00  0.00000000000E+00  0.45593999997E+02  0.45594000000E+02  0.51100000000E-03 0.  1.
         11   -1    0    0    0    0 -0.00000000000E+00 -0.00000000000E+00 -0.45593999997E+02  0.45594000000E+02  0.51100000000E-03 0. -1.
    9900012    2    1    2    0    0  0.93059801395E+01 -0.12580803988E+02 -0.27782047171E+02  0.59301952262E+02  0.50000015018E+02 0.  0.
        -12    1    1    2    0    0 -0.93059801395E+01  0.12580803988E+02  0.27782047171E+02  0.31886047738E+02  0.00000000000E+00 0.  1.
         11    1    3    3    0    0 -0.12205575536E+01 -0.23198516041E+02 -0.23271359689E+02  0.32881865660E+02  0.51100000000E-03 0. -1.
        -11    1    3    3    0    0 -0.20251323774E+00 -0.60955941230E+01 -0.22990054055E+00  0.61032887728E+01  0.51100000000E-03 0.  1.
        -12    1    3    3    0    0  0.10729050931E+02  0.16713306176E+02 -0.42807869414E+01  0.20316797830E+02  0.00000000000E+00 0.  1.
</event>
<event>
 7    1  0.1290195E-011  0.5930193E+02  0.7816164E-02  0.1266605E+00
        -11   -1    0    0    0    0  0.00000000000E+00  0.00000000000E+00  0.45593999997E+02  0.45594000000E+02  0.51100000000E-03 0.  1.
         11   -1    0    0    0    0 -0.00000000000E+00 -0.00000000000E+00 -0.45593999997E+02  0.45594000000E+02  0.51100000000E-03 0. -1.
    9900012    2    1    2    0    0 -0.75389932877E+01  0.30076828286E+02 -0.74343230221E+01  0.59301934418E+02  0.49999982473E+02 0.  0.
        -12    1    1    2    0    0  0.75389932877E+01 -0.30076828286E+02  0.74343230221E+01  0.31886065582E+02  0.00000000000E+00 0.  1.
         11    1    3    3    0    0  0.10963221886E+02 -0.69573897579E+00 -0.35260297026E+01  0.11537294855E+02  0.51100000000E-03 0. -1.
        -11    1    3    3    0    0  0.78210233055E+01  0.25972099723E+01  0.26409589266E+01  0.86538182035E+01  0.51100000000E-03 0.  1.
         12    1    3    3    0    0 -0.26323238479E+02  0.28175357289E+02 -0.65492522462E+01  0.39110821359E+02  0.00000000000E+00 0. -1.
</event>
<event>
 7    1  0.1290195E-011  0.5930194E+02  0.7816164E-02  0.1266605E+00
        -11   -1    0    0    0    0  0.00000000000E+00  0.00000000000E+00  0.45593999997E+02  0.45594000000E+02  0.51100000000E-03 0. -1.
         11   -1    0    0    0    0 -0.00000000000E+00 -0.00000000000E+00 -0.45593999997E+02  0.45594000000E+02  0.51100000000E-03 0.  1.
    9900012    2    1    2    0    0 -0.11120297963E+01 -0.29720090944E+02  0.11497854017E+02  0.59301936226E+02  0.49999985772E+02 0.  0.
        -12    1    1    2    0    0  0.11120297963E+01  0.29720090944E+02 -0.11497854017E+02  0.31886063774E+02  0.00000000000E+00 0.  1.
         11    1    3    3    0    0 -0.44757227380E+00 -0.73825485537E+01  0.12757008848E+02  0.14745969589E+02  0.51100000000E-03 0. -1.
        -11    1    3    3    0    0 -0.18309604672E+02 -0.72054447517E+01  0.53478884594E+01  0.20390192950E+02  0.51100000000E-03 0.  1.
         12    1    3    3    0    0  0.17645147150E+02 -0.15132097638E+02 -0.66070432905E+01  0.24165773687E+02  0.00000000000E+00 0. -1.
</event>
<event>
 7    1  0.1290195E-011  0.5930189E+02  0.7816164E-02  0.1266605E+00
        -11   -1    0    0    0    0  0.00000000000E+00  0.00000000000E+00  0.45593999997E+02  0.45594000000E+02  0.51100000000E-03 0.  1.
         11   -1    0    0    0    0 -0.00000000000E+00 -0.00000000000E+00 -0.45593999997E+02  0.45594000000E+02  0.51100000000E-03 0. -1.
    9900012    2    1    2    0    0  0.24314288420E+02 -0.20368699412E+02  0.32643031801E+01  0.59301886841E+02  0.49999895706E+02 0.  0.
        -12    1    1    2    0    0 -0.24314288420E+02  0.20368699412E+02 -0.32643031801E+01  0.31886113159E+02  0.00000000000E+00 0.  1.
         11    1    3    3    0    0  0.18739185352E+01  0.62020369058E+01 -0.28290996933E+01  0.70696985645E+01  0.51100000000E-03 0. -1.
        -11    1    3    3    0    0  0.26373109582E+02 -0.34811861589E+01  0.10128977630E+02  0.28464991730E+02  0.51100000000E-03 0.  1.
         12    1    3    3    0    0 -0.39327396973E+01 -0.23089550159E+02 -0.40355747564E+01  0.23767196547E+02  0.00000000000E+00 0. -1.
</event>
<event>
 7    1  0.1290195E-011  0.5930192E+02  0.7816164E-02  0.1266605E+00
        -11   -1    0    0    0    0  0.00000000000E+00  0.00000000000E+00  0.45593999997E+02  0.45594000000E+02  0.51100000000E-03 0.  1.
         11   -1    0    0    0    0 -0.00000000000E+00 -0.00000000000E+00 -0.45593999997E+02  0.45594000000E+02  0.51100000000E-03 0. -1.
    9900012    2    1    2    0    0 -0.10739054277E+01  0.28505537785E+02 -0.14247913596E+02  0.59301921547E+02  0.49999959000E+02 0.  0.
        -12    1    1    2    0    0  0.10739054277E+01 -0.28505537785E+02  0.14247913596E+02  0.31886078453E+02  0.00000000000E+00 0.  1.
         11    1    3    3    0    0 -0.62754829503E+00 -0.49126152716E+01  0.31480137494E+01  0.58683555190E+01  0.51100000000E-03 0. -1.
        -11    1    3    3    0    0  0.93448113696E+01 -0.16511434629E+01  0.49599459755E+01  0.10707606577E+02  0.51100000000E-03 0.  1.
         12    1    3    3    0    0 -0.97911685022E+01  0.35069296520E+02 -0.22355873321E+02  0.42725959451E+02  0.00000000000E+00 0. -1.
</event>
<event>
 7    1  0.1290195E-011  0.5930192E+02  0.7816164E-02  0.1266605E+00
        -11   -1    0    0    0    0  0.00000000000E+00  0.00000000000E+00  0.45593999997E+02  0.45594000000E+02  0.51100000000E-03 0. -1.
         11   -1    0    0    0    0 -0.00000000000E+00 -0.00000000000E+00 -0.45593999997E+02  0.45594000000E+02  0.51100000000E-03 0.  1.
    9900012    2    1    2    0    0 -0.25725777464E+02  0.13365067449E+01  0.18791487478E+02  0.59301923445E+02  0.49999962463E+02 0.  0.
        -12    1    1    2    0    0  0.25725777464E+02 -0.13365067449E+01 -0.18791487478E+02  0.31886076555E+02  0.00000000000E+00 0.  1.
         11    1    3    3    0    0 -0.28171649986E+02 -0.12701762183E+02 -0.21572704317E+01  0.30977902470E+02  0.51100000000E-03 0. -1.
        -11    1    3    3    0    0 -0.45894695495E+01  0.85237795410E+01  0.78386349624E+01  0.12456413880E+02  0.51100000000E-03 0.  1.
        -12    1    3    3    0    0  0.70353420707E+01  0.55144893871E+01  0.13110122947E+02  0.15867607096E+02  0.00000000000E+00 0.  1.
</event>
<event>
 7    1  0.1290195E-011  0.5930196E+02  0.7816164E-02  0.1266605E+00
        -11   -1    0    0    0    0  0.00000000000E+00  0.00000000000E+00  0.45593999997E+02  0.45594000000E+02  0.51100000000E-03 0.  1.
         11   -1    0    0    0    0 -0.00000000000E+00 -0.00000000000E+00 -0.45593999997E+02  0.45594000000E+02  0.51100000000E-03 0. -1.
    9900012    2    1    2    0    0  0.15570838265E+02 -0.24368150864E+02  0.13433612397E+02  0.59301957241E+02  0.50000024098E+02 0.  0.
        -12    1    1    2    0    0 -0.15570838265E+02  0.24368150864E+02 -0.13433612397E+02  0.31886042759E+02  0.00000000000E+00 0.  1.
         11    1    3    3    0    0 -0.13786270501E+02 -0.26863949699E+01  0.52129941141E+01  0.14981764921E+02  0.51100000000E-03 0. -1.
        -11    1    3    3    0    0 -0.15704627633E+01 -0.31046020563E+01  0.74630456863E+01  0.82341944594E+01  0.51100000000E-03 0.  1.
        -12    1    3    3    0    0  0.30927571529E+02 -0.18577153838E+02  0.75757259670E+00  0.36085997861E+02  0.00000000000E+00 0.  1.
</event>
<event>
 7    1  0.1290195E-011  0.5930195E+02  0.7816164E-02  0.1266605E+00
        -11   -1    0    0    0    0  0.00000000000E+00  0.00000000000E+00  0.45593999997E+02  0.45594000000E+02  0.51100000000E-03 0.  1.
         11   -1    0    0    0    0 -0.00000000000E+00 -0.00000000000E+00 -0.45593999997E+02  0.45594000000E+02  0.51100000000E-03 0. -1.
    9900012    2    1    2    0    0 -0.17537642316E+02  0.24262162026E+02 -0.10977204683E+02  0.59301946202E+02  0.50000003965E+02 0.  0.
        -12    1    1    2    0    0  0.17537642316E+02 -0.24262162026E+02  0.10977204683E+02  0.31886053798E+02  0.00000000000E+00 0.  1.
         11    1    3    3    0    0 -0.17386864513E+02 -0.38723254291E+01  0.32361365695E+01  0.18104434319E+02  0.51100000000E-03 0. -1.
        -11    1    3    3    0    0  0.28474026835E+01  0.33428714362E+01  0.71122339375E+01  0.83586101311E+01  0.51100000000E-03 0.  1.
         12    1    3    3    0    0 -0.29981804856E+01  0.24791616019E+02 -0.21325575190E+02  0.32838901752E+02  0.00000000000E+00 0. -1.
</event>
<event>
 7    1  0.1290195E-011  0.5930194E+02  0.7816164E-02  0.1266605E+00
        -11   -1    0    0    0    0  0.00000000000E+00  0.00000000000E+00  0.45593999997E+02  0.45594000000E+02  0.51100000000E-03 0.  1.
         11   -1    0    0    0    0 -0.00000000000E+00 -0.00000000000E+00 -0.45593999997E+02  0.45594000000E+02  0.51100000000E-03 0. -1.
    9900012    2    1    2    0    0 -0.30721859751E+02  0.27452102206E+01 -0.80840744676E+01  0.59301935556E+02  0.49999984550E+02 0.  0.
        -12    1    1    2    0    0  0.30721859751E+02 -0.27452102206E+01  0.80840744676E+01  0.31886064444E+02  0.00000000000E+00 0.  1.
         11    1    3    3    0    0 -0.39988187119E+01 -0.14378779666E+02 -0.73275528545E+01  0.16626270985E+02  0.51100000000E-03 0. -1.
        -11    1    3    3    0    0 -0.23728532773E+02  0.57653517847E+01 -0.11285672258E+02  0.26900723918E+02  0.51100000000E-03 0.  1.
        -12    1    3    3    0    0 -0.29945082664E+01  0.11358638102E+02  0.10529150645E+02  0.15774940653E+02  0.00000000000E+00 0.  1.
</event>
<event>
 7    1  0.1290195E-011  0.5930194E+02  0.7816164E-02  0.1266605E+00
        -11   -1    0    0    0    0  0.00000000000E+00  0.00000000000E+00  0.45593999997E+02  0.45594000000E+02  0.51100000000E-03 0.  1.
         11   -1    0    0    0    0 -0.00000000000E+00 -0.00000000000E+00 -0.45593999997E+02  0.45594000000E+02  0.51100000000E-03 0. -1.
    9900012    2    1    2    0    0  0.67099318343E+01 -0.18550347202E+02 -0.25051590555E+02  0.59301941042E+02  0.49999994555E+02 0.  0.
        -12    1    1    2    0    0 -0.67099318343E+01  0.18550347202E+02  0.25051590555E+02  0.31886058958E+02  0.00000000000E+00 0.  1.
         11    1    3    3    0    0  0.84385731660E+01 -0.68434242463E+01 -0.12326624938E+02  0.16431301078E+02  0.51100000000E-03 0. -1.
        -11    1    3    3    0    0  0.14367872918E+02  0.54008264537E+01  0.14785282468E+01  0.15420465123E+02  0.51100000000E-03 0.  1.
         12    1    3    3    0    0 -0.16096514250E+02 -0.17107749409E+02 -0.14203493864E+02  0.27450174841E+02  0.00000000000E+00 0. -1.
</event>
<event>
 7    1  0.1290195E-011  0.5930196E+02  0.7816164E-02  0.1266605E+00
        -11   -1    0    0    0    0  0.00000000000E+00  0.00000000000E+00  0.45593999997E+02  0.45594000000E+02  0.51100000000E-03 0.  1.
         11   -1    0    0    0    0 -0.00000000000E+00 -0.00000000000E+00 -0.45593999997E+02  0.45594000000E+02  0.51100000000E-03 0. -1.
    9900012    2    1    2    0    0  0.16171379896E+02 -0.85528854200E+01 -0.26116171288E+02  0.59301956352E+02  0.50000022477E+02 0.  0.
        -12    1    1    2    0    0 -0.16171379896E+02  0.85528854200E+01  0.26116171288E+02  0.31886043648E+02  0.00000000000E+00 0.  1.
         11    1    3    3    0    0  0.59438693967E+01 -0.15046987789E+02 -0.76374283932E+01  0.17890548836E+02  0.51100000000E-03 0. -1.
        -11    1    3    3    0    0 -0.12989824571E+02  0.39279859970E+01 -0.51331560809E+01  0.14509097422E+02  0.51100000000E-03 0.  1.
        -12    1    3    3    0    0  0.23217335071E+02  0.25661163716E+01 -0.13345586814E+02  0.26902310095E+02  0.00000000000E+00 0.  1.
</event>
<event>
 7    1  0.1290195E-011  0.5930188E+02  0.7816164E-02  0.1266605E+00
        -11   -1    0    0    0    0  0.00000000000E+00  0.00000000000E+00  0.45593999997E+02  0.45594000000E+02  0.51100000000E-03 0.  1.
         11   -1    0    0    0    0 -0.00000000000E+00 -0.00000000000E+00 -0.45593999997E+02  0.45594000000E+02  0.51100000000E-03 0. -1.
    9900012    2    1    2    0    0 -0.21014345513E+02  0.51418154138E+01 -0.23423994173E+02  0.59301882549E+02  0.49999887877E+02 0.  0.
        -12    1    1    2    0    0  0.21014345513E+02 -0.51418154138E+01  0.23423994173E+02  0.31886117451E+02  0.00000000000E+00 0.  1.
         11    1    3    3    0    0 -0.15932605696E+02  0.28354650495E+01 -0.22544765094E+00  0.16184517701E+02  0.51100000000E-03 0. -1.
        -11    1    3    3    0    0 -0.11873676785E+02  0.48251027093E+01  0.51837459718E+01  0.13825231973E+02  0.51100000000E-03 0.  1.
         12    1    3    3    0    0  0.67919369676E+01 -0.25187523451E+01 -0.28382292494E+02  0.29292132875E+02  0.00000000000E+00 0. -1.
</event>
<event>
 7    1  0.1290195E-011  0.5930193E+02  0.7816164E-02  0.1266605E+00
        -11   -1    0    0    0    0  0.00000000000E+00  0.00000000000E+00  0.45593999997E+02  0.45594000000E+02  0.51100000000E-03 0. -1.
         11   -1    0    0    0    0 -0.00000000000E+00 -0.00000000000E+00 -0.45593999997E+02  0.45594000000E+02  0.51100000000E-03 0.  1.
    9900012    2    1    2    0    0 -0.11355198147E+02  0.29773762448E+02 -0.11418199851E+01  0.59301933950E+02  0.49999981621E+02 0.  0.
        -12    1    1    2    0    0  0.11355198147E+02 -0.29773762448E+02  0.11418199851E+01  0.31886066050E+02  0.00000000000E+00 0.  1.
         11    1    3    3    0    0 -0.16649647281E+02  0.83067853551E+01  0.88832478129E+01  0.20618572441E+02  0.51100000000E-03 0. -1.
        -11    1    3    3    0    0  0.51741286579E-02  0.26777297912E+02 -0.78917699208E+00  0.26788925152E+02  0.51100000000E-03 0.  1.
         12    1    3    3    0    0  0.52892750053E+01 -0.53103208189E+01 -0.92358908059E+01  0.11894436357E+02  0.00000000000E+00 0. -1.
</event>
<event>
 7    1  0.1290195E-011  0.5930197E+02  0.7816164E-02  0.1266605E+00
        -11   -1    0    0    0    0  0.00000000000E+00  0.00000000000E+00  0.45593999997E+02  0.45594000000E+02  0.51100000000E-03 0.  1.
         11   -1    0    0    0    0 -0.00000000000E+00 -0.00000000000E+00 -0.45593999997E+02  0.45594000000E+02  0.51100000000E-03 0. -1.
    9900012    2    1    2    0    0  0.15360607637E+01  0.12912151402E+02 -0.29114190211E+02  0.59301965311E+02  0.50000038816E+02 0.  0.
        -12    1    1    2    0    0 -0.15360607637E+01 -0.12912151402E+02  0.29114190211E+02  0.31886034689E+02  0.00000000000E+00 0.  1.
         11    1    3    3    0    0 -0.70705258961E+01  0.90130458926E+01 -0.32827542885E+02  0.34768878395E+02  0.51100000000E-03 0. -1.
        -11    1    3    3    0    0  0.79554493214E+01  0.10150368487E+01 -0.86648081737E+01  0.11806708883E+02  0.51100000000E-03 0.  1.
        -12    1    3    3    0    0  0.65113733842E+00  0.28840686610E+01  0.12378160847E+02  0.12726378033E+02  0.00000000000E+00 0.  1.
</event>
<event>
 7    1  0.1290195E-011  0.5930195E+02  0.7816164E-02  0.1266605E+00
        -11   -1    0    0    0    0  0.00000000000E+00  0.00000000000E+00  0.45593999997E+02  0.45594000000E+02  0.51100000000E-03 0. -1.
         11   -1    0    0    0    0 -0.00000000000E+00 -0.00000000000E+00 -0.45593999997E+02  0.45594000000E+02  0.51100000000E-03 0.  1.
    9900012    2    1    2    0    0  0.21654744960E+02 -0.22305257164E+02  0.70899867684E+01  0.59301946798E+02  0.50000005053E+02 0.  0.
        -12    1    1    2    0    0 -0.21654744960E+02  0.22305257164E+02 -0.70899867684E+01  0.31886053202E+02  0.00000000000E+00 0.  1.
         11    1    3    3    0    0  0.11904908046E+02 -0.15657225245E+02 -0.82681244235E+01  0.21336293486E+02  0.51100000000E-03 0. -1.
        -11    1    3    3    0    0  0.49387207711E+01 -0.15359249761E+02 -0.36216396437E+01  0.16535228757E+02  0.51100000000E-03 0.  1.
        -12    1    3    3    0    0  0.48111161421E+01  0.87112178425E+01  0.18979750836E+02  0.21430424555E+02  0.00000000000E+00 0.  1.
</event>
<event>
 7    1  0.1290195E-011  0.5930194E+02  0.7816164E-02  0.1266605E+00
        -11   -1    0    0    0    0  0.00000000000E+00  0.00000000000E+00  0.45593999997E+02  0.45594000000E+02  0.51100000000E-03 0.  1.
         11   -1    0    0    0    0 -0.00000000000E+00 -0.00000000000E+00 -0.45593999997E+02  0.45594000000E+02  0.51100000000E-03 0. -1.
    9900012    2    1    2    0    0 -0.14751610273E+02 -0.27840666090E+02  0.48998248535E+01  0.59301937566E+02  0.49999988216E+02 0.  0.
        -12    1    1    2    0    0  0.14751610273E+02  0.27840666090E+02 -0.48998248535E+01  0.31886062434E+02  0.00000000000E+00 0.  1.
         11    1    3    3    0    0  0.11560911204E+01 -0.78479853082E+00 -0.72536958113E+01  0.73870534448E+01  0.51100000000E-03 0.  1.
        -11    1    3    3    0    0 -0.17259616047E+02 -0.25994048472E+02  0.24361662904E+02  0.39586304725E+02  0.51100000000E-03 0. -1.
         12    1    3    3    0    0  0.13519146536E+01 -0.10618190866E+01 -0.12208142239E+02  0.12328579397E+02  0.00000000000E+00 0. -1.
</event>
<event>
 7    1  0.1290195E-011  0.5930189E+02  0.7816164E-02  0.1266605E+00
        -11   -1    0    0    0    0  0.00000000000E+00  0.00000000000E+00  0.45593999997E+02  0.45594000000E+02  0.51100000000E-03 0. -1.
         11   -1    0    0    0    0 -0.00000000000E+00 -0.00000000000E+00 -0.45593999997E+02  0.45594000000E+02  0.51100000000E-03 0.  1.
    9900012    2    1    2    0    0  0.75381309586E+01  0.55767623712E+01  0.30476222456E+02  0.59301892804E+02  0.49999906581E+02 0.  0.
        -12    1    1    2    0    0 -0.75381309586E+01 -0.55767623712E+01 -0.30476222456E+02  0.31886107196E+02  0.00000000000E+00 0.  1.
         11    1    3    3    0    0 -0.12832487017E+02  0.13665480738E+01  0.65408938921E+01  0.14468015408E+02  0.51100000000E-03 0.  1.
        -11    1    3    3    0    0  0.10147904736E+02  0.17447783574E+02  0.79360611977E+01  0.21688388363E+02  0.51100000000E-03 0. -1.
         12    1    3    3    0    0  0.10222713239E+02 -0.13237569277E+02  0.15999267366E+02  0.23145489033E+02  0.00000000000E+00 0. -1.
</event>
<event>
 7    1  0.1290195E-011  0.5930194E+02  0.7816164E-02  0.1266605E+00
        -11   -1    0    0    0    0  0.00000000000E+00  0.00000000000E+00  0.45593999997E+02  0.45594000000E+02  0.51100000000E-03 0.  1.
         11   -1    0    0    0    0 -0.00000000000E+00 -0.00000000000E+00 -0.45593999997E+02  0.45594000000E+02  0.51100000000E-03 0. -1.
    9900012    2    1    2    0    0 -0.15058994602E+01  0.73035560073E+01 -0.31001788306E+02  0.59301944400E+02  0.50000000679E+02 0.  0.
        -12    1    1    2    0    0  0.15058994602E+01 -0.73035560073E+01  0.31001788306E+02  0.31886055600E+02  0.00000000000E+00 0.  1.
         11    1    3    3    0    0 -0.53619756753E+01  0.86719702482E+01 -0.27107945571E+02  0.28961950288E+02  0.51100000000E-03 0. -1.
        -11    1    3    3    0    0 -0.10089221174E+02  0.68320900133E+01  0.33166020090E+01  0.12628130780E+02  0.51100000000E-03 0.  1.
         12    1    3    3    0    0  0.13945297389E+02 -0.82005042542E+01 -0.72104447441E+01  0.17711863332E+02  0.00000000000E+00 0. -1.
</event>
<event>
 7    1  0.1290195E-011  0.5930194E+02  0.7816164E-02  0.1266605E+00
        -11   -1    0    0    0    0  0.00000000000E+00  0.00000000000E+00  0.45593999997E+02  0.45594000000E+02  0.51100000000E-03 0.  1.
         11   -1    0    0    0    0 -0.00000000000E+00 -0.00000000000E+00 -0.45593999997E+02  0.45594000000E+02  0.51100000000E-03 0. -1.
    9900012    2    1    2    0    0 -0.28017667845E+02  0.65820470057E+01 -0.13726181881E+02  0.59301935280E+02  0.49999984047E+02 0.  0.
        -12    1    1    2    0    0  0.28017667845E+02 -0.65820470057E+01  0.13726181881E+02  0.31886064720E+02  0.00000000000E+00 0.  1.
         11    1    3    3    0    0 -0.34916053150E+01 -0.18397574659E+01  0.13352207976E+02  0.13923270927E+02  0.51100000000E-03 0. -1.
        -11    1    3    3    0    0 -0.67819597142E+01 -0.36000447033E+01  0.31697106882E+01  0.83067662504E+01  0.51100000000E-03 0.  1.
         12    1    3    3    0    0 -0.17744102816E+02  0.12021849175E+02 -0.30248100546E+02  0.37071898103E+02  0.00000000000E+00 0. -1.
</event>
<event>
 7    1  0.1290195E-011  0.5930195E+02  0.7816164E-02  0.1266605E+00
        -11   -1    0    0    0    0  0.00000000000E+00  0.00000000000E+00  0.45593999997E+02  0.45594000000E+02  0.51100000000E-03 0. -1.
         11   -1    0    0    0    0 -0.00000000000E+00 -0.00000000000E+00 -0.45593999997E+02  0.45594000000E+02  0.51100000000E-03 0.  1.
    9900012    2    1    2    0    0 -0.27009894876E+02 -0.33653491483E+01  0.16609039756E+02  0.59301949795E+02  0.50000010517E+02 0.  0.
        -12    1    1    2    0    0  0.27009894876E+02  0.33653491483E+01 -0.16609039756E+02  0.31886050205E+02  0.00000000000E+00 0.  1.
         11    1    3    3    0    0  0.56897492445E+01  0.50157856380E+01  0.41885098153E+01  0.86645811651E+01  0.51100000000E-03 0. -1.
        -11    1    3    3    0    0 -0.11544257110E+02  0.47261072821E+01 -0.10874786223E+02  0.16548925582E+02  0.51100000000E-03 0.  1.
         12    1    3    3    0    0 -0.21155387010E+02 -0.13107242068E+02  0.23295316164E+02  0.34088443047E+02  0.00000000000E+00 0. -1.
</event>
<event>
 7    1  0.1290195E-011  0.5930193E+02  0.7816164E-02  0.1266605E+00
        -11   -1    0    0    0    0  0.00000000000E+00  0.00000000000E+00  0.45593999997E+02  0.45594000000E+02  0.51100000000E-03 0. -1.
         11   -1    0    0    0    0 -0.00000000000E+00 -0.00000000000E+00 -0.45593999997E+02  0.45594000000E+02  0.51100000000E-03 0.  1.
    9900012    2    1    2    0    0 -0.15151690161E+02  0.26793566719E+02  0.83217945813E+01  0.59301934119E+02  0.49999981930E+02 0.  0.
        -12    1    1    2    0    0  0.15151690161E+02 -0.26793566719E+02 -0.83217945813E+01  0.31886065881E+02  0.00000000000E+00 0.  1.
         11    1    3    3    0    0 -0.49976366236E+01  0.22925517912E+02  0.16727159635E+02  0.28815856973E+02  0.51100000000E-03 0. -1.
        -11    1    3    3    0    0  0.60813310795E+01 -0.73709755240E+01 -0.29335555244E+01  0.99959799995E+01  0.51100000000E-03 0.  1.
         12    1    3    3    0    0 -0.16235384617E+02  0.11239024331E+02 -0.54718095291E+01  0.20490097147E+02  0.00000000000E+00 0. -1.
</event>
<event>
 7    1  0.1290195E-011  0.5930196E+02  0.7816164E-02  0.1266605E+00
        -11   -1    0    0    0    0  0.00000000000E+00  0.00000000000E+00  0.45593999997E+02  0.45594000000E+02  0.51100000000E-03 0. -1.
         11   -1    0    0    0    0 -0.00000000000E+00 -0.00000000000E+00 -0.45593999997E+02  0.45594000000E+02  0.51100000000E-03 0.  1.
    9900012    2    1    2    0    0 -0.31007909965E+02 -0.51492440000E+01  0.53586020214E+01  0.59301955878E+02  0.50000021611E+02 0.  0.
        -12    1    1    2    0    0  0.31007909965E+02  0.51492440000E+01 -0.53586020214E+01  0.31886044122E+02  0.00000000000E+00 0.  1.
         11    1    3    3    0    0  0.54750293688E+00 -0.46945704859E+01 -0.88332556033E+01  0.10018241179E+02  0.51100000000E-03 0. -1.
        -11    1    3    3    0    0 -0.91239940992E+01 -0.58171741188E-01 -0.11820953084E+02  0.14932701844E+02  0.51100000000E-03 0.  1.
         12    1    3    3    0    0 -0.22431418802E+02 -0.39650177296E+00  0.26012810709E+02  0.34351012854E+02  0.00000000000E+00 0. -1.
</event>
<event>
 7    1  0.1290195E-011  0.5930194E+02  0.7816164E-02  0.1266605E+00
        -11   -1    0    0    0    0  0.00000000000E+00  0.00000000000E+00  0.45593999997E+02  0.45594000000E+02  0.51100000000E-03 0.  1.
         11   -1    0    0    0    0 -0.00000000000E+00 -0.00000000000E+00 -0.45593999997E+02  0.45594000000E+02  0.51100000000E-03 0. -1.
    9900012    2    1    2    0    0  0.32790994265E+00  0.20788051730E+02 -0.24175815736E+02  0.59301942135E+02  0.49999996549E+02 0.  0.
        -12    1    1    2    0    0 -0.32790994265E+00 -0.20788051730E+02  0.24175815736E+02  0.31886057865E+02  0.00000000000E+00 0.  1.
         11    1    3    3    0    0 -0.15112297137E+00 -0.15464464715E+01 -0.61923953058E+01  0.63843632985E+01  0.51100000000E-03 0. -1.
        -11    1    3    3    0    0 -0.13721720192E+01  0.58931163644E+01 -0.31175237825E+02  0.31757001279E+02  0.51100000000E-03 0.  1.
        -12    1    3    3    0    0  0.18512049332E+01  0.16441381837E+02  0.13191817395E+02  0.21160577558E+02  0.00000000000E+00 0.  1.
</event>
<event>
 7    1  0.1290195E-011  0.5930195E+02  0.7816164E-02  0.1266605E+00
        -11   -1    0    0    0    0  0.00000000000E+00  0.00000000000E+00  0.45593999997E+02  0.45594000000E+02  0.51100000000E-03 0.  1.
         11   -1    0    0    0    0 -0.00000000000E+00 -0.00000000000E+00 -0.45593999997E+02  0.45594000000E+02  0.51100000000E-03 0. -1.
    9900012    2    1    2    0    0  0.20946578139E+02  0.14162426126E+02 -0.19426446223E+02  0.59301948781E+02  0.50000008669E+02 0.  0.
        -12    1    1    2    0    0 -0.20946578139E+02 -0.14162426126E+02  0.19426446223E+02  0.31886051219E+02  0.00000000000E+00 0.  1.
         11    1    3    3    0    0  0.37097301376E+01 -0.62434561741E+00  0.35243840713E+01  0.51549188633E+01  0.51100000000E-03 0.  1.
        -11    1    3    3    0    0  0.18575293097E+02  0.10286042847E+02 -0.35155586663E+02  0.41070177318E+02  0.51100000000E-03 0. -1.
         12    1    3    3    0    0 -0.13384450963E+01  0.45007288968E+01  0.12204756369E+02  0.13076852599E+02  0.00000000000E+00 0. -1.
</event>
<event>
 7    1  0.1290195E-011  0.5930193E+02  0.7816164E-02  0.1266605E+00
        -11   -1    0    0    0    0  0.00000000000E+00  0.00000000000E+00  0.45593999997E+02  0.45594000000E+02  0.51100000000E-03 0. -1.
         11   -1    0    0    0    0 -0.00000000000E+00 -0.00000000000E+00 -0.45593999997E+02  0.45594000000E+02  0.51100000000E-03 0.  1.
    9900012    2    1    2    0    0  0.24095583524E+02 -0.20876066261E+02  0.56022920939E+00  0.59301934945E+02  0.49999983436E+02 0.  0.
        -12    1    1    2    0    0 -0.24095583524E+02  0.20876066261E+02 -0.56022920939E+00  0.31886065055E+02  0.00000000000E+00 0.  1.
         11    1    3    3    0    0  0.24874250831E+02 -0.22401692670E+02 -0.31862876667E+01  0.33626129992E+02  0.51100000000E-03 0. -1.
        -11    1    3    3    0    0  0.43611734392E+00 -0.11779168123E+02  0.35645707643E+01  0.12314429138E+02  0.51100000000E-03 0.  1.
        -12    1    3    3    0    0 -0.12147846513E+01  0.13304794532E+02  0.18194611178E+00  0.13361375815E+02  0.00000000000E+00 0.  1.
</event>
<event>
 7    1  0.1290195E-011  0.5930188E+02  0.7816164E-02  0.1266605E+00
        -11   -1    0    0    0    0  0.00000000000E+00  0.00000000000E+00  0.45593999997E+02  0.45594000000E+02  0.51100000000E-03 0.  1.
         11   -1    0    0    0    0 -0.00000000000E+00 -0.00000000000E+00 -0.45593999997E+02  0.45594000000E+02  0.51100000000E-03 0. -1.
    9900012    2    1    2    0    0 -0.10926253509E+02 -0.29676368774E+02  0.40810267256E+01  0.59301879845E+02  0.49999882947E+02 0.  0.
        -12    1    1    2    0    0  0.10926253509E+02  0.29676368774E+02 -0.40810267256E+01  0.31886120155E+02  0.00000000000E+00 0.  1.
         11    1    3    3    0    0  0.36781526473E+01 -0.34051406883E+02  0.41023771902E+01  0.34494298318E+02  0.51100000000E-03 0. -1.
        -11    1    3    3    0    0 -0.92636784169E+01  0.12222438458E+01  0.95768386052E+01  0.13380039453E+02  0.51100000000E-03 0.  1.
        -12    1    3    3    0    0 -0.53407277393E+01  0.31527942623E+01 -0.95981890698E+01  0.11427542075E+02  0.00000000000E+00 0.  1.
</event>
<event>
 7    1  0.1290195E-011  0.5930193E+02  0.7816164E-02  0.1266605E+00
        -11   -1    0    0    0    0  0.00000000000E+00  0.00000000000E+00  0.45593999997E+02  0.45594000000E+02  0.51100000000E-03 0.  1.
         11   -1    0    0    0    0 -0.00000000000E+00 -0.00000000000E+00 -0.45593999997E+02  0.45594000000E+02  0.51100000000E-03 0. -1.
    9900012    2    1    2    0    0  0.93834907419E+01  0.30473237570E+02  0.23167249927E+00  0.59301925004E+02  0.49999965306E+02 0.  0.
        -12    1    1    2    0    0 -0.93834907419E+01 -0.30473237570E+02 -0.23167249927E+00  0.31886074996E+02  0.00000000000E+00 0.  1.
         11    1    3    3    0    0  0.33205101801E+01  0.22552331000E+02 -0.15622513886E+02  0.27635056753E+02  0.51100000000E-03 0. -1.
        -11    1    3    3    0    0 -0.42583505645E+01  0.13606058197E+02  0.36803867102E+01  0.14724252640E+02  0.51100000000E-03 0.  1.
         12    1    3    3    0    0  0.10321331126E+02 -0.56851516272E+01  0.12173799675E+02  0.16942615612E+02  0.00000000000E+00 0. -1.
</event>
<event>
 7    1  0.2116658E-011  0.5930196E+02  0.7816164E-02  0.1266605E+00
        -11   -1    0    0    0    0  0.00000000000E+00  0.00000000000E+00  0.45593999997E+02  0.45594000000E+02  0.51100000000E-03 0. -1.
         11   -1    0    0    0    0 -0.00000000000E+00 -0.00000000000E+00 -0.45593999997E+02  0.45594000000E+02  0.51100000000E-03 0.  1.
    9900012    2    1    2    0    0  0.89678735947E+01  0.17602379633E+02  0.25029039407E+02  0.59301963256E+02  0.50000035068E+02 0.  0.
        -12    1    1    2    0    0 -0.89678735947E+01 -0.17602379633E+02 -0.25029039407E+02  0.31886036744E+02  0.00000000000E+00 0.  1.
         11    1    3    3    0    0  0.46443288707E+01  0.49266900415E+01  0.25711515971E+02  0.26588044667E+02  0.51100000000E-03 0. -1.
        -11    1    3    3    0    0  0.16987106413E+02  0.94807764199E+01  0.13312847893E+01  0.19499210888E+02  0.51100000000E-03 0.  1.
        -12    1    3    3    0    0 -0.12663561689E+02  0.31949131720E+01 -0.20137613532E+01  0.13214707701E+02  0.00000000000E+00 0.  1.
</event>
<event>
 7    1  0.1290195E-011  0.5930196E+02  0.7816164E-02  0.1266605E+00
        -11   -1    0    0    0    0  0.00000000000E+00  0.00000000000E+00  0.45593999997E+02  0.45594000000E+02  0.51100000000E-03 0. -1.
         11   -1    0    0    0    0 -0.00000000000E+00 -0.00000000000E+00 -0.45593999997E+02  0.45594000000E+02  0.51100000000E-03 0.  1.
    9900012    2    1    2    0    0  0.10352707908E+02 -0.27338400589E+02 -0.12733918242E+02  0.59301962592E+02  0.50000033856E+02 0.  0.
        -12    1    1    2    0    0 -0.10352707908E+02  0.27338400589E+02  0.12733918242E+02  0.31886037408E+02  0.00000000000E+00 0.  1.
         11    1    3    3    0    0 -0.54200245276E+01 -0.88816659217E+01 -0.11214630383E+02  0.15297993015E+02  0.51100000000E-03 0.  1.
        -11    1    3    3    0    0 -0.13857861978E+01 -0.19832048219E+02 -0.12595649157E+02  0.23534674799E+02  0.51100000000E-03 0. -1.
        -12    1    3    3    0    0  0.17158518634E+02  0.13753135514E+01  0.11076361298E+02  0.20469294777E+02  0.00000000000E+00 0.  1.
</event>
<event>
 7    1  0.1290195E-011  0.5930199E+02  0.7816164E-02  0.1266605E+00
        -11   -1    0    0    0    0  0.00000000000E+00  0.00000000000E+00  0.45593999997E+02  0.45594000000E+02  0.51100000000E-03 0.  1.
         11   -1    0    0    0    0 -0.00000000000E+00 -0.00000000000E+00 -0.45593999997E+02  0.45594000000E+02  0.51100000000E-03 0. -1.
    9900012    2    1    2    0    0 -0.89365186893E+01  0.49315620846E+01 -0.30208208713E+02  0.59301991399E+02  0.50000086394E+02 0.  0.
        -12    1    1    2    0    0  0.89365186893E+01 -0.49315620846E+01  0.30208208713E+02  0.31886008601E+02  0.00000000000E+00 0.  1.
         11    1    3    3    0    0  0.93309398205E+01  0.21817532780E+00 -0.19353744584E+02  0.21486774260E+02  0.51100000000E-03 0.  1.
        -11    1    3    3    0    0 -0.10155899575E+02 -0.30690184246E+01 -0.20448227671E+02  0.23036735563E+02  0.51100000000E-03 0. -1.
         12    1    3    3    0    0 -0.81115589352E+01  0.77824051815E+01  0.95937635427E+01  0.14778481576E+02  0.00000000000E+00 0. -1.
</event>
<event>
 7    1  0.1290195E-011  0.5930192E+02  0.7816164E-02  0.1266605E+00
        -11   -1    0    0    0    0  0.00000000000E+00  0.00000000000E+00  0.45593999997E+02  0.45594000000E+02  0.51100000000E-03 0. -1.
         11   -1    0    0    0    0 -0.00000000000E+00 -0.00000000000E+00 -0.45593999997E+02  0.45594000000E+02  0.51100000000E-03 0.  1.
    9900012    2    1    2    0    0 -0.30982003431E+02  0.72333362941E+01 -0.21251502368E+01  0.59301922253E+02  0.49999960288E+02 0.  0.
        -12    1    1    2    0    0  0.30982003431E+02 -0.72333362941E+01  0.21251502368E+01  0.31886077747E+02  0.00000000000E+00 0.  1.
         11    1    3    3    0    0 -0.27981243875E+02  0.17806137018E+02  0.14918744471E+02  0.36367258092E+02  0.51100000000E-03 0. -1.
        -11    1    3    3    0    0 -0.33409921600E+01 -0.64172416646E+00 -0.23743068039E+00  0.34103390019E+01  0.51100000000E-03 0.  1.
        -12    1    3    3    0    0  0.34023260379E+00 -0.99310765574E+01 -0.16806464027E+02  0.19524325159E+02  0.00000000000E+00 0.  1.
</event>
<event>
 7    1  0.1290195E-011  0.5930196E+02  0.7816164E-02  0.1266605E+00
        -11   -1    0    0    0    0  0.00000000000E+00  0.00000000000E+00  0.45593999997E+02  0.45594000000E+02  0.51100000000E-03 0. -1.
         11   -1    0    0    0    0 -0.00000000000E+00 -0.00000000000E+00 -0.45593999997E+02  0.45594000000E+02  0.51100000000E-03 0.  1.
    9900012    2    1    2    0    0  0.12067601684E+02  0.28830584978E+02  0.63158521971E+01  0.59301958703E+02  0.50000026765E+02 0.  0.
        -12    1    1    2    0    0 -0.12067601684E+02 -0.28830584978E+02 -0.63158521971E+01  0.31886041297E+02  0.00000000000E+00 0.  1.
         11    1    3    3    0    0  0.21243971799E+02  0.18156966016E+02 -0.40577268630E+01  0.28239102327E+02  0.51100000000E-03 0. -1.
        -11    1    3    3    0    0  0.88176456604E+00  0.15743225398E+02  0.26209513135E-01  0.15767921293E+02  0.51100000000E-03 0.  1.
         12    1    3    3    0    0 -0.10058134681E+02 -0.50696064354E+01  0.10347369547E+02  0.15294935084E+02  0.00000000000E+00 0. -1.
</event>
<event>
 7    1  0.1290195E-011  0.5930194E+02  0.7816164E-02  0.1266605E+00
        -11   -1    0    0    0    0  0.00000000000E+00  0.00000000000E+00  0.45593999997E+02  0.45594000000E+02  0.51100000000E-03 0. -1.
         11   -1    0    0    0    0 -0.00000000000E+00 -0.00000000000E+00 -0.45593999997E+02  0.45594000000E+02  0.51100000000E-03 0.  1.
    9900012    2    1    2    0    0  0.61053448796E+01  0.31273215086E+02  0.11966232869E+01  0.59301935250E+02  0.49999983992E+02 0.  0.
        -12    1    1    2    0    0 -0.61053448796E+01 -0.31273215086E+02 -0.11966232869E+01  0.31886064750E+02  0.00000000000E+00 0.  1.
         11    1    3    3    0    0  0.78863983627E+01  0.26947577353E+02  0.10558070281E+02  0.29997334093E+02  0.51100000000E-03 0. -1.
        -11    1    3    3    0    0  0.72398169617E+01  0.12224516534E+02 -0.19002593561E+00  0.14208795313E+02  0.51100000000E-03 0.  1.
        -12    1    3    3    0    0 -0.90208704448E+01 -0.78988788008E+01 -0.91714210581E+01  0.15095805845E+02  0.00000000000E+00 0.  1.
</event>
<event>
 7    1  0.1290195E-011  0.5930195E+02  0.7816164E-02  0.1266605E+00
        -11   -1    0    0    0    0  0.00000000000E+00  0.00000000000E+00  0.45593999997E+02  0.45594000000E+02  0.51100000000E-03 0. -1.
         11   -1    0    0    0    0 -0.00000000000E+00 -0.00000000000E+00 -0.45593999997E+02  0.45594000000E+02  0.51100000000E-03 0.  1.
    9900012    2    1    2    0    0  0.16605945688E+02 -0.20001508256E+02  0.18463547256E+02  0.59301947532E+02  0.50000006391E+02 0.  0.
        -12    1    1    2    0    0 -0.16605945688E+02  0.20001508256E+02 -0.18463547256E+02  0.31886052468E+02  0.00000000000E+00 0.  1.
         11    1    3    3    0    0  0.28096463144E+02 -0.20380081126E+02  0.69162482066E+01  0.35391996799E+02  0.51100000000E-03 0. -1.
        -11    1    3    3    0    0 -0.26907463404E+01 -0.81774042815E+01  0.39176234165E+01  0.94582149556E+01  0.51100000000E-03 0.  1.
        -12    1    3    3    0    0 -0.87997711158E+01  0.85559771515E+01  0.76296756326E+01  0.14451735777E+02  0.00000000000E+00 0.  1.
</event>
<event>
 7    1  0.1290195E-011  0.5930193E+02  0.7816164E-02  0.1266605E+00
        -11   -1    0    0    0    0  0.00000000000E+00  0.00000000000E+00  0.45593999997E+02  0.45594000000E+02  0.51100000000E-03 0. -1.
         11   -1    0    0    0    0 -0.00000000000E+00 -0.00000000000E+00 -0.45593999997E+02  0.45594000000E+02  0.51100000000E-03 0.  1.
    9900012    2    1    2    0    0  0.26188074754E+02 -0.11166901757E+02  0.14359884429E+02  0.59301933529E+02  0.49999980853E+02 0.  0.
        -12    1    1    2    0    0 -0.26188074754E+02  0.11166901757E+02 -0.14359884429E+02  0.31886066471E+02  0.00000000000E+00 0.  1.
         11    1    3    3    0    0  0.57751900022E+01 -0.14992828278E+02  0.11366053359E+02  0.19680571347E+02  0.51100000000E-03 0. -1.
        -11    1    3    3    0    0  0.11869971145E+01 -0.11091638048E+02  0.92548236601E+01  0.14494314678E+02  0.51100000000E-03 0.  1.
         12    1    3    3    0    0  0.19225887637E+02  0.14917564568E+02 -0.62609925902E+01  0.25127047505E+02  0.00000000000E+00 0. -1.
</event>
<event>
 7    1  0.1290195E-011  0.5930194E+02  0.7816164E-02  0.1266605E+00
        -11   -1    0    0    0    0  0.00000000000E+00  0.00000000000E+00  0.45593999997E+02  0.45594000000E+02  0.51100000000E-03 0. -1.
         11   -1    0    0    0    0 -0.00000000000E+00 -0.00000000000E+00 -0.45593999997E+02  0.45594000000E+02  0.51100000000E-03 0.  1.
    9900012    2    1    2    0    0  0.56245694447E+01 -0.30852539467E+02  0.57624338872E+01  0.59301943215E+02  0.49999998518E+02 0.  0.
        -12    1    1    2    0    0 -0.56245694447E+01  0.30852539467E+02 -0.57624338872E+01  0.31886056785E+02  0.00000000000E+00 0.  1.
         11    1    3    3    0    0 -0.62394037406E+01 -0.59976619631E+01  0.49458323304E+01  0.99681174633E+01  0.51100000000E-03 0. -1.
        -11    1    3    3    0    0  0.12087169367E+01  0.10018072941E+02 -0.66870090894E+01  0.12105324155E+02  0.51100000000E-03 0.  1.
         12    1    3    3    0    0  0.10655256249E+02 -0.34872950444E+02  0.75036106463E+01  0.37228501597E+02  0.00000000000E+00 0. -1.
</event>
<event>
 7    1  0.1290195E-011  0.5930196E+02  0.7816164E-02  0.1266605E+00
        -11   -1    0    0    0    0  0.00000000000E+00  0.00000000000E+00  0.45593999997E+02  0.45594000000E+02  0.51100000000E-03 0. -1.
         11   -1    0    0    0    0 -0.00000000000E+00 -0.00000000000E+00 -0.45593999997E+02  0.45594000000E+02  0.51100000000E-03 0.  1.
    9900012    2    1    2    0    0  0.27702866690E+02 -0.15098418065E+02 -0.46161430295E+01  0.59301955602E+02  0.50000021108E+02 0.  0.
        -12    1    1    2    0    0 -0.27702866690E+02  0.15098418065E+02  0.46161430295E+01  0.31886044398E+02  0.00000000000E+00 0.  1.
         11    1    3    3    0    0  0.73529113974E+00 -0.73526599216E+01  0.20820953039E+01  0.76770685876E+01  0.51100000000E-03 0.  1.
        -11    1    3    3    0    0  0.43411803643E+01  0.41666991487E+01  0.16211657225E+02  0.17292341050E+02  0.51100000000E-03 0. -1.
         12    1    3    3    0    0  0.22626395186E+02 -0.11912457293E+02 -0.22909895559E+02  0.34332545964E+02  0.00000000000E+00 0. -1.
</event>
<event>
 7    1  0.1290195E-011  0.5930193E+02  0.7816164E-02  0.1266605E+00
        -11   -1    0    0    0    0  0.00000000000E+00  0.00000000000E+00  0.45593999997E+02  0.45594000000E+02  0.51100000000E-03 0.  1.
         11   -1    0    0    0    0 -0.00000000000E+00 -0.00000000000E+00 -0.45593999997E+02  0.45594000000E+02  0.51100000000E-03 0. -1.
    9900012    2    1    2    0    0 -0.45031332725E+01 -0.30756576394E+02 -0.71046720427E+01  0.59301928345E+02  0.49999971398E+02 0.  0.
        -12    1    1    2    0    0  0.45031332725E+01  0.30756576394E+02  0.71046720427E+01  0.31886071655E+02  0.00000000000E+00 0.  1.
         11    1    3    3    0    0  0.52799385664E+00 -0.17284402531E+02 -0.14135786222E+02  0.22334945730E+02  0.51100000000E-03 0. -1.
        -11    1    3    3    0    0  0.14707996516E+01  0.86370026041E+01 -0.58797616445E+01  0.10551429422E+02  0.51100000000E-03 0.  1.
        -12    1    3    3    0    0 -0.65019267807E+01 -0.22109176468E+02  0.12910875824E+02  0.26415553193E+02  0.00000000000E+00 0.  1.
</event>
<event>
 7    1  0.1290195E-011  0.5930196E+02  0.7816164E-02  0.1266605E+00
        -11   -1    0    0    0    0  0.00000000000E+00  0.00000000000E+00  0.45593999997E+02  0.45594000000E+02  0.51100000000E-03 0.  1.
         11   -1    0    0    0    0 -0.00000000000E+00 -0.00000000000E+00 -0.45593999997E+02  0.45594000000E+02  0.51100000000E-03 0. -1.
    9900012    2    1    2    0    0 -0.30762842594E+00 -0.16612633032E+02 -0.27214795521E+02  0.59301963765E+02  0.50000035997E+02 0.  0.
        -12    1    1    2    0    0  0.30762842594E+00  0.16612633032E+02  0.27214795521E+02  0.31886036235E+02  0.00000000000E+00 0.  1.
         11    1    3    3    0    0  0.21763836161E+01 -0.34703444790E+01 -0.10195795093E+02  0.10987910370E+02  0.51100000000E-03 0. -1.
        -11    1    3    3    0    0 -0.20153783095E+02 -0.13367326761E+02 -0.18689601503E+02  0.30564057361E+02  0.51100000000E-03 0.  1.
        -12    1    3    3    0    0  0.17669771053E+02  0.22503820757E+00  0.16706010750E+01  0.17749996035E+02  0.00000000000E+00 0.  1.
</event>
<event>
 7    1  0.1290195E-011  0.5930191E+02  0.7816164E-02  0.1266605E+00
        -11   -1    0    0    0    0  0.00000000000E+00  0.00000000000E+00  0.45593999997E+02  0.45594000000E+02  0.51100000000E-03 0.  1.
         11   -1    0    0    0    0 -0.00000000000E+00 -0.00000000000E+00 -0.45593999997E+02  0.45594000000E+02  0.51100000000E-03 0. -1.
    9900012    2    1    2    0    0 -0.51117783374E+01  0.19536535028E+02 -0.24676222659E+02  0.59301914580E+02  0.49999946295E+02 0.  0.
        -12    1    1    2    0    0  0.51117783374E+01 -0.19536535028E+02  0.24676222659E+02  0.31886085420E+02  0.00000000000E+00 0.  1.
         11    1    3    3    0    0 -0.14957249654E+01 -0.10338097830E+01  0.16332970687E+00  0.18255499702E+01  0.51100000000E-03 0. -1.
        -11    1    3    3    0    0 -0.13121524082E+02  0.16837595687E+02  0.82206657302E+01  0.22874841378E+02  0.51100000000E-03 0.  1.
         12    1    3    3    0    0  0.95054707100E+01  0.37327491248E+01 -0.33060218096E+02  0.34601523232E+02  0.00000000000E+00 0. -1.
</event>
<event>
 7    1  0.1290195E-011  0.5930197E+02  0.7816164E-02  0.1266605E+00
        -11   -1    0    0    0    0  0.00000000000E+00  0.00000000000E+00  0.45593999997E+02  0.45594000000E+02  0.51100000000E-03 0.  1.
         11   -1    0    0    0    0 -0.00000000000E+00 -0.00000000000E+00 -0.45593999997E+02  0.45594000000E+02  0.51100000000E-03 0. -1.
    9900012    2    1    2    0    0 -0.13576970252E+02  0.82988997104E+01 -0.27631741201E+02  0.59301968898E+02  0.50000045357E+02 0.  0.
        -12    1    1    2    0    0  0.13576970252E+02 -0.82988997104E+01  0.27631741201E+02  0.31886031102E+02  0.00000000000E+00 0.  1.
         11    1    3    3    0    0 -0.19827559141E+02 -0.10045588867E+02 -0.24677997877E+02  0.33212189579E+02  0.51100000000E-03 0. -1.
        -11    1    3    3    0    0 -0.11320285716E+01 -0.93187783135E+00 -0.51283211287E+01  0.53338131613E+01  0.51100000000E-03 0.  1.
        -12    1    3    3    0    0  0.73826174605E+01  0.19276366409E+02  0.21745778047E+01  0.20755966157E+02  0.00000000000E+00 0.  1.
</event>
<event>
 7    1  0.1290195E-011  0.5930192E+02  0.7816164E-02  0.1266605E+00
        -11   -1    0    0    0    0  0.00000000000E+00  0.00000000000E+00  0.45593999997E+02  0.45594000000E+02  0.51100000000E-03 0.  1.
         11   -1    0    0    0    0 -0.00000000000E+00 -0.00000000000E+00 -0.45593999997E+02  0.45594000000E+02  0.51100000000E-03 0. -1.
    9900012    2    1    2    0    0 -0.13568652593E+01 -0.19609457054E+02 -0.25106775398E+02  0.59301920589E+02  0.49999957253E+02 0.  0.
        -12    1    1    2    0    0  0.13568652593E+01  0.19609457054E+02  0.25106775398E+02  0.31886079411E+02  0.00000000000E+00 0.  1.
         11    1    3    3    0    0  0.52553878477E+01 -0.41376935837E+01 -0.18297131397E+02  0.19481391820E+02  0.51100000000E-03 0. -1.
        -11    1    3    3    0    0  0.80058352561E+01 -0.16993583887E+02 -0.14029597966E+02  0.23445786633E+02  0.51100000000E-03 0.  1.
        -12    1    3    3    0    0 -0.14618088363E+02  0.15218204165E+01  0.72199539649E+01  0.16374742136E+02  0.00000000000E+00 0.  1.
</event>
<event>
 7    1  0.1290195E-011  0.5930174E+02  0.7816164E-02  0.1266605E+00
        -11   -1    0    0    0    0  0.00000000000E+00  0.00000000000E+00  0.45593999997E+02  0.45594000000E+02  0.51100000000E-03 0.  1.
         11   -1    0    0    0    0 -0.00000000000E+00 -0.00000000000E+00 -0.45593999997E+02  0.45594000000E+02  0.51100000000E-03 0. -1.
    9900012    2    1    2    0    0 -0.13897719953E+02  0.90816649082E+01 -0.27223337617E+02  0.59301743267E+02  0.49999633859E+02 0.  0.
        -12    1    1    2    0    0  0.13897719953E+02 -0.90816649082E+01  0.27223337617E+02  0.31886256733E+02  0.00000000000E+00 0.  1.
         11    1    3    3    0    0  0.72916325020E+01  0.11785032407E+02  0.50990318066E+01  0.14766686121E+02  0.51100000000E-03 0. -1.
        -11    1    3    3    0    0 -0.11951905189E+02 -0.11712668008E+02 -0.12518901252E+02  0.20898744420E+02  0.51100000000E-03 0.  1.
         12    1    3    3    0    0 -0.92374472665E+01  0.90093005092E+01 -0.19803468172E+02  0.23636312726E+02  0.00000000000E+00 0. -1.
</event>
<event>
 7    1  0.1290195E-011  0.5930192E+02  0.7816164E-02  0.1266605E+00
        -11   -1    0    0    0    0  0.00000000000E+00  0.00000000000E+00  0.45593999997E+02  0.45594000000E+02  0.51100000000E-03 0. -1.
         11   -1    0    0    0    0 -0.00000000000E+00 -0.00000000000E+00 -0.45593999997E+02  0.45594000000E+02  0.51100000000E-03 0.  1.
    9900012    2    1    2    0    0 -0.24425143182E+02 -0.17150179598E+02  0.11225236889E+02  0.59301918038E+02  0.49999952600E+02 0.  0.
        -12    1    1    2    0    0  0.24425143182E+02  0.17150179598E+02 -0.11225236889E+02  0.31886081962E+02  0.00000000000E+00 0.  1.
         11    1    3    3    0    0  0.28312828501E+01 -0.13916943442E+01  0.16539888111E+02  0.16838078118E+02  0.51100000000E-03 0.  1.
        -11    1    3    3    0    0 -0.13013944606E+02 -0.22573050091E+02 -0.90807149955E+00  0.26071630918E+02  0.51100000000E-03 0. -1.
        -12    1    3    3    0    0 -0.14242481426E+02  0.68145648372E+01 -0.44065797227E+01  0.16392209002E+02  0.00000000000E+00 0.  1.
</event>
<event>
 7    1  0.1290195E-011  0.5930188E+02  0.7816164E-02  0.1266605E+00
        -11   -1    0    0    0    0  0.00000000000E+00  0.00000000000E+00  0.45593999997E+02  0.45594000000E+02  0.51100000000E-03 0.  1.
         11   -1    0    0    0    0 -0.00000000000E+00 -0.00000000000E+00 -0.45593999997E+02  0.45594000000E+02  0.51100000000E-03 0. -1.
    9900012    2    1    2    0    0 -0.48898614138E+01 -0.28522489210E+02 -0.13389615779E+02  0.59301875336E+02  0.49999874722E+02 0.  0.
        -12    1    1    2    0    0  0.48898614138E+01  0.28522489210E+02  0.13389615779E+02  0.31886124664E+02  0.00000000000E+00 0.  1.
         11    1    3    3    0    0 -0.48105871535E+01  0.43960977171E+01 -0.46274982391E+01  0.79925693062E+01  0.51100000000E-03 0. -1.
        -11    1    3    3    0    0  0.13678271003E+02 -0.18527959967E+01 -0.10417651171E+02  0.17293218521E+02  0.51100000000E-03 0.  1.
        -12    1    3    3    0    0 -0.13757545263E+02 -0.31065790930E+02  0.16555336305E+01  0.34016087509E+02  0.00000000000E+00 0.  1.
</event>
<event>
 7    1  0.1290195E-011  0.5930189E+02  0.7816164E-02  0.1266605E+00
        -11   -1    0    0    0    0  0.00000000000E+00  0.00000000000E+00  0.45593999997E+02  0.45594000000E+02  0.51100000000E-03 0.  1.
         11   -1    0    0    0    0 -0.00000000000E+00 -0.00000000000E+00 -0.45593999997E+02  0.45594000000E+02  0.51100000000E-03 0. -1.
    9900012    2    1    2    0    0  0.29578262010E+02  0.10601009385E+02  0.54285349703E+01  0.59301890557E+02  0.49999902481E+02 0.  0.
        -12    1    1    2    0    0 -0.29578262010E+02 -0.10601009385E+02 -0.54285349703E+01  0.31886109443E+02  0.00000000000E+00 0.  1.
         11    1    3    3    0    0  0.60878341749E+01  0.34426729543E+01 -0.38502361202E+01  0.79836107404E+01  0.51100000000E-03 0. -1.
        -11    1    3    3    0    0  0.84402913768E+01  0.23645867637E+02  0.13639443525E+02  0.28572714165E+02  0.51100000000E-03 0.  1.
         12    1    3    3    0    0  0.15050136458E+02 -0.16487531206E+02 -0.43606724344E+01  0.22745565651E+02  0.00000000000E+00 0. -1.
</event>
<event>
 7    1  0.1290195E-011  0.5930192E+02  0.7816164E-02  0.1266605E+00
        -11   -1    0    0    0    0  0.00000000000E+00  0.00000000000E+00  0.45593999997E+02  0.45594000000E+02  0.51100000000E-03 0. -1.
         11   -1    0    0    0    0 -0.00000000000E+00 -0.00000000000E+00 -0.45593999997E+02  0.45594000000E+02  0.51100000000E-03 0.  1.
    9900012    2    1    2    0    0 -0.27746216798E+02  0.15593203879E+02  0.19291240291E+01  0.59301920383E+02  0.49999956878E+02 0.  0.
        -12    1    1    2    0    0  0.27746216798E+02 -0.15593203879E+02 -0.19291240291E+01  0.31886079617E+02  0.00000000000E+00 0.  1.
         11    1    3    3    0    0  0.68442913589E+01 -0.81227398582E+00  0.48221126994E+00  0.69091708043E+01  0.51100000000E-03 0. -1.
        -11    1    3    3    0    0  0.70940090116E+01  0.61612749128E+01 -0.63441507235E+00  0.94174707408E+01  0.51100000000E-03 0.  1.
        -12    1    3    3    0    0 -0.41684517168E+02  0.10244202952E+02  0.20813278316E+01  0.42975278838E+02  0.00000000000E+00 0.  1.
</event>
<event>
 7    1  0.1290195E-011  0.5930189E+02  0.7816164E-02  0.1266605E+00
        -11   -1    0    0    0    0  0.00000000000E+00  0.00000000000E+00  0.45593999997E+02  0.45594000000E+02  0.51100000000E-03 0.  1.
         11   -1    0    0    0    0 -0.00000000000E+00 -0.00000000000E+00 -0.45593999997E+02  0.45594000000E+02  0.51100000000E-03 0. -1.
    9900012    2    1    2    0    0  0.77160464424E+01 -0.22716547895E+02 -0.21003450875E+02  0.59301892216E+02  0.49999905508E+02 0.  0.
        -12    1    1    2    0    0 -0.77160464424E+01  0.22716547895E+02  0.21003450875E+02  0.31886107784E+02  0.00000000000E+00 0.  1.
         11    1    3    3    0    0  0.77636542276E+01 -0.10297425619E+02 -0.31092137162E+02  0.33660545077E+02  0.51100000000E-03 0. -1.
        -11    1    3    3    0    0 -0.84140253256E+01 -0.81238333281E+01 -0.20598960246E+00  0.11697646007E+02  0.51100000000E-03 0.  1.
        -12    1    3    3    0    0  0.83664175404E+01 -0.42952889470E+01  0.10294675889E+02  0.13943701132E+02  0.00000000000E+00 0.  1.
</event>
<event>
 7    1  0.1290195E-011  0.5930193E+02  0.7816164E-02  0.1266605E+00
        -11   -1    0    0    0    0  0.00000000000E+00  0.00000000000E+00  0.45593999997E+02  0.45594000000E+02  0.51100000000E-03 0.  1.
         11   -1    0    0    0    0 -0.00000000000E+00 -0.00000000000E+00 -0.45593999997E+02  0.45594000000E+02  0.51100000000E-03 0. -1.
    9900012    2    1    2    0    0  0.16063533282E+02 -0.73699492539E+01 -0.26539932754E+02  0.59301932759E+02  0.49999979448E+02 0.  0.
        -12    1    1    2    0    0 -0.16063533282E+02  0.73699492539E+01  0.26539932754E+02  0.31886067241E+02  0.00000000000E+00 0.  1.
         11    1    3    3    0    0  0.19139918626E+01 -0.12096722713E+02 -0.15375614878E+02  0.19657151330E+02  0.51100000000E-03 0. -1.
        -11    1    3    3    0    0  0.93312204484E+01 -0.75862338278E+01  0.93538046374E+01  0.15235362818E+02  0.51100000000E-03 0.  1.
        -12    1    3    3    0    0  0.48183209710E+01  0.12313007287E+02 -0.20518122514E+02  0.24409418611E+02  0.00000000000E+00 0.  1.
</event>
<event>
 7    1  0.1290195E-011  0.5930195E+02  0.7816164E-02  0.1266605E+00
        -11   -1    0    0    0    0  0.00000000000E+00  0.00000000000E+00  0.45593999997E+02  0.45594000000E+02  0.51100000000E-03 0. -1.
         11   -1    0    0    0    0 -0.00000000000E+00 -0.00000000000E+00 -0.45593999997E+02  0.45594000000E+02  0.51100000000E-03 0.  1.
    9900012    2    1    2    0    0 -0.53161215250E+01 -0.25508309179E+02  0.18378940908E+02  0.59301945773E+02  0.50000003184E+02 0.  0.
        -12    1    1    2    0    0  0.53161215250E+01  0.25508309179E+02 -0.18378940908E+02  0.31886054227E+02  0.00000000000E+00 0.  1.
         11    1    3    3    0    0  0.13442954291E+02 -0.45566143373E+01  0.42208847734E+01  0.14808498331E+02  0.51100000000E-03 0. -1.
        -11    1    3    3    0    0  0.58318930618E+01  0.40021477882E+01  0.33759788425E+01  0.78374356144E+01  0.51100000000E-03 0.  1.
         12    1    3    3    0    0 -0.24590968878E+02 -0.24953842630E+02  0.10782077292E+02  0.36656011828E+02  0.00000000000E+00 0. -1.
</event>
<event>
 7    1  0.1290195E-011  0.5930192E+02  0.7816164E-02  0.1266605E+00
        -11   -1    0    0    0    0  0.00000000000E+00  0.00000000000E+00  0.45593999997E+02  0.45594000000E+02  0.51100000000E-03 0.  1.
         11   -1    0    0    0    0 -0.00000000000E+00 -0.00000000000E+00 -0.45593999997E+02  0.45594000000E+02  0.51100000000E-03 0. -1.
    9900012    2    1    2    0    0 -0.64854315379E+01  0.16291881809E+02 -0.26631482129E+02  0.59301920350E+02  0.49999956817E+02 0.  0.
        -12    1    1    2    0    0  0.64854315379E+01 -0.16291881809E+02  0.26631482129E+02  0.31886079650E+02  0.00000000000E+00 0.  1.
         11    1    3    3    0    0 -0.28825828638E+01 -0.58742457107E+01 -0.28234928233E+01  0.71265811313E+01  0.51100000000E-03 0. -1.
        -11    1    3    3    0    0  0.89921912806E+01  0.42080277216E+01  0.85373516989E+01  0.13094020606E+02  0.51100000000E-03 0.  1.
         12    1    3    3    0    0 -0.12595039955E+02  0.17958099798E+02 -0.32345341004E+02  0.39081318613E+02  0.00000000000E+00 0. -1.
</event>
<event>
 7    1  0.1290195E-011  0.5930194E+02  0.7816164E-02  0.1266605E+00
        -11   -1    0    0    0    0  0.00000000000E+00  0.00000000000E+00  0.45593999997E+02  0.45594000000E+02  0.51100000000E-03 0.  1.
         11   -1    0    0    0    0 -0.00000000000E+00 -0.00000000000E+00 -0.45593999997E+02  0.45594000000E+02  0.51100000000E-03 0. -1.
    9900012    2    1    2    0    0 -0.30121579482E+02  0.97935963476E+01 -0.36737698655E+01  0.59301942468E+02  0.49999997156E+02 0.  0.
        -12    1    1    2    0    0  0.30121579482E+02 -0.97935963476E+01  0.36737698655E+01  0.31886057532E+02  0.00000000000E+00 0.  1.
         11    1    3    3    0    0 -0.21278308242E+02  0.53939521862E+01  0.70433317028E+01  0.23053625388E+02  0.51100000000E-03 0. -1.
        -11    1    3    3    0    0 -0.15814060114E+02  0.36495901964E+01  0.66348080332E+01  0.17533530271E+02  0.51100000000E-03 0.  1.
         12    1    3    3    0    0  0.69707888736E+01  0.75005396496E+00 -0.17351909602E+02  0.18714786809E+02  0.00000000000E+00 0. -1.
</event>
<event>
 7    1  0.1290195E-011  0.5930195E+02  0.7816164E-02  0.1266605E+00
        -11   -1    0    0    0    0  0.00000000000E+00  0.00000000000E+00  0.45593999997E+02  0.45594000000E+02  0.51100000000E-03 0.  1.
         11   -1    0    0    0    0 -0.00000000000E+00 -0.00000000000E+00 -0.45593999997E+02  0.45594000000E+02  0.51100000000E-03 0. -1.
    9900012    2    1    2    0    0  0.54997571838E+01  0.20993955554E+02 -0.23360798959E+02  0.59301946201E+02  0.50000003964E+02 0.  0.
        -12    1    1    2    0    0 -0.54997571838E+01 -0.20993955554E+02  0.23360798959E+02  0.31886053799E+02  0.00000000000E+00 0.  1.
         11    1    3    3    0    0 -0.46889614655E+01  0.11246086445E+02 -0.12372804257E+02  0.17365111730E+02  0.51100000000E-03 0. -1.
        -11    1    3    3    0    0 -0.14145861369E+02  0.68969046831E+01 -0.21172642089E+01  0.15879404777E+02  0.51100000000E-03 0.  1.
         12    1    3    3    0    0  0.24334580018E+02  0.28509644260E+01 -0.88707304924E+01  0.26057429694E+02  0.00000000000E+00 0. -1.
</event>
<event>
 7    1  0.1290195E-011  0.5930194E+02  0.7816164E-02  0.1266605E+00
        -11   -1    0    0    0    0  0.00000000000E+00  0.00000000000E+00  0.45593999997E+02  0.45594000000E+02  0.51100000000E-03 0.  1.
         11   -1    0    0    0    0 -0.00000000000E+00 -0.00000000000E+00 -0.45593999997E+02  0.45594000000E+02  0.51100000000E-03 0. -1.
    9900012    2    1    2    0    0 -0.13454237586E+02  0.17952472629E+02 -0.22658614753E+02  0.59301943408E+02  0.49999998869E+02 0.  0.
        -12    1    1    2    0    0  0.13454237586E+02 -0.17952472629E+02  0.22658614753E+02  0.31886056592E+02  0.00000000000E+00 0.  1.
         11    1    3    3    0    0 -0.36540825082E+01  0.62270297796E+01 -0.40924828145E+01  0.82991948224E+01  0.51100000000E-03 0. -1.
        -11    1    3    3    0    0  0.71015984373E+00  0.19328517904E+02 -0.28653300809E+02  0.34570328012E+02  0.51100000000E-03 0.  1.
        -12    1    3    3    0    0 -0.10510314922E+02 -0.76030750553E+01  0.10087168871E+02  0.16432420573E+02  0.00000000000E+00 0.  1.
</event>
<event>
 7    1  0.1290195E-011  0.5930191E+02  0.7816164E-02  0.1266605E+00
        -11   -1    0    0    0    0  0.00000000000E+00  0.00000000000E+00  0.45593999997E+02  0.45594000000E+02  0.51100000000E-03 0. -1.
         11   -1    0    0    0    0 -0.00000000000E+00 -0.00000000000E+00 -0.45593999997E+02  0.45594000000E+02  0.51100000000E-03 0.  1.
    9900012    2    1    2    0    0  0.60727952420E+00 -0.48798335313E+00  0.31876566671E+02  0.59301914964E+02  0.49999946995E+02 0.  0.
        -12    1    1    2    0    0 -0.60727952420E+00  0.48798335313E+00 -0.31876566671E+02  0.31886085036E+02  0.00000000000E+00 0.  1.
         11    1    3    3    0    0  0.67089400152E+01 -0.77612941740E+01  0.18199146224E+01  0.10419196364E+02  0.51100000000E-03 0. -1.
        -11    1    3    3    0    0  0.34499748368E+01 -0.10543287545E+02 -0.17148414756E+01  0.11225146778E+02  0.51100000000E-03 0.  1.
        -12    1    3    3    0    0 -0.95516353278E+01  0.17816598366E+02  0.31771493524E+02  0.37657571822E+02  0.00000000000E+00 0.  1.
</event>
<event>
 7    1  0.1290195E-011  0.5930225E+02  0.7816164E-02  0.1266604E+00
        -11   -1    0    0    0    0  0.00000000000E+00  0.00000000000E+00  0.45593999997E+02  0.45594000000E+02  0.51100000000E-03 0. -1.
         11   -1    0    0    0    0 -0.00000000000E+00 -0.00000000000E+00 -0.45593999997E+02  0.45594000000E+02  0.51100000000E-03 0.  1.
    9900012    2    1    2    0    0 -0.16040448546E+02  0.24723632687E+02  0.12171573454E+02  0.59302247647E+02  0.50000553725E+02 0.  0.
        -12    1    1    2    0    0  0.16040448546E+02 -0.24723632687E+02 -0.12171573454E+02  0.31885752353E+02  0.00000000000E+00 0.  1.
         11    1    3    3    0    0 -0.34860330929E+01  0.34887969026E+01 -0.33406225881E+01  0.59568355768E+01  0.51100000000E-03 0. -1.
        -11    1    3    3    0    0 -0.25352173662E+02  0.78049356980E+01  0.21183350197E+02  0.33946782712E+02  0.51100000000E-03 0.  1.
         12    1    3    3    0    0  0.12797758209E+02  0.13429900086E+02 -0.56711541551E+01  0.19398629358E+02  0.00000000000E+00 0. -1.
</event>
<event>
 7    1  0.1290195E-011  0.5930198E+02  0.7816164E-02  0.1266605E+00
        -11   -1    0    0    0    0  0.00000000000E+00  0.00000000000E+00  0.45593999997E+02  0.45594000000E+02  0.51100000000E-03 0.  1.
         11   -1    0    0    0    0 -0.00000000000E+00 -0.00000000000E+00 -0.45593999997E+02  0.45594000000E+02  0.51100000000E-03 0. -1.
    9900012    2    1    2    0    0 -0.19602996358E+02 -0.55000004992E+01 -0.24539577905E+02  0.59301978683E+02  0.50000063202E+02 0.  0.
        -12    1    1    2    0    0  0.19602996358E+02  0.55000004992E+01  0.24539577905E+02  0.31886021317E+02  0.00000000000E+00 0.  1.
         11    1    3    3    0    0 -0.75412072093E+01 -0.84791337253E+01 -0.57385725917E+01  0.12716002932E+02  0.51100000000E-03 0. -1.
        -11    1    3    3    0    0 -0.21653595146E+02  0.99935722391E+01  0.57610963491E+00  0.23855430648E+02  0.51100000000E-03 0.  1.
        -12    1    3    3    0    0  0.95918059972E+01 -0.70144390129E+01 -0.19377114948E+02  0.22730545103E+02  0.00000000000E+00 0.  1.
</event>
<event>
 7    1  0.1290195E-011  0.5930198E+02  0.7816164E-02  0.1266605E+00
        -11   -1    0    0    0    0  0.00000000000E+00  0.00000000000E+00  0.45593999997E+02  0.45594000000E+02  0.51100000000E-03 0. -1.
         11   -1    0    0    0    0 -0.00000000000E+00 -0.00000000000E+00 -0.45593999997E+02  0.45594000000E+02  0.51100000000E-03 0.  1.
    9900012    2    1    2    0    0  0.23663389043E+02  0.18613719258E+02  0.10501975551E+02  0.59301984004E+02  0.50000072907E+02 0.  0.
        -12    1    1    2    0    0 -0.23663389043E+02 -0.18613719258E+02 -0.10501975551E+02  0.31886015996E+02  0.00000000000E+00 0.  1.
         11    1    3    3    0    0  0.79641563218E+01  0.17216736782E+02 -0.23531279117E+01  0.19114942390E+02  0.51100000000E-03 0. -1.
        -11    1    3    3    0    0  0.26824281999E+02 -0.18920767868E+00  0.85788724316E+01  0.28163361958E+02  0.51100000000E-03 0.  1.
        -12    1    3    3    0    0 -0.11125049278E+02  0.15861901548E+01  0.42762310307E+01  0.12023679656E+02  0.00000000000E+00 0.  1.
</event>
<event>
 7    1  0.1290195E-011  0.5930195E+02  0.7816164E-02  0.1266605E+00
        -11   -1    0    0    0    0  0.00000000000E+00  0.00000000000E+00  0.45593999997E+02  0.45594000000E+02  0.51100000000E-03 0.  1.
         11   -1    0    0    0    0 -0.00000000000E+00 -0.00000000000E+00 -0.45593999997E+02  0.45594000000E+02  0.51100000000E-03 0. -1.
    9900012    2    1    2    0    0 -0.21448273544E+02  0.10667824338E+02 -0.21044941642E+02  0.59301945324E+02  0.50000002364E+02 0.  0.
        -12    1    1    2    0    0  0.21448273544E+02 -0.10667824338E+02  0.21044941642E+02  0.31886054676E+02  0.00000000000E+00 0.  1.
         11    1    3    3    0    0  0.33562395481E+01 -0.26178518779E+01  0.25324303662E+00  0.42639916340E+01  0.51100000000E-03 0. -1.
        -11    1    3    3    0    0  0.53714410683E+01 -0.96870897474E+01  0.86675291167E+00  0.11110506190E+02  0.51100000000E-03 0.  1.
        -12    1    3    3    0    0 -0.30175954160E+02  0.22972765963E+02 -0.22164937590E+02  0.43927447500E+02  0.00000000000E+00 0.  1.
</event>
<event>
 7    1  0.1290195E-011  0.5930194E+02  0.7816164E-02  0.1266605E+00
        -11   -1    0    0    0    0  0.00000000000E+00  0.00000000000E+00  0.45593999997E+02  0.45594000000E+02  0.51100000000E-03 0.  1.
         11   -1    0    0    0    0 -0.00000000000E+00 -0.00000000000E+00 -0.45593999997E+02  0.45594000000E+02  0.51100000000E-03 0. -1.
    9900012    2    1    2    0    0 -0.14375372185E+02  0.21568580807E+01 -0.28379874667E+02  0.59301942728E+02  0.49999997629E+02 0.  0.
        -12    1    1    2    0    0  0.14375372185E+02 -0.21568580807E+01  0.28379874667E+02  0.31886057272E+02  0.00000000000E+00 0.  1.
         11    1    3    3    0    0  0.30846972536E+01  0.11141231858E+01 -0.30397344004E+02  0.30573765721E+02  0.51100000000E-03 0. -1.
        -11    1    3    3    0    0 -0.21614150859E+01  0.61389113019E+01 -0.75581788483E+01  0.99741673793E+01  0.51100000000E-03 0.  1.
        -12    1    3    3    0    0 -0.15298654352E+02 -0.50961764070E+01  0.95756481845E+01  0.18754009628E+02  0.00000000000E+00 0.  1.
</event>
<event>
 7    1  0.1290195E-011  0.5930196E+02  0.7816164E-02  0.1266605E+00
        -11   -1    0    0    0    0  0.00000000000E+00  0.00000000000E+00  0.45593999997E+02  0.45594000000E+02  0.51100000000E-03 0.  1.
         11   -1    0    0    0    0 -0.00000000000E+00 -0.00000000000E+00 -0.45593999997E+02  0.45594000000E+02  0.51100000000E-03 0. -1.
    9900012    2    1    2    0    0  0.11291252920E+02  0.26142591328E+02 -0.14345460751E+02  0.59301957317E+02  0.50000024236E+02 0.  0.
        -12    1    1    2    0    0 -0.11291252920E+02 -0.26142591328E+02  0.14345460751E+02  0.31886042683E+02  0.00000000000E+00 0.  1.
         11    1    3    3    0    0  0.44300628928E+01  0.71272710409E+01 -0.24102610398E+02  0.25521741280E+02  0.51100000000E-03 0. -1.
        -11    1    3    3    0    0  0.81497478436E+01  0.21690246916E+02 -0.42430582131E+00  0.23174668000E+02  0.51100000000E-03 0.  1.
        -12    1    3    3    0    0 -0.12885578169E+01 -0.26749266288E+01  0.10181455468E+02  0.10605548037E+02  0.00000000000E+00 0.  1.
</event>
<event>
 7    1  0.1290195E-011  0.5930196E+02  0.7816164E-02  0.1266605E+00
        -11   -1    0    0    0    0  0.00000000000E+00  0.00000000000E+00  0.45593999997E+02  0.45594000000E+02  0.51100000000E-03 0. -1.
         11   -1    0    0    0    0 -0.00000000000E+00 -0.00000000000E+00 -0.45593999997E+02  0.45594000000E+02  0.51100000000E-03 0.  1.
    9900012    2    1    2    0    0  0.29556091048E+02  0.11673918676E+02 -0.26223439624E+01  0.59301959431E+02  0.50000028092E+02 0.  0.
        -12    1    1    2    0    0 -0.29556091048E+02 -0.11673918676E+02  0.26223439624E+01  0.31886040569E+02  0.00000000000E+00 0.  1.
         11    1    3    3    0    0  0.17370171793E+02 -0.11241852066E+02 -0.13331205536E+02  0.24613474913E+02  0.51100000000E-03 0. -1.
        -11    1    3    3    0    0  0.15602901384E+02  0.92257966268E+01  0.96595837265E+01  0.20539557274E+02  0.51100000000E-03 0.  1.
        -12    1    3    3    0    0 -0.34169821287E+01  0.13689974116E+02  0.10492778472E+01  0.14148927244E+02  0.00000000000E+00 0.  1.
</event>
<event>
 7    1  0.1290195E-011  0.5930192E+02  0.7816164E-02  0.1266605E+00
        -11   -1    0    0    0    0  0.00000000000E+00  0.00000000000E+00  0.45593999997E+02  0.45594000000E+02  0.51100000000E-03 0.  1.
         11   -1    0    0    0    0 -0.00000000000E+00 -0.00000000000E+00 -0.45593999997E+02  0.45594000000E+02  0.51100000000E-03 0. -1.
    9900012    2    1    2    0    0  0.21904316130E+02 -0.19343643835E+02 -0.12757213497E+02  0.59301919681E+02  0.49999955597E+02 0.  0.
        -12    1    1    2    0    0 -0.21904316130E+02  0.19343643835E+02  0.12757213497E+02  0.31886080319E+02  0.00000000000E+00 0.  1.
         11    1    3    3    0    0  0.60632534950E+01 -0.23202522742E+02  0.30939613814E+01  0.24180419802E+02  0.51100000000E-03 0.  1.
        -11    1    3    3    0    0  0.51708927384E+01 -0.36776699846E+01 -0.20341266215E+02  0.21307991452E+02  0.51100000000E-03 0. -1.
         12    1    3    3    0    0  0.10670169897E+02  0.75365488915E+01  0.44900913374E+01  0.13813508426E+02  0.00000000000E+00 0. -1.
</event>
<event>
 7    1  0.1290195E-011  0.5930201E+02  0.7816164E-02  0.1266605E+00
        -11   -1    0    0    0    0  0.00000000000E+00  0.00000000000E+00  0.45593999997E+02  0.45594000000E+02  0.51100000000E-03 0.  1.
         11   -1    0    0    0    0 -0.00000000000E+00 -0.00000000000E+00 -0.45593999997E+02  0.45594000000E+02  0.51100000000E-03 0. -1.
    9900012    2    1    2    0    0  0.33585208360E+01 -0.94134130845E+01 -0.30279106375E+02  0.59302011055E+02  0.50000122242E+02 0.  0.
        -12    1    1    2    0    0 -0.33585208360E+01  0.94134130845E+01  0.30279106375E+02  0.31885988945E+02  0.00000000000E+00 0.  1.
         11    1    3    3    0    0 -0.29970834204E+01  0.29639724122E+01 -0.13147643038E+02  0.13806815680E+02  0.51100000000E-03 0. -1.
        -11    1    3    3    0    0 -0.12236321718E+02 -0.67390766095E+01  0.60721964073E+01  0.15232015370E+02  0.51100000000E-03 0.  1.
         12    1    3    3    0    0  0.18591925975E+02 -0.56383088871E+01 -0.23203659744E+02  0.30263180006E+02  0.00000000000E+00 0. -1.
</event>
<event>
 7    1  0.1596169E-011  0.5930195E+02  0.7816164E-02  0.1266605E+00
        -11   -1    0    0    0    0  0.00000000000E+00  0.00000000000E+00  0.45593999997E+02  0.45594000000E+02  0.51100000000E-03 0. -1.
         11   -1    0    0    0    0 -0.00000000000E+00 -0.00000000000E+00 -0.45593999997E+02  0.45594000000E+02  0.51100000000E-03 0.  1.
    9900012    2    1    2    0    0 -0.27191597379E+02  0.16058099568E+02  0.44130244119E+01  0.59301947968E+02  0.50000007185E+02 0.  0.
        -12    1    1    2    0    0  0.27191597379E+02 -0.16058099568E+02 -0.44130244119E+01  0.31886052032E+02  0.00000000000E+00 0.  1.
         11    1    3    3    0    0 -0.22808168432E+02  0.12464760270E+02  0.18381768325E+02  0.31835078181E+02  0.51100000000E-03 0. -1.
        -11    1    3    3    0    0  0.29411824861E+01  0.67083792177E+01  0.36129581084E+01  0.81673969353E+01  0.51100000000E-03 0.  1.
        -12    1    3    3    0    0 -0.73246114336E+01 -0.31150399194E+01 -0.17581702022E+02  0.19299472851E+02  0.00000000000E+00 0.  1.
</event>
<event>
 7    1  0.1290195E-011  0.5930194E+02  0.7816164E-02  0.1266605E+00
        -11   -1    0    0    0    0  0.00000000000E+00  0.00000000000E+00  0.45593999997E+02  0.45594000000E+02  0.51100000000E-03 0.  1.
         11   -1    0    0    0    0 -0.00000000000E+00 -0.00000000000E+00 -0.45593999997E+02  0.45594000000E+02  0.51100000000E-03 0. -1.
    9900012    2    1    2    0    0  0.22521544645E+02 -0.22480032367E+02  0.20369687553E+01  0.59301936114E+02  0.49999985568E+02 0.  0.
        -12    1    1    2    0    0 -0.22521544645E+02  0.22480032367E+02 -0.20369687553E+01  0.31886063886E+02  0.00000000000E+00 0.  1.
         11    1    3    3    0    0  0.84660836726E+01 -0.10373421703E+02 -0.95607264502E+01  0.16452657570E+02  0.51100000000E-03 0. -1.
        -11    1    3    3    0    0  0.92168877492E+01 -0.51605634013E+01 -0.13049415438E+02  0.16788974892E+02  0.51100000000E-03 0.  1.
        -12    1    3    3    0    0  0.48385732229E+01 -0.69460472627E+01  0.24647110643E+02  0.26060303653E+02  0.00000000000E+00 0.  1.
</event>
<event>
 7    1  0.1290195E-011  0.5930197E+02  0.7816164E-02  0.1266605E+00
        -11   -1    0    0    0    0  0.00000000000E+00  0.00000000000E+00  0.45593999997E+02  0.45594000000E+02  0.51100000000E-03 0. -1.
         11   -1    0    0    0    0 -0.00000000000E+00 -0.00000000000E+00 -0.45593999997E+02  0.45594000000E+02  0.51100000000E-03 0.  1.
    9900012    2    1    2    0    0 -0.26229562493E+01  0.29887405078E+02 -0.10797321710E+02  0.59301967981E+02  0.50000043686E+02 0.  0.
        -12    1    1    2    0    0  0.26229562493E+01 -0.29887405078E+02  0.10797321710E+02  0.31886032019E+02  0.00000000000E+00 0.  1.
         11    1    3    3    0    0  0.45837284975E+01  0.63084726909E+01 -0.20081534470E+02  0.21542409836E+02  0.51100000000E-03 0. -1.
        -11    1    3    3    0    0 -0.79689617810E+01 -0.15719942702E+01 -0.42722995508E+01  0.91775847349E+01  0.51100000000E-03 0.  1.
         12    1    3    3    0    0  0.76227703419E+00  0.25150926657E+02  0.13556512311E+02  0.28581973410E+02  0.00000000000E+00 0. -1.
</event>
<event>
 7    1  0.1290195E-011  0.5930193E+02  0.7816164E-02  0.1266605E+00
        -11   -1    0    0    0    0  0.00000000000E+00  0.00000000000E+00  0.45593999997E+02  0.45594000000E+02  0.51100000000E-03 0. -1.
         11   -1    0    0    0    0 -0.00000000000E+00 -0.00000000000E+00 -0.45593999997E+02  0.45594000000E+02  0.51100000000E-03 0.  1.
    9900012    2    1    2    0    0 -0.11569869665E+02 -0.15911552596E+02  0.25093472915E+02  0.59301925093E+02  0.49999965467E+02 0.  0.
        -12    1    1    2    0    0  0.11569869665E+02  0.15911552596E+02 -0.25093472915E+02  0.31886074907E+02  0.00000000000E+00 0.  1.
         11    1    3    3    0    0  0.51967146627E+01  0.21096582759E+01  0.11854129245E+02  0.13113995644E+02  0.51100000000E-03 0. -1.
        -11    1    3    3    0    0  0.11170635548E+02 -0.22910907628E+01 -0.24655372045E+00  0.11405831159E+02  0.51100000000E-03 0.  1.
         12    1    3    3    0    0 -0.27937219875E+02 -0.15730120109E+02  0.13485897390E+02  0.34782098290E+02  0.00000000000E+00 0. -1.
</event>
<event>
 7    1  0.1290195E-011  0.5930195E+02  0.7816164E-02  0.1266605E+00
        -11   -1    0    0    0    0  0.00000000000E+00  0.00000000000E+00  0.45593999997E+02  0.45594000000E+02  0.51100000000E-03 0. -1.
         11   -1    0    0    0    0 -0.00000000000E+00 -0.00000000000E+00 -0.45593999997E+02  0.45594000000E+02  0.51100000000E-03 0.  1.
    9900012    2    1    2    0    0 -0.12235014788E+02  0.29253678195E+02 -0.33536863397E+01  0.59301945261E+02  0.50000002249E+02 0.  0.
        -12    1    1    2    0    0  0.12235014788E+02 -0.29253678195E+02  0.33536863397E+01  0.31886054739E+02  0.00000000000E+00 0.  1.
         11    1    3    3    0    0  0.97470872277E+01  0.29512014857E+02  0.20346372349E-01  0.31079979803E+02  0.51100000000E-03 0. -1.
        -11    1    3    3    0    0 -0.84526820086E+01  0.38655222350E+01 -0.90582768587E+01  0.12978539024E+02  0.51100000000E-03 0.  1.
        -12    1    3    3    0    0 -0.13529420007E+02 -0.41238588969E+01  0.56842441466E+01  0.15243426434E+02  0.00000000000E+00 0.  1.
</event>
<event>
 7    1  0.1290195E-011  0.5930199E+02  0.7816164E-02  0.1266605E+00
        -11   -1    0    0    0    0  0.00000000000E+00  0.00000000000E+00  0.45593999997E+02  0.45594000000E+02  0.51100000000E-03 0.  1.
         11   -1    0    0    0    0 -0.00000000000E+00 -0.00000000000E+00 -0.45593999997E+02  0.45594000000E+02  0.51100000000E-03 0. -1.
    9900012    2    1    2    0    0  0.16545522389E+02  0.25682178827E+02 -0.91317411805E+01  0.59301994960E+02  0.50000092888E+02 0.  0.
        -12    1    1    2    0    0 -0.16545522389E+02 -0.25682178827E+02  0.91317411805E+01  0.31886005040E+02  0.00000000000E+00 0.  1.
         11    1    3    3    0    0 -0.52549220983E+01  0.99047463113E+01 -0.10139086458E+02  0.15116854177E+02  0.51100000000E-03 0. -1.
        -11    1    3    3    0    0  0.87563565518E+01  0.39951397485E+01  0.17570147515E+02  0.20033596922E+02  0.51100000000E-03 0.  1.
         12    1    3    3    0    0  0.13044087936E+02  0.11782292767E+02 -0.16562802237E+02  0.24151543861E+02  0.00000000000E+00 0. -1.
</event>
<event>
 7    1  0.1290195E-011  0.5930191E+02  0.7816164E-02  0.1266605E+00
        -11   -1    0    0    0    0  0.00000000000E+00  0.00000000000E+00  0.45593999997E+02  0.45594000000E+02  0.51100000000E-03 0.  1.
         11   -1    0    0    0    0 -0.00000000000E+00 -0.00000000000E+00 -0.45593999997E+02  0.45594000000E+02  0.51100000000E-03 0. -1.
    9900012    2    1    2    0    0 -0.14473800253E+02  0.24231738232E+02 -0.14834239544E+02  0.59301910645E+02  0.49999939118E+02 0.  0.
        -12    1    1    2    0    0  0.14473800253E+02 -0.24231738232E+02  0.14834239544E+02  0.31886089355E+02  0.00000000000E+00 0.  1.
         11    1    3    3    0    0  0.34061147322E+01  0.38241946788E+01  0.99789113107E+01  0.11216271828E+02  0.51100000000E-03 0. -1.
        -11    1    3    3    0    0 -0.42600930250E+01  0.49084406681E+01  0.73888233486E+01  0.98405230101E+01  0.51100000000E-03 0.  1.
         12    1    3    3    0    0 -0.13619821960E+02  0.15499102885E+02 -0.32201974204E+02  0.38245115807E+02  0.00000000000E+00 0. -1.
</event>
<event>
 7    1  0.1290195E-011  0.5930194E+02  0.7816164E-02  0.1266605E+00
        -11   -1    0    0    0    0  0.00000000000E+00  0.00000000000E+00  0.45593999997E+02  0.45594000000E+02  0.51100000000E-03 0.  1.
         11   -1    0    0    0    0 -0.00000000000E+00 -0.00000000000E+00 -0.45593999997E+02  0.45594000000E+02  0.51100000000E-03 0. -1.
    9900012    2    1    2    0    0  0.34205935848E+01  0.13436288418E+02 -0.28713868842E+02  0.59301943944E+02  0.49999999847E+02 0.  0.
        -12    1    1    2    0    0 -0.34205935848E+01 -0.13436288418E+02  0.28713868842E+02  0.31886056056E+02  0.00000000000E+00 0.  1.
         11    1    3    3    0    0 -0.65932727363E+01  0.34225626084E+01 -0.26250548282E+02  0.27281430783E+02  0.51100000000E-03 0. -1.
        -11    1    3    3    0    0 -0.10908689659E+01 -0.86230853908E+01 -0.52400286175E+01  0.10149162376E+02  0.51100000000E-03 0.  1.
        -12    1    3    3    0    0  0.11104735287E+02  0.18636811200E+02  0.27767080575E+01  0.21871350785E+02  0.00000000000E+00 0.  1.
</event>
<event>
 7    1  0.1290195E-011  0.5930194E+02  0.7816164E-02  0.1266605E+00
        -11   -1    0    0    0    0  0.00000000000E+00  0.00000000000E+00  0.45593999997E+02  0.45594000000E+02  0.51100000000E-03 0.  1.
         11   -1    0    0    0    0 -0.00000000000E+00 -0.00000000000E+00 -0.45593999997E+02  0.45594000000E+02  0.51100000000E-03 0. -1.
    9900012    2    1    2    0    0  0.11210806808E+02  0.18421433159E+02 -0.23488063639E+02  0.59301944702E+02  0.50000001230E+02 0.  0.
        -12    1    1    2    0    0 -0.11210806808E+02 -0.18421433159E+02  0.23488063639E+02  0.31886055298E+02  0.00000000000E+00 0.  1.
         11    1    3    3    0    0  0.49782932171E+01  0.10142553436E+02  0.38922955130E+00  0.11305144557E+02  0.51100000000E-03 0. -1.
        -11    1    3    3    0    0  0.22851281014E+02  0.78884331532E+01 -0.18772065696E+02  0.30607170277E+02  0.51100000000E-03 0.  1.
        -12    1    3    3    0    0 -0.16618767423E+02  0.39044657031E+00 -0.51052274944E+01  0.17389629868E+02  0.00000000000E+00 0.  1.
</event>
<event>
 7    1  0.1290195E-011  0.5930191E+02  0.7816164E-02  0.1266605E+00
        -11   -1    0    0    0    0  0.00000000000E+00  0.00000000000E+00  0.45593999997E+02  0.45594000000E+02  0.51100000000E-03 0.  1.
         11   -1    0    0    0    0 -0.00000000000E+00 -0.00000000000E+00 -0.45593999997E+02  0.45594000000E+02  0.51100000000E-03 0. -1.
    9900012    2    1    2    0    0 -0.22231537967E+02  0.21200078955E+02 -0.85462518395E+01  0.59301905090E+02  0.49999928987E+02 0.  0.
        -12    1    1    2    0    0  0.22231537967E+02 -0.21200078955E+02  0.85462518395E+01  0.31886094910E+02  0.00000000000E+00 0.  1.
         11    1    3    3    0    0  0.96099685040E+00  0.11406843069E+02  0.71200329520E+01  0.13480892153E+02  0.51100000000E-03 0. -1.
        -11    1    3    3    0    0 -0.30186078678E+01  0.20146148461E+02 -0.68459179655E+01  0.21490599906E+02  0.51100000000E-03 0.  1.
         12    1    3    3    0    0 -0.20173926950E+02 -0.10352912574E+02 -0.88203668260E+01  0.24330413031E+02  0.00000000000E+00 0. -1.
</event>
<event>
 7    1  0.1290195E-011  0.5930186E+02  0.7816164E-02  0.1266605E+00
        -11   -1    0    0    0    0  0.00000000000E+00  0.00000000000E+00  0.45593999997E+02  0.45594000000E+02  0.51100000000E-03 0. -1.
         11   -1    0    0    0    0 -0.00000000000E+00 -0.00000000000E+00 -0.45593999997E+02  0.45594000000E+02  0.51100000000E-03 0.  1.
    9900012    2    1    2    0    0 -0.91928382885E+01  0.28777941170E+02 -0.10200366825E+02  0.59301864186E+02  0.49999854387E+02 0.  0.
        -12    1    1    2    0    0  0.91928382885E+01 -0.28777941170E+02  0.10200366825E+02  0.31886135814E+02  0.00000000000E+00 0.  1.
         11    1    3    3    0    0  0.12521062954E+02  0.13407172208E+02  0.62259881444E+01  0.19372460162E+02  0.51100000000E-03 0. -1.
        -11    1    3    3    0    0 -0.87077299738E+01  0.17429262683E+02 -0.18176412110E+02  0.26645557161E+02  0.51100000000E-03 0.  1.
        -12    1    3    3    0    0 -0.13006171269E+02 -0.20584937197E+01  0.17500571409E+01  0.13283846862E+02  0.00000000000E+00 0.  1.
</event>
<event>
 7    1  0.1290195E-011  0.5930181E+02  0.7816164E-02  0.1266605E+00
        -11   -1    0    0    0    0  0.00000000000E+00  0.00000000000E+00  0.45593999997E+02  0.45594000000E+02  0.51100000000E-03 0.  1.
         11   -1    0    0    0    0 -0.00000000000E+00 -0.00000000000E+00 -0.45593999997E+02  0.45594000000E+02  0.51100000000E-03 0. -1.
    9900012    2    1    2    0    0 -0.48492611197E+01 -0.14652029362E+02 -0.27902180002E+02  0.59301812604E+02  0.49999760314E+02 0.  0.
        -12    1    1    2    0    0  0.48492611197E+01  0.14652029362E+02  0.27902180002E+02  0.31886187396E+02  0.00000000000E+00 0.  1.
         11    1    3    3    0    0 -0.96724537455E+01  0.28353394254E-01  0.61890540134E+01  0.11483098677E+02  0.51100000000E-03 0. -1.
        -11    1    3    3    0    0 -0.90691383389E+01 -0.65965941056E+00 -0.81556554156E+00  0.91295984666E+01  0.51100000000E-03 0.  1.
         12    1    3    3    0    0  0.13892330965E+02 -0.14020723345E+02 -0.33275668474E+02  0.38689115461E+02  0.00000000000E+00 0. -1.
</event>
<event>
 7    1  0.1290195E-011  0.5930172E+02  0.7816164E-02  0.1266606E+00
        -11   -1    0    0    0    0  0.00000000000E+00  0.00000000000E+00  0.45593999997E+02  0.45594000000E+02  0.51100000000E-03 0.  1.
         11   -1    0    0    0    0 -0.00000000000E+00 -0.00000000000E+00 -0.45593999997E+02  0.45594000000E+02  0.51100000000E-03 0. -1.
    9900012    2    1    2    0    0  0.20698569634E+02  0.58527291742E+01 -0.23538256674E+02  0.59301721588E+02  0.49999594322E+02 0.  0.
        -12    1    1    2    0    0 -0.20698569634E+02 -0.58527291742E+01  0.23538256674E+02  0.31886278412E+02  0.00000000000E+00 0.  1.
         11    1    3    3    0    0  0.27563634116E+02 -0.27964460560E+01 -0.16180101209E+02  0.32083792040E+02  0.51100000000E-03 0. -1.
        -11    1    3    3    0    0  0.63576046288E+01  0.77421554818E-01 -0.93789302824E+01  0.11330907475E+02  0.51100000000E-03 0.  1.
        -12    1    3    3    0    0 -0.13222669111E+02  0.85717536754E+01  0.20207748179E+01  0.15887022073E+02  0.00000000000E+00 0.  1.
</event>
<event>
 7    1  0.1352112E-011  0.5930198E+02  0.7816164E-02  0.1266605E+00
        -11   -1    0    0    0    0  0.00000000000E+00  0.00000000000E+00  0.45593999997E+02  0.45594000000E+02  0.51100000000E-03 0. -1.
         11   -1    0    0    0    0 -0.00000000000E+00 -0.00000000000E+00 -0.45593999997E+02  0.45594000000E+02  0.51100000000E-03 0.  1.
    9900012    2    1    2    0    0  0.18594028708E+02 -0.56982100007E+01  0.25268776618E+02  0.59301975278E+02  0.50000056992E+02 0.  0.
        -12    1    1    2    0    0 -0.18594028708E+02  0.56982100007E+01 -0.25268776618E+02  0.31886024722E+02  0.00000000000E+00 0.  1.
         11    1    3    3    0    0 -0.12289652407E+01 -0.79127522266E+00  0.27980505721E+02  0.28018657582E+02  0.51100000000E-03 0. -1.
        -11    1    3    3    0    0  0.32719788044E+01 -0.12083690666E+02  0.19024214250E+01  0.12662568181E+02  0.51100000000E-03 0.  1.
        -12    1    3    3    0    0  0.16551015145E+02  0.71767558875E+01 -0.46141505278E+01  0.18620749514E+02  0.00000000000E+00 0.  1.
</event>
<event>
 7    1  0.1290195E-011  0.5930203E+02  0.7816164E-02  0.1266604E+00
        -11   -1    0    0    0    0  0.00000000000E+00  0.00000000000E+00  0.45593999997E+02  0.45594000000E+02  0.51100000000E-03 0.  1.
         11   -1    0    0    0    0 -0.00000000000E+00 -0.00000000000E+00 -0.45593999997E+02  0.45594000000E+02  0.51100000000E-03 0. -1.
    9900012    2    1    2    0    0 -0.27135773810E+02  0.10217007002E+02  0.13265645363E+02  0.59302034447E+02  0.50000164903E+02 0.  0.
        -12    1    1    2    0    0  0.27135773810E+02 -0.10217007002E+02 -0.13265645363E+02  0.31885965553E+02  0.00000000000E+00 0.  1.
         11    1    3    3    0    0 -0.44143362515E+01  0.58593118620E+01  0.51947437055E+01  0.89890634921E+01  0.51100000000E-03 0.  1.
        -11    1    3    3    0    0  0.50056434117E+01  0.17222312087E+02 -0.21952350020E+01  0.18068855984E+02  0.51100000000E-03 0. -1.
         12    1    3    3    0    0 -0.27727080971E+02 -0.12864616948E+02  0.10266136659E+02  0.32244114971E+02  0.00000000000E+00 0. -1.
</event>
<event>
 7    1  0.1290195E-011  0.5930194E+02  0.7816164E-02  0.1266605E+00
        -11   -1    0    0    0    0  0.00000000000E+00  0.00000000000E+00  0.45593999997E+02  0.45594000000E+02  0.51100000000E-03 0.  1.
         11   -1    0    0    0    0 -0.00000000000E+00 -0.00000000000E+00 -0.45593999997E+02  0.45594000000E+02  0.51100000000E-03 0. -1.
    9900012    2    1    2    0    0 -0.23080968772E+02  0.17266369471E+02  0.13633123929E+02  0.59301941883E+02  0.49999996089E+02 0.  0.
        -12    1    1    2    0    0  0.23080968772E+02 -0.17266369471E+02 -0.13633123929E+02  0.31886058117E+02  0.00000000000E+00 0.  1.
         11    1    3    3    0    0  0.34200747608E+01  0.10909641033E+02  0.12283328077E+02  0.16780861949E+02  0.51100000000E-03 0. -1.
        -11    1    3    3    0    0 -0.10103025396E+01  0.19889347492E+01  0.13686499843E+02  0.13867114006E+02  0.51100000000E-03 0.  1.
         12    1    3    3    0    0 -0.25490740993E+02  0.43677936890E+01 -0.12336703990E+02  0.28653965928E+02  0.00000000000E+00 0. -1.
</event>
<event>
 7    1  0.1290195E-011  0.5930198E+02  0.7816164E-02  0.1266605E+00
        -11   -1    0    0    0    0  0.00000000000E+00  0.00000000000E+00  0.45593999997E+02  0.45594000000E+02  0.51100000000E-03 0.  1.
         11   -1    0    0    0    0 -0.00000000000E+00 -0.00000000000E+00 -0.45593999997E+02  0.45594000000E+02  0.51100000000E-03 0. -1.
    9900012    2    1    2    0    0 -0.39387741317E+01 -0.26889917602E+02  0.16677433530E+02  0.59301977993E+02  0.50000061944E+02 0.  0.
        -12    1    1    2    0    0  0.39387741317E+01  0.26889917602E+02 -0.16677433530E+02  0.31886022007E+02  0.00000000000E+00 0.  1.
         11    1    3    3    0    0  0.10571461969E+01 -0.38304646568E+02  0.19872321081E+02  0.43165642034E+02  0.51100000000E-03 0. -1.
        -11    1    3    3    0    0  0.70972029336E+00 -0.14575520408E+01 -0.94818488939E+00  0.18780883078E+01  0.51100000000E-03 0.  1.
         12    1    3    3    0    0 -0.57056406220E+01  0.12872281007E+02 -0.22467026616E+01  0.14258247651E+02  0.00000000000E+00 0. -1.
</event>
<event>
 7    1  0.1290195E-011  0.5930194E+02  0.7816164E-02  0.1266605E+00
        -11   -1    0    0    0    0  0.00000000000E+00  0.00000000000E+00  0.45593999997E+02  0.45594000000E+02  0.51100000000E-03 0. -1.
         11   -1    0    0    0    0 -0.00000000000E+00 -0.00000000000E+00 -0.45593999997E+02  0.45594000000E+02  0.51100000000E-03 0.  1.
    9900012    2    1    2    0    0  0.80445695651E+01  0.10231232594E+02  0.29108895218E+02  0.59301937203E+02  0.49999987553E+02 0.  0.
        -12    1    1    2    0    0 -0.80445695651E+01 -0.10231232594E+02 -0.29108895218E+02  0.31886062797E+02  0.00000000000E+00 0.  1.
         11    1    3    3    0    0 -0.11823361892E+02  0.10735677747E+02  0.98811021700E+00  0.16000719520E+02  0.51100000000E-03 0. -1.
        -11    1    3    3    0    0 -0.34011231297E+01  0.17911388972E+01 -0.26395444834E+01  0.46629403206E+01  0.51100000000E-03 0.  1.
        -12    1    3    3    0    0  0.23269054586E+02 -0.22955840503E+01  0.30760329485E+02  0.38638277362E+02  0.00000000000E+00 0.  1.
</event>
<event>
 7    1  0.1290195E-011  0.5930194E+02  0.7816164E-02  0.1266605E+00
        -11   -1    0    0    0    0  0.00000000000E+00  0.00000000000E+00  0.45593999997E+02  0.45594000000E+02  0.51100000000E-03 0. -1.
         11   -1    0    0    0    0 -0.00000000000E+00 -0.00000000000E+00 -0.45593999997E+02  0.45594000000E+02  0.51100000000E-03 0.  1.
    9900012    2    1    2    0    0 -0.15340630911E+02  0.20061787683E+02  0.19465622837E+02  0.59301941068E+02  0.49999994602E+02 0.  0.
        -12    1    1    2    0    0  0.15340630911E+02 -0.20061787683E+02 -0.19465622837E+02  0.31886058932E+02  0.00000000000E+00 0.  1.
         11    1    3    3    0    0 -0.28299812862E+02  0.88632650069E+01  0.19701531951E+02  0.35603191375E+02  0.51100000000E-03 0. -1.
        -11    1    3    3    0    0  0.58808675592E+01  0.17983752358E+01  0.74375653929E+01  0.96507065013E+01  0.51100000000E-03 0.  1.
        -12    1    3    3    0    0  0.70783143910E+01  0.94001474403E+01 -0.76734745067E+01  0.14048043192E+02  0.00000000000E+00 0.  1.
</event>
<event>
 7    1  0.1290195E-011  0.5930195E+02  0.7816164E-02  0.1266605E+00
        -11   -1    0    0    0    0  0.00000000000E+00  0.00000000000E+00  0.45593999997E+02  0.45594000000E+02  0.51100000000E-03 0. -1.
         11   -1    0    0    0    0 -0.00000000000E+00 -0.00000000000E+00 -0.45593999997E+02  0.45594000000E+02  0.51100000000E-03 0.  1.
    9900012    2    1    2    0    0 -0.16500939362E+02  0.15860875289E+02  0.22200712267E+02  0.59301953053E+02  0.50000016461E+02 0.  0.
        -12    1    1    2    0    0  0.16500939362E+02 -0.15860875289E+02 -0.22200712267E+02  0.31886046947E+02  0.00000000000E+00 0.  1.
         11    1    3    3    0    0 -0.13852555436E+02  0.75386190406E+01 -0.27718475397E+01  0.16012720199E+02  0.51100000000E-03 0. -1.
        -11    1    3    3    0    0 -0.95624428056E+01  0.87754280736E+01 -0.39355487615E+01  0.13562337358E+02  0.51100000000E-03 0.  1.
        -12    1    3    3    0    0  0.69140588795E+01 -0.45317182555E+00  0.28908108568E+02  0.29726895497E+02  0.00000000000E+00 0.  1.
</event>
<event>
 7    1  0.1290195E-011  0.5930205E+02  0.7816164E-02  0.1266604E+00
        -11   -1    0    0    0    0  0.00000000000E+00  0.00000000000E+00  0.45593999997E+02  0.45594000000E+02  0.51100000000E-03 0.  1.
         11   -1    0    0    0    0 -0.00000000000E+00 -0.00000000000E+00 -0.45593999997E+02  0.45594000000E+02  0.51100000000E-03 0. -1.
    9900012    2    1    2    0    0  0.20239946108E+02  0.18061643263E+02 -0.16758135916E+02  0.59302054896E+02  0.50000202196E+02 0.  0.
        -12    1    1    2    0    0 -0.20239946108E+02 -0.18061643263E+02  0.16758135916E+02  0.31885945104E+02  0.00000000000E+00 0.  1.
         11    1    3    3    0    0 -0.84990036728E+01  0.15335952733E+02 -0.11585091694E+01  0.17571757266E+02  0.51100000000E-03 0. -1.
        -11    1    3    3    0    0 -0.47161208968E+01  0.21738438154E+01 -0.13707451809E+01  0.53708784998E+01  0.51100000000E-03 0.  1.
        -12    1    3    3    0    0  0.33455070678E+02  0.55184671482E+00 -0.14228881566E+02  0.36359419130E+02  0.00000000000E+00 0.  1.
</event>
<event>
 7    1  0.1290195E-011  0.5930195E+02  0.7816164E-02  0.1266605E+00
        -11   -1    0    0    0    0  0.00000000000E+00  0.00000000000E+00  0.45593999997E+02  0.45594000000E+02  0.51100000000E-03 0. -1.
         11   -1    0    0    0    0 -0.00000000000E+00 -0.00000000000E+00 -0.45593999997E+02  0.45594000000E+02  0.51100000000E-03 0.  1.
    9900012    2    1    2    0    0  0.18425439304E+02 -0.41913004594E+01  0.25683780644E+02  0.59301946603E+02  0.50000004697E+02 0.  0.
        -12    1    1    2    0    0 -0.18425439304E+02  0.41913004594E+01 -0.25683780644E+02  0.31886053397E+02  0.00000000000E+00 0.  1.
         11    1    3    3    0    0 -0.83541942393E+01 -0.15336135767E+02  0.17614090367E+02  0.24804148874E+02  0.51100000000E-03 0. -1.
        -11    1    3    3    0    0  0.43308172928E+01 -0.65210081500E+00 -0.44260098976E+01  0.62266184861E+01  0.51100000000E-03 0.  1.
         12    1    3    3    0    0  0.22448816250E+02  0.11796936123E+02  0.12495700175E+02  0.28271179243E+02  0.00000000000E+00 0. -1.
</event>
<event>
 7    1  0.1290195E-011  0.5930195E+02  0.7816164E-02  0.1266605E+00
        -11   -1    0    0    0    0  0.00000000000E+00  0.00000000000E+00  0.45593999997E+02  0.45594000000E+02  0.51100000000E-03 0. -1.
         11   -1    0    0    0    0 -0.00000000000E+00 -0.00000000000E+00 -0.45593999997E+02  0.45594000000E+02  0.51100000000E-03 0.  1.
    9900012    2    1    2    0    0 -0.22952397748E+02  0.19187566307E+02  0.11033820765E+02  0.59301945621E+02  0.50000002906E+02 0.  0.
        -12    1    1    2    0    0  0.22952397748E+02 -0.19187566307E+02 -0.11033820765E+02  0.31886054379E+02  0.00000000000E+00 0.  1.
         11    1    3    3    0    0  0.55795672073E+01  0.14267740237E+00 -0.87245205260E+01  0.10357083843E+02  0.51100000000E-03 0. -1.
        -11    1    3    3    0    0 -0.51915488452E+01  0.66712752175E+01  0.20856625377E+02  0.22504597638E+02  0.51100000000E-03 0.  1.
         12    1    3    3    0    0 -0.23340416110E+02  0.12373613687E+02 -0.10982840868E+01  0.26440264140E+02  0.00000000000E+00 0. -1.
</event>
<event>
 7    1  0.1290195E-011  0.5930197E+02  0.7816164E-02  0.1266605E+00
        -11   -1    0    0    0    0  0.00000000000E+00  0.00000000000E+00  0.45593999997E+02  0.45594000000E+02  0.51100000000E-03 0.  1.
         11   -1    0    0    0    0 -0.00000000000E+00 -0.00000000000E+00 -0.45593999997E+02  0.45594000000E+02  0.51100000000E-03 0. -1.
    9900012    2    1    2    0    0  0.25245266307E+02 -0.18844828375E+02 -0.49262197021E+01  0.59301973783E+02  0.50000054266E+02 0.  0.
        -12    1    1    2    0    0 -0.25245266307E+02  0.18844828375E+02  0.49262197021E+01  0.31886026217E+02  0.00000000000E+00 0.  1.
         11    1    3    3    0    0 -0.10879241792E+00 -0.71136488042E+01  0.96568365537E+01  0.11994595766E+02  0.51100000000E-03 0. -1.
        -11    1    3    3    0    0 -0.80553637854E+00  0.89139680171E+01  0.32363759721E+01  0.95174494672E+01  0.51100000000E-03 0.  1.
        -12    1    3    3    0    0  0.26159595103E+02 -0.20645147588E+02 -0.17819432228E+02  0.37789928550E+02  0.00000000000E+00 0.  1.
</event>
<event>
 7    1  0.1290195E-011  0.5930196E+02  0.7816164E-02  0.1266605E+00
        -11   -1    0    0    0    0  0.00000000000E+00  0.00000000000E+00  0.45593999997E+02  0.45594000000E+02  0.51100000000E-03 0.  1.
         11   -1    0    0    0    0 -0.00000000000E+00 -0.00000000000E+00 -0.45593999997E+02  0.45594000000E+02  0.51100000000E-03 0. -1.
    9900012    2    1    2    0    0  0.28987688173E+02 -0.10838370498E+02 -0.76787349233E+01  0.59301963703E+02  0.50000035884E+02 0.  0.
        -12    1    1    2    0    0 -0.28987688173E+02  0.10838370498E+02  0.76787349233E+01  0.31886036297E+02  0.00000000000E+00 0.  1.
         11    1    3    3    0    0 -0.88346971948E+01 -0.81939247031E+01 -0.46516003785E+01  0.12916255762E+02  0.51100000000E-03 0. -1.
        -11    1    3    3    0    0  0.86808868934E+01 -0.11120547429E+02  0.50430849638E+01  0.14981891690E+02  0.51100000000E-03 0.  1.
         12    1    3    3    0    0  0.29141498475E+02  0.84761016349E+01 -0.80702195086E+01  0.31403816252E+02  0.00000000000E+00 0. -1.
</event>
<event>
 7    1  0.1290195E-011  0.5930193E+02  0.7816164E-02  0.1266605E+00
        -11   -1    0    0    0    0  0.00000000000E+00  0.00000000000E+00  0.45593999997E+02  0.45594000000E+02  0.51100000000E-03 0.  1.
         11   -1    0    0    0    0 -0.00000000000E+00 -0.00000000000E+00 -0.45593999997E+02  0.45594000000E+02  0.51100000000E-03 0. -1.
    9900012    2    1    2    0    0 -0.53906628823E+01 -0.23332825233E+02 -0.21053294335E+02  0.59301934360E+02  0.49999982368E+02 0.  0.
        -12    1    1    2    0    0  0.53906628823E+01  0.23332825233E+02  0.21053294335E+02  0.31886065640E+02  0.00000000000E+00 0.  1.
         11    1    3    3    0    0  0.48136598893E+01 -0.25499441281E+01 -0.22909002987E+02  0.23547737783E+02  0.51100000000E-03 0. -1.
        -11    1    3    3    0    0  0.42871726038E+01 -0.67414347355E+01 -0.96485029778E+01  0.12526787346E+02  0.51100000000E-03 0.  1.
        -12    1    3    3    0    0 -0.14491495375E+02 -0.14041446369E+02  0.11504211630E+02  0.23227409231E+02  0.00000000000E+00 0.  1.
</event>
<event>
 7    1  0.1290195E-011  0.5930199E+02  0.7816164E-02  0.1266605E+00
        -11   -1    0    0    0    0  0.00000000000E+00  0.00000000000E+00  0.45593999997E+02  0.45594000000E+02  0.51100000000E-03 0.  1.
         11   -1    0    0    0    0 -0.00000000000E+00 -0.00000000000E+00 -0.45593999997E+02  0.45594000000E+02  0.51100000000E-03 0. -1.
    9900012    2    1    2    0    0  0.72870332209E+01  0.26342537451E+02 -0.16422168893E+02  0.59301987962E+02  0.50000080126E+02 0.  0.
        -12    1    1    2    0    0 -0.72870332209E+01 -0.26342537451E+02  0.16422168893E+02  0.31886012038E+02  0.00000000000E+00 0.  1.
         11    1    3    3    0    0  0.11247332405E+02  0.14152564575E+02 -0.13939996277E+02  0.22828076282E+02  0.51100000000E-03 0. -1.
        -11    1    3    3    0    0  0.36394067330E+01 -0.91925001278E+01 -0.84540863276E+01  0.13008417116E+02  0.51100000000E-03 0.  1.
        -12    1    3    3    0    0 -0.75997059175E+01  0.21382473003E+02  0.59719137111E+01  0.23465494564E+02  0.00000000000E+00 0.  1.
</event>
<event>
 7    1  0.1290195E-011  0.5930195E+02  0.7816164E-02  0.1266605E+00
        -11   -1    0    0    0    0  0.00000000000E+00  0.00000000000E+00  0.45593999997E+02  0.45594000000E+02  0.51100000000E-03 0.  1.
         11   -1    0    0    0    0 -0.00000000000E+00 -0.00000000000E+00 -0.45593999997E+02  0.45594000000E+02  0.51100000000E-03 0. -1.
    9900012    2    1    2    0    0 -0.94349039052E+01  0.72885977381E-01 -0.30458125803E+02  0.59301950519E+02  0.50000011839E+02 0.  0.
        -12    1    1    2    0    0  0.94349039052E+01 -0.72885977381E-01  0.30458125803E+02  0.31886049481E+02  0.00000000000E+00 0.  1.
         11    1    3    3    0    0 -0.88493899921E+00  0.75138348260E+01  0.59854009149E+01  0.96470645897E+01  0.51100000000E-03 0. -1.
        -11    1    3    3    0    0 -0.93019038119E+01  0.11012087425E+02 -0.10609710042E+02  0.17898531543E+02  0.51100000000E-03 0.  1.
         12    1    3    3    0    0  0.75193890588E+00 -0.18453036273E+02 -0.25833816676E+02  0.31756354386E+02  0.00000000000E+00 0. -1.
</event>
<event>
 7    1  0.1290195E-011  0.5930197E+02  0.7816164E-02  0.1266605E+00
        -11   -1    0    0    0    0  0.00000000000E+00  0.00000000000E+00  0.45593999997E+02  0.45594000000E+02  0.51100000000E-03 0.  1.
         11   -1    0    0    0    0 -0.00000000000E+00 -0.00000000000E+00 -0.45593999997E+02  0.45594000000E+02  0.51100000000E-03 0. -1.
    9900012    2    1    2    0    0 -0.11986473095E+02  0.27290299309E+02 -0.11326210842E+02  0.59301968173E+02  0.50000044035E+02 0.  0.
        -12    1    1    2    0    0  0.11986473095E+02 -0.27290299309E+02  0.11326210842E+02  0.31886031827E+02  0.00000000000E+00 0.  1.
         11    1    3    3    0    0 -0.45106244427E+00  0.16349775036E+02 -0.14932834217E+02  0.22147418339E+02  0.51100000000E-03 0. -1.
        -11    1    3    3    0    0 -0.50474944145E+01 -0.10868940499E+02 -0.47831344364E+01  0.12903078809E+02  0.51100000000E-03 0.  1.
        -12    1    3    3    0    0 -0.64879162362E+01  0.21809464773E+02  0.83897578116E+01  0.24251471026E+02  0.00000000000E+00 0.  1.
</event>
<event>
 7    1  0.1290195E-011  0.5930182E+02  0.7816164E-02  0.1266605E+00
        -11   -1    0    0    0    0  0.00000000000E+00  0.00000000000E+00  0.45593999997E+02  0.45594000000E+02  0.51100000000E-03 0.  1.
         11   -1    0    0    0    0 -0.00000000000E+00 -0.00000000000E+00 -0.45593999997E+02  0.45594000000E+02  0.51100000000E-03 0. -1.
    9900012    2    1    2    0    0 -0.16214858270E+02 -0.24296479143E+00 -0.27454470139E+02  0.59301818177E+02  0.49999770479E+02 0.  0.
        -12    1    1    2    0    0  0.16214858270E+02  0.24296479143E+00  0.27454470139E+02  0.31886181823E+02  0.00000000000E+00 0.  1.
         11    1    3    3    0    0 -0.25651050272E+01 -0.15812102166E+02 -0.17447666478E+02  0.23685932629E+02  0.51100000000E-03 0. -1.
        -11    1    3    3    0    0 -0.73010924158E+01 -0.15258284796E+01 -0.14962644955E+02  0.16718697536E+02  0.51100000000E-03 0.  1.
        -12    1    3    3    0    0 -0.63486608266E+01  0.17094965854E+02  0.49558412932E+01  0.18897188012E+02  0.00000000000E+00 0.  1.
</event>
<event>
 7    1  0.1290195E-011  0.5930191E+02  0.7816164E-02  0.1266605E+00
        -11   -1    0    0    0    0  0.00000000000E+00  0.00000000000E+00  0.45593999997E+02  0.45594000000E+02  0.51100000000E-03 0. -1.
         11   -1    0    0    0    0 -0.00000000000E+00 -0.00000000000E+00 -0.45593999997E+02  0.45594000000E+02  0.51100000000E-03 0.  1.
    9900012    2    1    2    0    0 -0.28684755221E+02  0.13171199903E+02 -0.45196303446E+01  0.59301909813E+02  0.49999937600E+02 0.  0.
        -12    1    1    2    0    0  0.28684755221E+02 -0.13171199903E+02  0.45196303446E+01  0.31886090187E+02  0.00000000000E+00 0.  1.
         11    1    3    3    0    0 -0.10796817979E+02  0.20479000400E+01 -0.74604497786E+01  0.13282450234E+02  0.51100000000E-03 0. -1.
        -11    1    3    3    0    0 -0.21747703486E+02  0.70518488924E+01 -0.14918746732E+02  0.27299453914E+02  0.51100000000E-03 0.  1.
         12    1    3    3    0    0  0.38597662438E+01  0.40714509705E+01  0.17859566166E+02  0.18720005665E+02  0.00000000000E+00 0. -1.
</event>
<event>
 7    1  0.1290195E-011  0.5930195E+02  0.7816164E-02  0.1266605E+00
        -11   -1    0    0    0    0  0.00000000000E+00  0.00000000000E+00  0.45593999997E+02  0.45594000000E+02  0.51100000000E-03 0.  1.
         11   -1    0    0    0    0 -0.00000000000E+00 -0.00000000000E+00 -0.45593999997E+02  0.45594000000E+02  0.51100000000E-03 0. -1.
    9900012    2    1    2    0    0  0.22230998713E+02  0.19112357731E+02 -0.12538769687E+02  0.59301948707E+02  0.50000008533E+02 0.  0.
        -12    1    1    2    0    0 -0.22230998713E+02 -0.19112357731E+02  0.12538769687E+02  0.31886051293E+02  0.00000000000E+00 0.  1.
         11    1    3    3    0    0 -0.12553806286E+02  0.14882930223E+02 -0.38470044844E+01  0.19846891647E+02  0.51100000000E-03 0.  1.
        -11    1    3    3    0    0  0.84733462643E+01 -0.33204222961E+01 -0.79304713375E+01  0.12071254162E+02  0.51100000000E-03 0. -1.
        -12    1    3    3    0    0  0.26311458735E+02  0.75498498046E+01 -0.76129386521E+00  0.27383802898E+02  0.00000000000E+00 0.  1.
</event>
<event>
 7    1  0.1290195E-011  0.5930192E+02  0.7816164E-02  0.1266605E+00
        -11   -1    0    0    0    0  0.00000000000E+00  0.00000000000E+00  0.45593999997E+02  0.45594000000E+02  0.51100000000E-03 0.  1.
         11   -1    0    0    0    0 -0.00000000000E+00 -0.00000000000E+00 -0.45593999997E+02  0.45594000000E+02  0.51100000000E-03 0. -1.
    9900012    2    1    2    0    0  0.10930151368E+02  0.29899268080E+02 -0.18132349614E+01  0.59301917430E+02  0.49999951491E+02 0.  0.
        -12    1    1    2    0    0 -0.10930151368E+02 -0.29899268080E+02  0.18132349614E+01  0.31886082570E+02  0.00000000000E+00 0.  1.
         11    1    3    3    0    0  0.20033064054E+02  0.10270161117E+02 -0.26806870542E+00  0.22513811891E+02  0.51100000000E-03 0. -1.
        -11    1    3    3    0    0  0.62777799497E+01 -0.14528299173E+01 -0.76350017903E+01  0.99907201174E+01  0.51100000000E-03 0.  1.
        -12    1    3    3    0    0 -0.15380692636E+02  0.21081936880E+02  0.60898355343E+01  0.26797385421E+02  0.00000000000E+00 0.  1.
</event>
<event>
 7    1  0.1290195E-011  0.5930192E+02  0.7816164E-02  0.1266605E+00
        -11   -1    0    0    0    0  0.00000000000E+00  0.00000000000E+00  0.45593999997E+02  0.45594000000E+02  0.51100000000E-03 0. -1.
         11   -1    0    0    0    0 -0.00000000000E+00 -0.00000000000E+00 -0.45593999997E+02  0.45594000000E+02  0.51100000000E-03 0.  1.
    9900012    2    1    2    0    0 -0.29145454068E+02 -0.30254988002E+01  0.12574215362E+02  0.59301921097E+02  0.49999958180E+02 0.  0.
        -12    1    1    2    0    0  0.29145454068E+02  0.30254988002E+01 -0.12574215362E+02  0.31886078903E+02  0.00000000000E+00 0.  1.
         11    1    3    3    0    0 -0.14309053447E+02  0.11523156586E+02 -0.82772156164E+00  0.18390684367E+02  0.51100000000E-03 0. -1.
        -11    1    3    3    0    0  0.32183977675E+01  0.74932138592E+01  0.88896927889E+01  0.12063704915E+02  0.51100000000E-03 0.  1.
         12    1    3    3    0    0 -0.18054798389E+02 -0.22041869245E+02  0.45122441349E+01  0.28847531815E+02  0.00000000000E+00 0. -1.
</event>
<event>
 7    1  0.1290195E-011  0.5930193E+02  0.7816164E-02  0.1266605E+00
        -11   -1    0    0    0    0  0.00000000000E+00  0.00000000000E+00  0.45593999997E+02  0.45594000000E+02  0.51100000000E-03 0.  1.
         11   -1    0    0    0    0 -0.00000000000E+00 -0.00000000000E+00 -0.45593999997E+02  0.45594000000E+02  0.51100000000E-03 0. -1.
    9900012    2    1    2    0    0 -0.11075598230E+02 -0.29804205075E+02 -0.24004264821E+01  0.59301928377E+02  0.49999971456E+02 0.  0.
        -12    1    1    2    0    0  0.11075598230E+02  0.29804205075E+02  0.24004264821E+01  0.31886071623E+02  0.00000000000E+00 0.  1.
         11    1    3    3    0    0  0.22076342639E+01 -0.13750485854E+02 -0.10640525589E+02  0.17526274428E+02  0.51100000000E-03 0.  1.
        -11    1    3    3    0    0 -0.24798328607E+02 -0.12456365831E+02  0.11334853858E+01  0.27774141585E+02  0.51100000000E-03 0. -1.
        -12    1    3    3    0    0  0.11515096113E+02 -0.35973533894E+01  0.71066137206E+01  0.14001512364E+02  0.00000000000E+00 0.  1.
</event>
<event>
 7    1  0.1290195E-011  0.5930194E+02  0.7816164E-02  0.1266605E+00
        -11   -1    0    0    0    0  0.00000000000E+00  0.00000000000E+00  0.45593999997E+02  0.45594000000E+02  0.51100000000E-03 0. -1.
         11   -1    0    0    0    0 -0.00000000000E+00 -0.00000000000E+00 -0.45593999997E+02  0.45594000000E+02  0.51100000000E-03 0.  1.
    9900012    2    1    2    0    0  0.15966089382E+02 -0.20720471662E+02  0.18233672286E+02  0.59301940960E+02  0.49999994406E+02 0.  0.
        -12    1    1    2    0    0 -0.15966089382E+02  0.20720471662E+02 -0.18233672286E+02  0.31886059040E+02  0.00000000000E+00 0.  1.
         11    1    3    3    0    0  0.39808037963E+01  0.13866573030E+01 -0.13752927261E+01  0.44340779971E+01  0.51100000000E-03 0. -1.
        -11    1    3    3    0    0  0.23027702133E+02 -0.15916860267E+02 -0.38051405630E+01  0.28250674350E+02  0.51100000000E-03 0.  1.
         12    1    3    3    0    0 -0.11042416547E+02 -0.61902686980E+01  0.23414105576E+02  0.26617188613E+02  0.00000000000E+00 0. -1.
</event>
<event>
 7    1  0.1290195E-011  0.5930194E+02  0.7816164E-02  0.1266605E+00
        -11   -1    0    0    0    0  0.00000000000E+00  0.00000000000E+00  0.45593999997E+02  0.45594000000E+02  0.51100000000E-03 0.  1.
         11   -1    0    0    0    0 -0.00000000000E+00 -0.00000000000E+00 -0.45593999997E+02  0.45594000000E+02  0.51100000000E-03 0. -1.
    9900012    2    1    2    0    0 -0.28622899743E+02  0.67851531653E+01  0.12304971951E+02  0.59301936777E+02  0.49999986776E+02 0.  0.
        -12    1    1    2    0    0  0.28622899743E+02 -0.67851531653E+01 -0.12304971951E+02  0.31886063223E+02  0.00000000000E+00 0.  1.
         11    1    3    3    0    0 -0.18844535634E+01 -0.45281802728E+01  0.19332278547E+01  0.52719021249E+01  0.51100000000E-03 0. -1.
        -11    1    3    3    0    0 -0.74993808213E+01 -0.66830476719E+01  0.22790120072E+02  0.24905690354E+02  0.51100000000E-03 0.  1.
         12    1    3    3    0    0 -0.19239065358E+02  0.17996381110E+02 -0.12418375976E+02  0.29124344298E+02  0.00000000000E+00 0. -1.
</event>
<event>
 7    1  0.1290195E-011  0.5930194E+02  0.7816164E-02  0.1266605E+00
        -11   -1    0    0    0    0  0.00000000000E+00  0.00000000000E+00  0.45593999997E+02  0.45594000000E+02  0.51100000000E-03 0.  1.
         11   -1    0    0    0    0 -0.00000000000E+00 -0.00000000000E+00 -0.45593999997E+02  0.45594000000E+02  0.51100000000E-03 0. -1.
    9900012    2    1    2    0    0 -0.71763947146E+01  0.15220468049E+02 -0.27084270459E+02  0.59301937292E+02  0.49999987716E+02 0.  0.
        -12    1    1    2    0    0  0.71763947146E+01 -0.15220468049E+02  0.27084270459E+02  0.31886062708E+02  0.00000000000E+00 0.  1.
         11    1    3    3    0    0 -0.15341441638E+02  0.19183210867E+02 -0.14756294964E+02  0.28654906247E+02  0.51100000000E-03 0. -1.
        -11    1    3    3    0    0 -0.54287027698E+01  0.37220003934E+01  0.42795933663E+01  0.78510521801E+01  0.51100000000E-03 0.  1.
         12    1    3    3    0    0  0.13593749694E+02 -0.76847432111E+01 -0.16607568861E+02  0.22795978865E+02  0.00000000000E+00 0. -1.
</event>
<event>
 7    1  0.1290195E-011  0.5930194E+02  0.7816164E-02  0.1266605E+00
        -11   -1    0    0    0    0  0.00000000000E+00  0.00000000000E+00  0.45593999997E+02  0.45594000000E+02  0.51100000000E-03 0.  1.
         11   -1    0    0    0    0 -0.00000000000E+00 -0.00000000000E+00 -0.45593999997E+02  0.45594000000E+02  0.51100000000E-03 0. -1.
    9900012    2    1    2    0    0  0.31564934897E+02 -0.40969986096E+01  0.18947546107E+01  0.59301943366E+02  0.49999998793E+02 0.  0.
        -12    1    1    2    0    0 -0.31564934897E+02  0.40969986096E+01 -0.18947546107E+01  0.31886056634E+02  0.00000000000E+00 0.  1.
         11    1    3    3    0    0  0.19516009232E+02  0.15203585958E+01  0.46724355960E+01  0.20125053075E+02  0.51100000000E-03 0. -1.
        -11    1    3    3    0    0  0.10142100147E+02 -0.20164230510E+02  0.41544081646E+01  0.22950326684E+02  0.51100000000E-03 0.  1.
         12    1    3    3    0    0  0.19068255176E+01  0.14546873305E+02 -0.69320891499E+01  0.16226563607E+02  0.00000000000E+00 0. -1.
</event>
<event>
 7    1  0.1449688E-011  0.5930211E+02  0.7816164E-02  0.1266604E+00
        -11   -1    0    0    0    0  0.00000000000E+00  0.00000000000E+00  0.45593999997E+02  0.45594000000E+02  0.51100000000E-03 0.  1.
         11   -1    0    0    0    0 -0.00000000000E+00 -0.00000000000E+00 -0.45593999997E+02  0.45594000000E+02  0.51100000000E-03 0. -1.
    9900012    2    1    2    0    0 -0.16548879344E+02  0.20840621511E+02 -0.17564533867E+02  0.59302113428E+02  0.50000308945E+02 0.  0.
        -12    1    1    2    0    0  0.16548879344E+02 -0.20840621511E+02  0.17564533867E+02  0.31885886572E+02  0.00000000000E+00 0.  1.
         11    1    3    3    0    0 -0.22204781825E+02  0.10244922645E+02 -0.10071807851E+02  0.26447156549E+02  0.51100000000E-03 0.  1.
        -11    1    3    3    0    0 -0.14288948306E+00  0.12677427625E+02 -0.17193849438E+02  0.21362725654E+02  0.51100000000E-03 0. -1.
        -12    1    3    3    0    0  0.57987919634E+01 -0.20817287597E+01  0.97011234226E+01  0.11492231225E+02  0.00000000000E+00 0.  1.
</event>
<event>
 7    1  0.1290195E-011  0.5930195E+02  0.7816164E-02  0.1266605E+00
        -11   -1    0    0    0    0  0.00000000000E+00  0.00000000000E+00  0.45593999997E+02  0.45594000000E+02  0.51100000000E-03 0.  1.
         11   -1    0    0    0    0 -0.00000000000E+00 -0.00000000000E+00 -0.45593999997E+02  0.45594000000E+02  0.51100000000E-03 0. -1.
    9900012    2    1    2    0    0  0.13767502182E+02  0.13978336171E+02 -0.25135274963E+02  0.59301952175E+02  0.50000014859E+02 0.  0.
        -12    1    1    2    0    0 -0.13767502182E+02 -0.13978336171E+02  0.25135274963E+02  0.31886047825E+02  0.00000000000E+00 0.  1.
         11    1    3    3    0    0 -0.13447081738E+01  0.50725270564E+01 -0.24811066996E+01  0.58047102879E+01  0.51100000000E-03 0. -1.
        -11    1    3    3    0    0  0.21370274863E+02  0.15278823838E+02 -0.31438444201E+02  0.40969584812E+02  0.51100000000E-03 0.  1.
        -12    1    3    3    0    0 -0.62580645075E+01 -0.63730147230E+01  0.87842759383E+01  0.12527657075E+02  0.00000000000E+00 0.  1.
</event>
<event>
 7    1  0.1290195E-011  0.5930195E+02  0.7816164E-02  0.1266605E+00
        -11   -1    0    0    0    0  0.00000000000E+00  0.00000000000E+00  0.45593999997E+02  0.45594000000E+02  0.51100000000E-03 0.  1.
         11   -1    0    0    0    0 -0.00000000000E+00 -0.00000000000E+00 -0.45593999997E+02  0.45594000000E+02  0.51100000000E-03 0. -1.
    9900012    2    1    2    0    0 -0.25101670834E+01  0.14179806317E+02 -0.28449122221E+02  0.59301946605E+02  0.50000004701E+02 0.  0.
        -12    1    1    2    0    0  0.25101670834E+01 -0.14179806317E+02  0.28449122221E+02  0.31886053395E+02  0.00000000000E+00 0.  1.
         11    1    3    3    0    0 -0.14651103640E+01  0.11525328223E+02  0.50407298838E+00  0.11629008077E+02  0.51100000000E-03 0. -1.
        -11    1    3    3    0    0  0.40506025676E+01  0.16527053482E+02 -0.22653866194E+01  0.17166329100E+02  0.51100000000E-03 0.  1.
        -12    1    3    3    0    0 -0.50956592871E+01 -0.13872575388E+02 -0.26687808590E+02  0.30506609428E+02  0.00000000000E+00 0.  1.
</event>
<event>
 7    1  0.1290195E-011  0.5930205E+02  0.7816164E-02  0.1266604E+00
        -11   -1    0    0    0    0  0.00000000000E+00  0.00000000000E+00  0.45593999997E+02  0.45594000000E+02  0.51100000000E-03 0.  1.
         11   -1    0    0    0    0 -0.00000000000E+00 -0.00000000000E+00 -0.45593999997E+02  0.45594000000E+02  0.51100000000E-03 0. -1.
    9900012    2    1    2    0    0 -0.33522783049E+01 -0.24827870478E+02  0.19724424049E+02  0.59302049703E+02  0.50000192725E+02 0.  0.
        -12    1    1    2    0    0  0.33522783049E+01  0.24827870478E+02 -0.19724424049E+02  0.31885950297E+02  0.00000000000E+00 0.  1.
         11    1    3    3    0    0 -0.18637087943E+02 -0.90133626613E+01  0.17203149073E+02  0.26917096644E+02  0.51100000000E-03 0. -1.
        -11    1    3    3    0    0 -0.59124997611E+01 -0.11620316071E+01 -0.17276667018E+01  0.62683971935E+01  0.51100000000E-03 0.  1.
         12    1    3    3    0    0  0.21197309399E+02 -0.14652476210E+02  0.42489416774E+01  0.26116555865E+02  0.00000000000E+00 0. -1.
</event>
<event>
 7    1  0.1290195E-011  0.5930197E+02  0.7816164E-02  0.1266605E+00
        -11   -1    0    0    0    0  0.00000000000E+00  0.00000000000E+00  0.45593999997E+02  0.45594000000E+02  0.51100000000E-03 0.  1.
         11   -1    0    0    0    0 -0.00000000000E+00 -0.00000000000E+00 -0.45593999997E+02  0.45594000000E+02  0.51100000000E-03 0. -1.
    9900012    2    1    2    0    0 -0.22143841077E+02  0.58382619078E+01 -0.22187475607E+02  0.59301967422E+02  0.50000042665E+02 0.  0.
        -12    1    1    2    0    0  0.22143841077E+02 -0.58382619078E+01  0.22187475607E+02  0.31886032578E+02  0.00000000000E+00 0.  1.
         11    1    3    3    0    0  0.40680538084E+01 -0.83096066200E+01 -0.23004010226E+02  0.24794820240E+02  0.51100000000E-03 0. -1.
        -11    1    3    3    0    0 -0.40361052020E+01  0.30642067695E+01 -0.68833686030E+01  0.85475301646E+01  0.51100000000E-03 0.  1.
        -12    1    3    3    0    0 -0.22175789684E+02  0.11083661758E+02  0.76999032219E+01  0.25959617017E+02  0.00000000000E+00 0.  1.
</event>
<event>
 7    1  0.1290195E-011  0.5930195E+02  0.7816164E-02  0.1266605E+00
        -11   -1    0    0    0    0  0.00000000000E+00  0.00000000000E+00  0.45593999997E+02  0.45594000000E+02  0.51100000000E-03 0.  1.
         11   -1    0    0    0    0 -0.00000000000E+00 -0.00000000000E+00 -0.45593999997E+02  0.45594000000E+02  0.51100000000E-03 0. -1.
    9900012    2    1    2    0    0  0.25893756086E+01  0.31768842620E+02 -0.86941926724E+00  0.59301951056E+02  0.50000012817E+02 0.  0.
        -12    1    1    2    0    0 -0.25893756086E+01 -0.31768842620E+02  0.86941926724E+00  0.31886048944E+02  0.00000000000E+00 0.  1.
         11    1    3    3    0    0 -0.36494452706E+00  0.19335208955E+02  0.10387272525E+02  0.21951740720E+02  0.51100000000E-03 0. -1.
        -11    1    3    3    0    0 -0.97610262413E+00  0.17370632112E+02  0.64480326612E+01  0.18554480908E+02  0.51100000000E-03 0.  1.
         12    1    3    3    0    0  0.39304227598E+01 -0.49369984476E+01 -0.17704724454E+02  0.18795729428E+02  0.00000000000E+00 0. -1.
</event>
<event>
 7    1  0.1290195E-011  0.5930200E+02  0.7816164E-02  0.1266605E+00
        -11   -1    0    0    0    0  0.00000000000E+00  0.00000000000E+00  0.45593999997E+02  0.45594000000E+02  0.51100000000E-03 0. -1.
         11   -1    0    0    0    0 -0.00000000000E+00 -0.00000000000E+00 -0.45593999997E+02  0.45594000000E+02  0.51100000000E-03 0.  1.
    9900012    2    1    2    0    0 -0.60072633458E+01  0.20969928190E+02  0.23257088382E+02  0.59301995841E+02  0.50000094495E+02 0.  0.
        -12    1    1    2    0    0  0.60072633458E+01 -0.20969928190E+02 -0.23257088382E+02  0.31886004159E+02  0.00000000000E+00 0.  1.
         11    1    3    3    0    0  0.10250949417E+02  0.14453188988E+02  0.56147783555E+00  0.17728279485E+02  0.51100000000E-03 0.  1.
        -11    1    3    3    0    0  0.54737219534E+01  0.10599360991E+02  0.38938532824E+01  0.12548712249E+02  0.51100000000E-03 0. -1.
         12    1    3    3    0    0 -0.21731934716E+02 -0.40826217896E+01  0.18801757264E+02  0.29025004107E+02  0.00000000000E+00 0. -1.
</event>
<event>
 7    1  0.1290195E-011  0.5930191E+02  0.7816164E-02  0.1266605E+00
        -11   -1    0    0    0    0  0.00000000000E+00  0.00000000000E+00  0.45593999997E+02  0.45594000000E+02  0.51100000000E-03 0.  1.
         11   -1    0    0    0    0 -0.00000000000E+00 -0.00000000000E+00 -0.45593999997E+02  0.45594000000E+02  0.51100000000E-03 0. -1.
    9900012    2    1    2    0    0 -0.29905266024E+02  0.39260772797E+01 -0.10343287937E+02  0.59301911746E+02  0.49999941126E+02 0.  0.
        -12    1    1    2    0    0  0.29905266024E+02 -0.39260772797E+01  0.10343287937E+02  0.31886088254E+02  0.00000000000E+00 0.  1.
         11    1    3    3    0    0 -0.20474119547E+02 -0.11567907028E+02  0.41316738741E+01  0.23876280562E+02  0.51100000000E-03 0. -1.
        -11    1    3    3    0    0  0.31043077575E+01 -0.58194697964E+01  0.33316182876E+00  0.66040860405E+01  0.51100000000E-03 0.  1.
        -12    1    3    3    0    0 -0.12535454235E+02  0.21313454104E+02 -0.14808123640E+02  0.28821545143E+02  0.00000000000E+00 0.  1.
</event>
<event>
 7    1  0.1290195E-011  0.5930191E+02  0.7816164E-02  0.1266605E+00
        -11   -1    0    0    0    0  0.00000000000E+00  0.00000000000E+00  0.45593999997E+02  0.45594000000E+02  0.51100000000E-03 0.  1.
         11   -1    0    0    0    0 -0.00000000000E+00 -0.00000000000E+00 -0.45593999997E+02  0.45594000000E+02  0.51100000000E-03 0. -1.
    9900012    2    1    2    0    0 -0.12650967235E+02 -0.16337799385E+01 -0.29223387965E+02  0.59301911921E+02  0.49999941444E+02 0.  0.
        -12    1    1    2    0    0  0.12650967235E+02  0.16337799385E+01  0.29223387965E+02  0.31886088079E+02  0.00000000000E+00 0.  1.
         11    1    3    3    0    0 -0.15709281247E+02  0.71184902211E+01 -0.19743158080E+02  0.26215390738E+02  0.51100000000E-03 0. -1.
        -11    1    3    3    0    0 -0.11405994952E+02 -0.59840892269E+01 -0.12615862331E+02  0.18029587553E+02  0.51100000000E-03 0.  1.
        -12    1    3    3    0    0  0.14464308964E+02 -0.27681809327E+01  0.31356324463E+01  0.15056933629E+02  0.00000000000E+00 0.  1.
</event>
<event>
 7    1  0.1290195E-011  0.5930195E+02  0.7816164E-02  0.1266605E+00
        -11   -1    0    0    0    0  0.00000000000E+00  0.00000000000E+00  0.45593999997E+02  0.45594000000E+02  0.51100000000E-03 0.  1.
         11   -1    0    0    0    0 -0.00000000000E+00 -0.00000000000E+00 -0.45593999997E+02  0.45594000000E+02  0.51100000000E-03 0. -1.
    9900012    2    1    2    0    0 -0.29417951714E+02  0.98510198453E+01  0.73662456560E+01  0.59301952109E+02  0.50000014738E+02 0.  0.
        -12    1    1    2    0    0  0.29417951714E+02 -0.98510198453E+01 -0.73662456560E+01  0.31886047891E+02  0.00000000000E+00 0.  1.
         11    1    3    3    0    0 -0.26271516868E+00 -0.35628487856E+01 -0.79905413338E+01  0.87528087948E+01  0.51100000000E-03 0. -1.
        -11    1    3    3    0    0  0.25285489063E+00 -0.75878978225E+01 -0.49825729300E+01  0.90810881630E+01  0.51100000000E-03 0.  1.
        -12    1    3    3    0    0 -0.29408091436E+02  0.21001766453E+02  0.20339359920E+02  0.41468055151E+02  0.00000000000E+00 0.  1.
</event>
<event>
 7    1  0.1290195E-011  0.5930197E+02  0.7816164E-02  0.1266605E+00
        -11   -1    0    0    0    0  0.00000000000E+00  0.00000000000E+00  0.45593999997E+02  0.45594000000E+02  0.51100000000E-03 0. -1.
         11   -1    0    0    0    0 -0.00000000000E+00 -0.00000000000E+00 -0.45593999997E+02  0.45594000000E+02  0.51100000000E-03 0.  1.
    9900012    2    1    2    0    0 -0.12965138436E+01  0.31118067616E+02  0.68340162397E+01  0.59301970798E+02  0.50000048822E+02 0.  0.
        -12    1    1    2    0    0  0.12965138436E+01 -0.31118067616E+02 -0.68340162397E+01  0.31886029202E+02  0.00000000000E+00 0.  1.
         11    1    3    3    0    0 -0.21496228090E+00  0.19065391662E+02  0.22465736126E+02  0.29465991718E+02  0.51100000000E-03 0. -1.
        -11    1    3    3    0    0  0.75143169617E+01 -0.99389738226E+00  0.21448243469E+00  0.75827959476E+01  0.51100000000E-03 0.  1.
        -12    1    3    3    0    0 -0.85958685243E+01  0.13046573337E+02 -0.15846202321E+02  0.22253183132E+02  0.00000000000E+00 0.  1.
</event>
<event>
 7    1  0.1290195E-011  0.5930192E+02  0.7816164E-02  0.1266605E+00
        -11   -1    0    0    0    0  0.00000000000E+00  0.00000000000E+00  0.45593999997E+02  0.45594000000E+02  0.51100000000E-03 0.  1.
         11   -1    0    0    0    0 -0.00000000000E+00 -0.00000000000E+00 -0.45593999997E+02  0.45594000000E+02  0.51100000000E-03 0. -1.
    9900012    2    1    2    0    0  0.82663649487E+00  0.30960098413E+02 -0.75836122001E+01  0.59301918465E+02  0.49999953380E+02 0.  0.
        -12    1    1    2    0    0 -0.82663649487E+00 -0.30960098413E+02  0.75836122001E+01  0.31886081535E+02  0.00000000000E+00 0.  1.
         11    1    3    3    0    0  0.33464836761E+01  0.17622533198E+01  0.23692690570E+01  0.44629503563E+01  0.51100000000E-03 0. -1.
        -11    1    3    3    0    0  0.17057762587E+02  0.21088349951E+02  0.66404439799E+01  0.27924563822E+02  0.51100000000E-03 0.  1.
         12    1    3    3    0    0 -0.19577609768E+02  0.81094951420E+01 -0.16593325237E+02  0.26914404287E+02  0.00000000000E+00 0. -1.
</event>
<event>
 7    1  0.1290195E-011  0.5930182E+02  0.7816164E-02  0.1266605E+00
        -11   -1    0    0    0    0  0.00000000000E+00  0.00000000000E+00  0.45593999997E+02  0.45594000000E+02  0.51100000000E-03 0.  1.
         11   -1    0    0    0    0 -0.00000000000E+00 -0.00000000000E+00 -0.45593999997E+02  0.45594000000E+02  0.51100000000E-03 0. -1.
    9900012    2    1    2    0    0  0.17819837138E+02 -0.21225432407E+02  0.15769048342E+02  0.59301820202E+02  0.49999774171E+02 0.  0.
        -12    1    1    2    0    0 -0.17819837138E+02  0.21225432407E+02 -0.15769048342E+02  0.31886179798E+02  0.00000000000E+00 0.  1.
         11    1    3    3    0    0  0.25350875074E+02 -0.64716103345E+01 -0.10002534514E+01  0.26182992849E+02  0.51100000000E-03 0. -1.
        -11    1    3    3    0    0 -0.18098326676E+01  0.62146919551E+01  0.61487936795E+01  0.89277967246E+01  0.51100000000E-03 0.  1.
        -12    1    3    3    0    0 -0.57212052681E+01 -0.20968514028E+02  0.10620508114E+02  0.24191030628E+02  0.00000000000E+00 0.  1.
</event>
<event>
 7    1  0.1290195E-011  0.5930194E+02  0.7816164E-02  0.1266605E+00
        -11   -1    0    0    0    0  0.00000000000E+00  0.00000000000E+00  0.45593999997E+02  0.45594000000E+02  0.51100000000E-03 0.  1.
         11   -1    0    0    0    0 -0.00000000000E+00 -0.00000000000E+00 -0.45593999997E+02  0.45594000000E+02  0.51100000000E-03 0. -1.
    9900012    2    1    2    0    0  0.22263699185E+02 -0.21642039705E+02 -0.72574498773E+01  0.59301940935E+02  0.49999994360E+02 0.  0.
        -12    1    1    2    0    0 -0.22263699185E+02  0.21642039705E+02  0.72574498773E+01  0.31886059065E+02  0.00000000000E+00 0.  1.
         11    1    3    3    0    0  0.79293685509E+01  0.65533028273E+01  0.12793581887E+01  0.10366167141E+02  0.51100000000E-03 0. -1.
        -11    1    3    3    0    0  0.65735663616E+01 -0.47855358430E+01  0.13567278754E+02  0.15817211545E+02  0.51100000000E-03 0.  1.
         12    1    3    3    0    0  0.77607642721E+01 -0.23409806689E+02 -0.22104086820E+02  0.33118562249E+02  0.00000000000E+00 0. -1.
</event>
<event>
 7    1  0.1290195E-011  0.5930197E+02  0.7816164E-02  0.1266605E+00
        -11   -1    0    0    0    0  0.00000000000E+00  0.00000000000E+00  0.45593999997E+02  0.45594000000E+02  0.51100000000E-03 0.  1.
         11   -1    0    0    0    0 -0.00000000000E+00 -0.00000000000E+00 -0.45593999997E+02  0.45594000000E+02  0.51100000000E-03 0. -1.
    9900012    2    1    2    0    0  0.50522853551E+01  0.16422090907E+02 -0.26860901419E+02  0.59301973560E+02  0.50000053860E+02 0.  0.
        -12    1    1    2    0    0 -0.50522853551E+01 -0.16422090907E+02  0.26860901419E+02  0.31886026440E+02  0.00000000000E+00 0.  1.
         11    1    3    3    0    0  0.39423921331E+01  0.55383551968E+00  0.14643131432E+01  0.42418631233E+01  0.51100000000E-03 0. -1.
        -11    1    3    3    0    0  0.97602681801E+01  0.29048416588E+02 -0.13743051808E+02  0.33584889675E+02  0.51100000000E-03 0.  1.
         12    1    3    3    0    0 -0.86503749581E+01 -0.13180161200E+02 -0.14582162755E+02  0.21475220762E+02  0.00000000000E+00 0. -1.
</event>
<event>
 7    1  0.1290195E-011  0.5930196E+02  0.7816164E-02  0.1266605E+00
        -11   -1    0    0    0    0  0.00000000000E+00  0.00000000000E+00  0.45593999997E+02  0.45594000000E+02  0.51100000000E-03 0.  1.
         11   -1    0    0    0    0 -0.00000000000E+00 -0.00000000000E+00 -0.45593999997E+02  0.45594000000E+02  0.51100000000E-03 0. -1.
    9900012    2    1    2    0    0 -0.29587317927E+02  0.23826403124E+01 -0.11646162984E+02  0.59301961218E+02  0.50000031350E+02 0.  0.
        -12    1    1    2    0    0  0.29587317927E+02 -0.23826403124E+01  0.11646162984E+02  0.31886038782E+02  0.00000000000E+00 0.  1.
         11    1    3    3    0    0 -0.20179964328E+02 -0.10289033070E+02 -0.75686505406E+01  0.23882621989E+02  0.51100000000E-03 0. -1.
        -11    1    3    3    0    0  0.49362264782E+01 -0.82320926938E+01  0.68967518350E+00  0.96233743606E+01  0.51100000000E-03 0.  1.
         12    1    3    3    0    0 -0.14343580077E+02  0.20903766076E+02 -0.47671876271E+01  0.25795964868E+02  0.00000000000E+00 0. -1.
</event>
<event>
 7    1  0.1290195E-011  0.5930198E+02  0.7816164E-02  0.1266605E+00
        -11   -1    0    0    0    0  0.00000000000E+00  0.00000000000E+00  0.45593999997E+02  0.45594000000E+02  0.51100000000E-03 0. -1.
         11   -1    0    0    0    0 -0.00000000000E+00 -0.00000000000E+00 -0.45593999997E+02  0.45594000000E+02  0.51100000000E-03 0.  1.
    9900012    2    1    2    0    0 -0.20444340859E+02  0.16732405454E+02  0.17854243903E+02  0.59301976560E+02  0.50000059332E+02 0.  0.
        -12    1    1    2    0    0  0.20444340859E+02 -0.16732405454E+02 -0.17854243903E+02  0.31886023440E+02  0.00000000000E+00 0.  1.
         11    1    3    3    0    0 -0.32032459842E+01  0.35847903646E+01  0.18966635452E+02  0.19566419382E+02  0.51100000000E-03 0.  1.
        -11    1    3    3    0    0 -0.20347557147E+02  0.19090422429E+02  0.74320866591E+01  0.28873919421E+02  0.51100000000E-03 0. -1.
        -12    1    3    3    0    0  0.31064622721E+01 -0.59428073395E+01 -0.85444782080E+01  0.10861637757E+02  0.00000000000E+00 0.  1.
</event>
<event>
 7    1  0.1290195E-011  0.5930191E+02  0.7816164E-02  0.1266605E+00
        -11   -1    0    0    0    0  0.00000000000E+00  0.00000000000E+00  0.45593999997E+02  0.45594000000E+02  0.51100000000E-03 0.  1.
         11   -1    0    0    0    0 -0.00000000000E+00 -0.00000000000E+00 -0.45593999997E+02  0.45594000000E+02  0.51100000000E-03 0. -1.
    9900012    2    1    2    0    0 -0.77665519064E+01 -0.16898945650E+02 -0.25900369924E+02  0.59301908129E+02  0.49999934529E+02 0.  0.
        -12    1    1    2    0    0  0.77665519064E+01  0.16898945650E+02  0.25900369924E+02  0.31886091871E+02  0.00000000000E+00 0.  1.
         11    1    3    3    0    0 -0.51314584618E+01 -0.17514394629E+02 -0.97648868289E+01  0.20698765669E+02  0.51100000000E-03 0. -1.
        -11    1    3    3    0    0 -0.97474226341E+01  0.10531986571E+02 -0.21025906841E+02  0.25456310571E+02  0.51100000000E-03 0.  1.
         12    1    3    3    0    0  0.71123291895E+01 -0.99165375922E+01  0.48904237455E+01  0.13146831889E+02  0.00000000000E+00 0. -1.
</event>
<event>
 7    1  0.1290195E-011  0.5930193E+02  0.7816164E-02  0.1266605E+00
        -11   -1    0    0    0    0  0.00000000000E+00  0.00000000000E+00  0.45593999997E+02  0.45594000000E+02  0.51100000000E-03 0.  1.
         11   -1    0    0    0    0 -0.00000000000E+00 -0.00000000000E+00 -0.45593999997E+02  0.45594000000E+02  0.51100000000E-03 0. -1.
    9900012    2    1    2    0    0  0.22387343458E+02  0.18672253821E+02  0.12918015313E+02  0.59301932047E+02  0.49999978150E+02 0.  0.
        -12    1    1    2    0    0 -0.22387343458E+02 -0.18672253821E+02 -0.12918015313E+02  0.31886067953E+02  0.00000000000E+00 0.  1.
         11    1    3    3    0    0 -0.69830959647E+01 -0.95219977269E+01  0.14439187238E+00  0.11809018555E+02  0.51100000000E-03 0.  1.
        -11    1    3    3    0    0  0.95614026072E+00  0.71912997561E+01 -0.41039111190E+01  0.83349315002E+01  0.51100000000E-03 0. -1.
        -12    1    3    3    0    0  0.28414299162E+02  0.21002951792E+02  0.16877534559E+02  0.39157981992E+02  0.00000000000E+00 0.  1.
</event>
<event>
 7    1  0.1290195E-011  0.5930206E+02  0.7816164E-02  0.1266604E+00
        -11   -1    0    0    0    0  0.00000000000E+00  0.00000000000E+00  0.45593999997E+02  0.45594000000E+02  0.51100000000E-03 0.  1.
         11   -1    0    0    0    0 -0.00000000000E+00 -0.00000000000E+00 -0.45593999997E+02  0.45594000000E+02  0.51100000000E-03 0. -1.
    9900012    2    1    2    0    0 -0.15405045745E+02 -0.45542097734E+01 -0.27543725031E+02  0.59302061882E+02  0.50000214938E+02 0.  0.
        -12    1    1    2    0    0  0.15405045745E+02  0.45542097734E+01  0.27543725031E+02  0.31885938118E+02  0.00000000000E+00 0.  1.
         11    1    3    3    0    0 -0.65540604343E+01 -0.17240036992E+01 -0.60082797201E+01  0.90568936390E+01  0.51100000000E-03 0. -1.
        -11    1    3    3    0    0 -0.25580869172E+02  0.15740211423E+01 -0.46057939216E+01  0.26039810830E+02  0.51100000000E-03 0.  1.
         12    1    3    3    0    0  0.16729883861E+02 -0.44042272164E+01 -0.16929651389E+02  0.24205357414E+02  0.00000000000E+00 0. -1.
</event>
<event>
 7    1  0.1290195E-011  0.5930195E+02  0.7816164E-02  0.1266605E+00
        -11   -1    0    0    0    0  0.00000000000E+00  0.00000000000E+00  0.45593999997E+02  0.45594000000E+02  0.51100000000E-03 0.  1.
         11   -1    0    0    0    0 -0.00000000000E+00 -0.00000000000E+00 -0.45593999997E+02  0.45594000000E+02  0.51100000000E-03 0. -1.
    9900012    2    1    2    0    0 -0.20524528353E+02 -0.15571413810E+02 -0.18788152939E+02  0.59301954729E+02  0.50000019517E+02 0.  0.
        -12    1    1    2    0    0  0.20524528353E+02  0.15571413810E+02  0.18788152939E+02  0.31886045271E+02  0.00000000000E+00 0.  1.
         11    1    3    3    0    0 -0.12668773381E+02 -0.21772941920E+02 -0.13197681902E+02  0.28438312656E+02  0.51100000000E-03 0. -1.
        -11    1    3    3    0    0 -0.17440754283E+02  0.86366595046E+01 -0.73785283227E+01  0.20813804982E+02  0.51100000000E-03 0.  1.
         12    1    3    3    0    0  0.95849993115E+01 -0.24351313941E+01  0.17880572859E+01  0.10049837092E+02  0.00000000000E+00 0. -1.
</event>
<event>
 7    1  0.1290195E-011  0.5930193E+02  0.7816164E-02  0.1266605E+00
        -11   -1    0    0    0    0  0.00000000000E+00  0.00000000000E+00  0.45593999997E+02  0.45594000000E+02  0.51100000000E-03 0.  1.
         11   -1    0    0    0    0 -0.00000000000E+00 -0.00000000000E+00 -0.45593999997E+02  0.45594000000E+02  0.51100000000E-03 0. -1.
    9900012    2    1    2    0    0  0.68668089775E+01  0.18371587139E+02 -0.25140672449E+02  0.59301926383E+02  0.49999967819E+02 0.  0.
        -12    1    1    2    0    0 -0.68668089775E+01 -0.18371587139E+02  0.25140672449E+02  0.31886073617E+02  0.00000000000E+00 0.  1.
         11    1    3    3    0    0  0.94239645571E+00  0.98293911165E+01 -0.23389912253E+01  0.10147705209E+02  0.51100000000E-03 0. -1.
        -11    1    3    3    0    0 -0.15747149183E+02 -0.47433325062E+01 -0.15757490459E+02  0.22776532143E+02  0.51100000000E-03 0.  1.
         12    1    3    3    0    0  0.21671561705E+02  0.13285528528E+02 -0.70441907654E+01  0.26377689030E+02  0.00000000000E+00 0. -1.
</event>
<event>
 7    1  0.1290195E-011  0.5930193E+02  0.7816164E-02  0.1266605E+00
        -11   -1    0    0    0    0  0.00000000000E+00  0.00000000000E+00  0.45593999997E+02  0.45594000000E+02  0.51100000000E-03 0. -1.
         11   -1    0    0    0    0 -0.00000000000E+00 -0.00000000000E+00 -0.45593999997E+02  0.45594000000E+02  0.51100000000E-03 0.  1.
    9900012    2    1    2    0    0  0.13101491018E+02  0.13526162502E+01  0.29038646674E+02  0.59301927205E+02  0.49999969320E+02 0.  0.
        -12    1    1    2    0    0 -0.13101491018E+02 -0.13526162502E+01 -0.29038646674E+02  0.31886072795E+02  0.00000000000E+00 0.  1.
         11    1    3    3    0    0 -0.17589815140E+01 -0.91383143034E+01  0.32471082510E+02  0.33778306705E+02  0.51100000000E-03 0. -1.
        -11    1    3    3    0    0  0.78582302699E+01 -0.32100671226E+01  0.27769742403E+01  0.89312877066E+01  0.51100000000E-03 0.  1.
        -12    1    3    3    0    0  0.70022422625E+01  0.13700997676E+02 -0.62094100759E+01  0.16592332793E+02  0.00000000000E+00 0.  1.
</event>
<event>
 7    1  0.1290195E-011  0.5930196E+02  0.7816164E-02  0.1266605E+00
        -11   -1    0    0    0    0  0.00000000000E+00  0.00000000000E+00  0.45593999997E+02  0.45594000000E+02  0.51100000000E-03 0.  1.
         11   -1    0    0    0    0 -0.00000000000E+00 -0.00000000000E+00 -0.45593999997E+02  0.45594000000E+02  0.51100000000E-03 0. -1.
    9900012    2    1    2    0    0 -0.26745251881E+02 -0.12477635435E+02 -0.12071437227E+02  0.59301961034E+02  0.50000031015E+02 0.  0.
        -12    1    1    2    0    0  0.26745251881E+02  0.12477635435E+02  0.12071437227E+02  0.31886038966E+02  0.00000000000E+00 0.  1.
         11    1    3    3    0    0 -0.26481607394E+02 -0.13238415842E+02 -0.21854599561E+02  0.36798841102E+02  0.51100000000E-03 0. -1.
        -11    1    3    3    0    0 -0.44123447337E+01 -0.21698359536E+01 -0.49148523993E+01  0.69521758093E+01  0.51100000000E-03 0.  1.
        -12    1    3    3    0    0  0.41487002468E+01  0.29306163610E+01  0.14698014734E+02  0.15550944123E+02  0.00000000000E+00 0.  1.
</event>
<event>
 7    1  0.1290195E-011  0.5930190E+02  0.7816164E-02  0.1266605E+00
        -11   -1    0    0    0    0  0.00000000000E+00  0.00000000000E+00  0.45593999997E+02  0.45594000000E+02  0.51100000000E-03 0. -1.
         11   -1    0    0    0    0 -0.00000000000E+00 -0.00000000000E+00 -0.45593999997E+02  0.45594000000E+02  0.51100000000E-03 0.  1.
    9900012    2    1    2    0    0 -0.22876907198E+02 -0.12884905267E+02  0.18092800975E+02  0.59301904068E+02  0.49999927122E+02 0.  0.
        -12    1    1    2    0    0  0.22876907198E+02  0.12884905267E+02 -0.18092800975E+02  0.31886095932E+02  0.00000000000E+00 0.  1.
         11    1    3    3    0    0 -0.22957994236E+02 -0.16314991239E+02  0.11457283666E+02  0.30405884098E+02  0.51100000000E-03 0. -1.
        -11    1    3    3    0    0  0.55390261746E+01 -0.11143744661E+02  0.16425940141E+01  0.12552369154E+02  0.51100000000E-03 0.  1.
         12    1    3    3    0    0 -0.54579391362E+01  0.14573830633E+02  0.49929232949E+01  0.16343650815E+02  0.00000000000E+00 0. -1.
</event>
<event>
 7    1  0.1290195E-011  0.5930192E+02  0.7816164E-02  0.1266605E+00
        -11   -1    0    0    0    0  0.00000000000E+00  0.00000000000E+00  0.45593999997E+02  0.45594000000E+02  0.51100000000E-03 0. -1.
         11   -1    0    0    0    0 -0.00000000000E+00 -0.00000000000E+00 -0.45593999997E+02  0.45594000000E+02  0.51100000000E-03 0.  1.
    9900012    2    1    2    0    0  0.19568992126E+02  0.25039617144E+02 -0.26065407610E+01  0.59301922564E+02  0.49999960854E+02 0.  0.
        -12    1    1    2    0    0 -0.19568992126E+02 -0.25039617144E+02  0.26065407610E+01  0.31886077436E+02  0.00000000000E+00 0.  1.
         11    1    3    3    0    0  0.49916938926E+01  0.54294684440E+01  0.10438210366E+02  0.12780937815E+02  0.51100000000E-03 0. -1.
        -11    1    3    3    0    0  0.13751529479E+01  0.26789797785E+02 -0.31637248721E+00  0.26826934278E+02  0.51100000000E-03 0.  1.
        -12    1    3    3    0    0  0.13202145286E+02 -0.71796490848E+01 -0.12728378640E+02  0.19694050471E+02  0.00000000000E+00 0.  1.
</event>
<event>
 7    1  0.1290195E-011  0.5930192E+02  0.7816164E-02  0.1266605E+00
        -11   -1    0    0    0    0  0.00000000000E+00  0.00000000000E+00  0.45593999997E+02  0.45594000000E+02  0.51100000000E-03 0. -1.
         11   -1    0    0    0    0 -0.00000000000E+00 -0.00000000000E+00 -0.45593999997E+02  0.45594000000E+02  0.51100000000E-03 0.  1.
    9900012    2    1    2    0    0 -0.14252141759E+02 -0.28194315137E+02 -0.43219267273E+01  0.59301921512E+02  0.49999958936E+02 0.  0.
        -12    1    1    2    0    0  0.14252141759E+02  0.28194315137E+02  0.43219267273E+01  0.31886078488E+02  0.00000000000E+00 0.  1.
         11    1    3    3    0    0  0.66030777081E+01 -0.12766602923E+02 -0.42807111273E+01  0.14997042156E+02  0.51100000000E-03 0.  1.
        -11    1    3    3    0    0  0.15422052564E+01 -0.15191320242E+02 -0.11528114697E+02  0.19132486417E+02  0.51100000000E-03 0. -1.
         12    1    3    3    0    0 -0.22397424723E+02 -0.23639197142E+00  0.11486899097E+02  0.25172392939E+02  0.00000000000E+00 0. -1.
</event>
<event>
 7    1  0.1290195E-011  0.5930192E+02  0.7816164E-02  0.1266605E+00
        -11   -1    0    0    0    0  0.00000000000E+00  0.00000000000E+00  0.45593999997E+02  0.45594000000E+02  0.51100000000E-03 0. -1.
         11   -1    0    0    0    0 -0.00000000000E+00 -0.00000000000E+00 -0.45593999997E+02  0.45594000000E+02  0.51100000000E-03 0.  1.
    9900012    2    1    2    0    0 -0.14618384616E+02 -0.56711076543E+01  0.27764429097E+02  0.59301919120E+02  0.49999954574E+02 0.  0.
        -12    1    1    2    0    0  0.14618384616E+02  0.56711076543E+01 -0.27764429097E+02  0.31886080880E+02  0.00000000000E+00 0.  1.
         11    1    3    3    0    0 -0.11503681899E+02  0.28799824361E+01 -0.44304715159E+01  0.12659307808E+02  0.51100000000E-03 0. -1.
        -11    1    3    3    0    0 -0.11014867431E+01 -0.87821637462E+00 -0.67513270605E+01  0.68967350525E+01  0.51100000000E-03 0.  1.
         12    1    3    3    0    0 -0.20132159739E+01 -0.76728737157E+01  0.38946227673E+02  0.39745876259E+02  0.00000000000E+00 0. -1.
</event>
<event>
 7    1  0.1290195E-011  0.5930194E+02  0.7816164E-02  0.1266605E+00
        -11   -1    0    0    0    0  0.00000000000E+00  0.00000000000E+00  0.45593999997E+02  0.45594000000E+02  0.51100000000E-03 0. -1.
         11   -1    0    0    0    0 -0.00000000000E+00 -0.00000000000E+00 -0.45593999997E+02  0.45594000000E+02  0.51100000000E-03 0.  1.
    9900012    2    1    2    0    0  0.30132708748E+02 -0.80645838456E+01  0.66108198689E+01  0.59301943667E+02  0.49999999343E+02 0.  0.
        -12    1    1    2    0    0 -0.30132708748E+02  0.80645838456E+01 -0.66108198689E+01  0.31886056333E+02  0.00000000000E+00 0.  1.
         11    1    3    3    0    0 -0.41732838446E+01  0.34038574269E-01  0.90784488138E+01  0.99917811124E+01  0.51100000000E-03 0. -1.
        -11    1    3    3    0    0 -0.87525899591E+00 -0.12852241758E+02 -0.47647888192E+01  0.13734970305E+02  0.51100000000E-03 0.  1.
        -12    1    3    3    0    0  0.35181251589E+02  0.47536193381E+01  0.22971598742E+01  0.35575192250E+02  0.00000000000E+00 0.  1.
</event>
<event>
 7    1  0.1290195E-011  0.5930196E+02  0.7816164E-02  0.1266605E+00
        -11   -1    0    0    0    0  0.00000000000E+00  0.00000000000E+00  0.45593999997E+02  0.45594000000E+02  0.51100000000E-03 0. -1.
         11   -1    0    0    0    0 -0.00000000000E+00 -0.00000000000E+00 -0.45593999997E+02  0.45594000000E+02  0.51100000000E-03 0.  1.
    9900012    2    1    2    0    0  0.43893444236E+01 -0.13552518528E+02  0.28526873856E+02  0.59301958620E+02  0.50000026612E+02 0.  0.
        -12    1    1    2    0    0 -0.43893444236E+01  0.13552518528E+02 -0.28526873856E+02  0.31886041380E+02  0.00000000000E+00 0.  1.
         11    1    3    3    0    0 -0.18172505032E+01  0.92048453398E+01  0.14097118279E+02  0.16933998971E+02  0.51100000000E-03 0. -1.
        -11    1    3    3    0    0  0.61738673629E+01 -0.28704996543E+01  0.20479190859E+02  0.21581326766E+02  0.51100000000E-03 0.  1.
         12    1    3    3    0    0  0.32727563892E-01 -0.19886864213E+02 -0.60494352825E+01  0.20786632882E+02  0.00000000000E+00 0. -1.
</event>
<event>
 7    1  0.1290195E-011  0.5930193E+02  0.7816164E-02  0.1266605E+00
        -11   -1    0    0    0    0  0.00000000000E+00  0.00000000000E+00  0.45593999997E+02  0.45594000000E+02  0.51100000000E-03 0. -1.
         11   -1    0    0    0    0 -0.00000000000E+00 -0.00000000000E+00 -0.45593999997E+02  0.45594000000E+02  0.51100000000E-03 0.  1.
    9900012    2    1    2    0    0  0.31092621614E+02 -0.68182710190E+01 -0.18659138050E+01  0.59301928231E+02  0.49999971191E+02 0.  0.
        -12    1    1    2    0    0 -0.31092621614E+02  0.68182710190E+01  0.18659138050E+01  0.31886071769E+02  0.00000000000E+00 0.  1.
         11    1    3    3    0    0  0.29199005211E+02 -0.21274628337E+02 -0.62971129492E+01  0.36672133125E+02  0.51100000000E-03 0. -1.
        -11    1    3    3    0    0 -0.41488183655E-01 -0.22307274167E+01  0.53594007286E+01  0.58052599001E+01  0.51100000000E-03 0.  1.
        -12    1    3    3    0    0  0.19351045863E+01  0.16687084735E+02 -0.92820158433E+00  0.16824535206E+02  0.00000000000E+00 0.  1.
</event>
<event>
 7    1  0.1290195E-011  0.5930194E+02  0.7816164E-02  0.1266605E+00
        -11   -1    0    0    0    0  0.00000000000E+00  0.00000000000E+00  0.45593999997E+02  0.45594000000E+02  0.51100000000E-03 0. -1.
         11   -1    0    0    0    0 -0.00000000000E+00 -0.00000000000E+00 -0.45593999997E+02  0.45594000000E+02  0.51100000000E-03 0.  1.
    9900012    2    1    2    0    0  0.27356801717E+02  0.44728031711E+01  0.15758172698E+02  0.59301943875E+02  0.49999999721E+02 0.  0.
        -12    1    1    2    0    0 -0.27356801717E+02 -0.44728031711E+01 -0.15758172698E+02  0.31886056125E+02  0.00000000000E+00 0.  1.
         11    1    3    3    0    0 -0.96047349392E+01 -0.10932773642E+01 -0.38320909642E+01  0.10398610968E+02  0.51100000000E-03 0.  1.
        -11    1    3    3    0    0  0.10147399812E+02  0.20823105472E+01  0.19251720997E+02  0.21861713148E+02  0.51100000000E-03 0. -1.
        -12    1    3    3    0    0  0.26814136845E+02  0.34837699882E+01  0.33854266569E+00  0.27041619759E+02  0.00000000000E+00 0.  1.
</event>
<event>
 7    1  0.1290195E-011  0.5930195E+02  0.7816164E-02  0.1266605E+00
        -11   -1    0    0    0    0  0.00000000000E+00  0.00000000000E+00  0.45593999997E+02  0.45594000000E+02  0.51100000000E-03 0. -1.
         11   -1    0    0    0    0 -0.00000000000E+00 -0.00000000000E+00 -0.45593999997E+02  0.45594000000E+02  0.51100000000E-03 0.  1.
    9900012    2    1    2    0    0 -0.13830574991E+02 -0.15107751347E+02  0.24437497259E+02  0.59301949325E+02  0.50000009661E+02 0.  0.
        -12    1    1    2    0    0  0.13830574991E+02  0.15107751347E+02 -0.24437497259E+02  0.31886050675E+02  0.00000000000E+00 0.  1.
         11    1    3    3    0    0 -0.19348243590E+02  0.77315888499E+01  0.31051680731E+01  0.21065945628E+02  0.51100000000E-03 0. -1.
        -11    1    3    3    0    0  0.48524734999E+01  0.25383426885E+01  0.69637490591E+00  0.55203823185E+01  0.51100000000E-03 0.  1.
         12    1    3    3    0    0  0.66519509946E+00 -0.25377682885E+02  0.20635954280E+02  0.32715621379E+02  0.00000000000E+00 0. -1.
</event>
<event>
 7    1  0.1290195E-011  0.5930193E+02  0.7816164E-02  0.1266605E+00
        -11   -1    0    0    0    0  0.00000000000E+00  0.00000000000E+00  0.45593999997E+02  0.45594000000E+02  0.51100000000E-03 0.  1.
         11   -1    0    0    0    0 -0.00000000000E+00 -0.00000000000E+00 -0.45593999997E+02  0.45594000000E+02  0.51100000000E-03 0. -1.
    9900012    2    1    2    0    0  0.11139553974E+02  0.22435864472E+02 -0.19729769798E+02  0.59301929473E+02  0.49999973456E+02 0.  0.
        -12    1    1    2    0    0 -0.11139553974E+02 -0.22435864472E+02  0.19729769798E+02  0.31886070527E+02  0.00000000000E+00 0.  1.
         11    1    3    3    0    0  0.25696799646E+02  0.49736925249E+01 -0.66741586894E+01  0.27011248099E+02  0.51100000000E-03 0. -1.
        -11    1    3    3    0    0 -0.67861643725E+01 -0.24287783494E+01 -0.71076593895E+01  0.10122737447E+02  0.51100000000E-03 0.  1.
        -12    1    3    3    0    0 -0.77710813004E+01  0.19890950297E+02 -0.59479517194E+01  0.22167943927E+02  0.00000000000E+00 0.  1.
</event>
<event>
 7    1  0.1290195E-011  0.5930195E+02  0.7816164E-02  0.1266605E+00
        -11   -1    0    0    0    0  0.00000000000E+00  0.00000000000E+00  0.45593999997E+02  0.45594000000E+02  0.51100000000E-03 0. -1.
         11   -1    0    0    0    0 -0.00000000000E+00 -0.00000000000E+00 -0.45593999997E+02  0.45594000000E+02  0.51100000000E-03 0.  1.
    9900012    2    1    2    0    0 -0.12501688467E+02 -0.29305328649E+02 -0.12751304845E+01  0.59301945689E+02  0.50000003030E+02 0.  0.
        -12    1    1    2    0    0  0.12501688467E+02  0.29305328649E+02  0.12751304845E+01  0.31886054311E+02  0.00000000000E+00 0.  1.
         11    1    3    3    0    0 -0.10323972066E+02  0.65135488403E+01  0.38699684081E+01  0.12805755481E+02  0.51100000000E-03 0. -1.
        -11    1    3    3    0    0 -0.12727927380E+02 -0.95382845799E+01  0.45834558152E+01  0.16552554956E+02  0.51100000000E-03 0.  1.
        -12    1    3    3    0    0  0.10550210979E+02 -0.26280592909E+02 -0.97285547078E+01  0.29943635251E+02  0.00000000000E+00 0.  1.
</event>
<event>
 7    1  0.1290195E-011  0.5930196E+02  0.7816164E-02  0.1266605E+00
        -11   -1    0    0    0    0  0.00000000000E+00  0.00000000000E+00  0.45593999997E+02  0.45594000000E+02  0.51100000000E-03 0.  1.
         11   -1    0    0    0    0 -0.00000000000E+00 -0.00000000000E+00 -0.45593999997E+02  0.45594000000E+02  0.51100000000E-03 0. -1.
    9900012    2    1    2    0    0  0.25268949757E+02  0.67208690065E+01 -0.18249097625E+02  0.59301961266E+02  0.50000031438E+02 0.  0.
        -12    1    1    2    0    0 -0.25268949757E+02 -0.67208690065E+01  0.18249097625E+02  0.31886038734E+02  0.00000000000E+00 0.  1.
         11    1    3    3    0    0 -0.88814327750E+00  0.89578118882E+01  0.71198498585E+01  0.11477083888E+02  0.51100000000E-03 0. -1.
        -11    1    3    3    0    0  0.29684127934E+01  0.50744006635E+01  0.58240111523E+01  0.82752717640E+01  0.51100000000E-03 0.  1.
         12    1    3    3    0    0  0.23188680241E+02 -0.73113435452E+01 -0.31192958636E+02  0.39549605614E+02  0.00000000000E+00 0. -1.
</event>
<event>
 7    1  0.1290195E-011  0.5930190E+02  0.7816164E-02  0.1266605E+00
        -11   -1    0    0    0    0  0.00000000000E+00  0.00000000000E+00  0.45593999997E+02  0.45594000000E+02  0.51100000000E-03 0.  1.
         11   -1    0    0    0    0 -0.00000000000E+00 -0.00000000000E+00 -0.45593999997E+02  0.45594000000E+02  0.51100000000E-03 0. -1.
    9900012    2    1    2    0    0 -0.65263556274E+01  0.25120854082E+02 -0.18522227277E+02  0.59301897527E+02  0.49999915194E+02 0.  0.
        -12    1    1    2    0    0  0.65263556274E+01 -0.25120854082E+02  0.18522227277E+02  0.31886102473E+02  0.00000000000E+00 0.  1.
         11    1    3    3    0    0  0.28542652767E+00  0.27447473965E+01 -0.12083291780E+02  0.12394395793E+02  0.51100000000E-03 0. -1.
        -11    1    3    3    0    0 -0.18613839721E+02 -0.11460276416E+01  0.31201468641E+01  0.18908297787E+02  0.51100000000E-03 0.  1.
         12    1    3    3    0    0  0.11802057565E+02  0.23522134327E+02 -0.95590823614E+01  0.27999203947E+02  0.00000000000E+00 0. -1.
</event>
<event>
 7    1  0.1290195E-011  0.5930195E+02  0.7816164E-02  0.1266605E+00
        -11   -1    0    0    0    0  0.00000000000E+00  0.00000000000E+00  0.45593999997E+02  0.45594000000E+02  0.51100000000E-03 0.  1.
         11   -1    0    0    0    0 -0.00000000000E+00 -0.00000000000E+00 -0.45593999997E+02  0.45594000000E+02  0.51100000000E-03 0. -1.
    9900012    2    1    2    0    0  0.10071952938E+02 -0.13696708837E+02 -0.26975476903E+02  0.59301946260E+02  0.50000004072E+02 0.  0.
        -12    1    1    2    0    0 -0.10071952938E+02  0.13696708837E+02  0.26975476903E+02  0.31886053740E+02  0.00000000000E+00 0.  1.
         11    1    3    3    0    0 -0.13742500271E+02 -0.11104233238E+02 -0.17189491485E+02  0.24650333208E+02  0.51100000000E-03 0. -1.
        -11    1    3    3    0    0  0.92597552883E+01 -0.12483314280E+02 -0.59382447899E+01  0.16638478141E+02  0.51100000000E-03 0.  1.
        -12    1    3    3    0    0  0.14554697921E+02  0.98908386803E+01 -0.38477406273E+01  0.18013134911E+02  0.00000000000E+00 0.  1.
</event>
<event>
 7    1  0.1290195E-011  0.5930192E+02  0.7816164E-02  0.1266605E+00
        -11   -1    0    0    0    0  0.00000000000E+00  0.00000000000E+00  0.45593999997E+02  0.45594000000E+02  0.51100000000E-03 0. -1.
         11   -1    0    0    0    0 -0.00000000000E+00 -0.00000000000E+00 -0.45593999997E+02  0.45594000000E+02  0.51100000000E-03 0.  1.
    9900012    2    1    2    0    0 -0.38473486898E+00  0.29171285269E+02  0.12868955929E+02  0.59301922601E+02  0.49999960924E+02 0.  0.
        -12    1    1    2    0    0  0.38473486898E+00 -0.29171285269E+02 -0.12868955929E+02  0.31886077399E+02  0.00000000000E+00 0.  1.
         11    1    3    3    0    0  0.60485475762E+01  0.14885573064E+02  0.94396675678E+01  0.18635249858E+02  0.51100000000E-03 0. -1.
        -11    1    3    3    0    0  0.64033691377E+01  0.22812376002E+02  0.72709243170E+01  0.24784551153E+02  0.51100000000E-03 0.  1.
        -12    1    3    3    0    0 -0.12836651583E+02 -0.85266637974E+01 -0.38416359562E+01  0.15882121590E+02  0.00000000000E+00 0.  1.
</event>
<event>
 7    1  0.1290195E-011  0.5930202E+02  0.7816164E-02  0.1266605E+00
        -11   -1    0    0    0    0  0.00000000000E+00  0.00000000000E+00  0.45593999997E+02  0.45594000000E+02  0.51100000000E-03 0. -1.
         11   -1    0    0    0    0 -0.00000000000E+00 -0.00000000000E+00 -0.45593999997E+02  0.45594000000E+02  0.51100000000E-03 0.  1.
    9900012    2    1    2    0    0  0.67148072928E+01 -0.19274014412E+02  0.24497747372E+02  0.59302017268E+02  0.50000133572E+02 0.  0.
        -12    1    1    2    0    0 -0.67148072928E+01  0.19274014412E+02 -0.24497747372E+02  0.31885982732E+02  0.00000000000E+00 0.  1.
         11    1    3    3    0    0  0.50203662296E+01  0.94137073780E+01  0.23137321731E+02  0.25478571797E+02  0.51100000000E-03 0. -1.
        -11    1    3    3    0    0  0.21255256447E+01  0.14213875241E+01  0.26515260652E+01  0.36835841914E+01  0.51100000000E-03 0.  1.
        -12    1    3    3    0    0 -0.43108458147E+00 -0.30109109314E+02 -0.12911004248E+01  0.30139861279E+02  0.00000000000E+00 0.  1.
</event>
<event>
 7    1  0.1290195E-011  0.5930195E+02  0.7816164E-02  0.1266605E+00
        -11   -1    0    0    0    0  0.00000000000E+00  0.00000000000E+00  0.45593999997E+02  0.45594000000E+02  0.51100000000E-03 0.  1.
         11   -1    0    0    0    0 -0.00000000000E+00 -0.00000000000E+00 -0.45593999997E+02  0.45594000000E+02  0.51100000000E-03 0. -1.
    9900012    2    1    2    0    0  0.28770135018E+02 -0.13650748797E+02 -0.16298473234E+01  0.59301952675E+02  0.50000015771E+02 0.  0.
        -12    1    1    2    0    0 -0.28770135018E+02  0.13650748797E+02  0.16298473234E+01  0.31886047325E+02  0.00000000000E+00 0.  1.
         11    1    3    3    0    0  0.17086512469E+01  0.61079679276E+01 -0.99106923643E+01  0.11766417666E+02  0.51100000000E-03 0. -1.
        -11    1    3    3    0    0  0.22152600148E+02 -0.21932021020E+02 -0.64707668833E+01  0.31837431801E+02  0.51100000000E-03 0.  1.
        -12    1    3    3    0    0  0.49088836233E+01  0.21733042948E+01  0.14751611924E+02  0.15698103209E+02  0.00000000000E+00 0.  1.
</event>
<event>
 7    1  0.1290195E-011  0.5930197E+02  0.7816164E-02  0.1266605E+00
        -11   -1    0    0    0    0  0.00000000000E+00  0.00000000000E+00  0.45593999997E+02  0.45594000000E+02  0.51100000000E-03 0. -1.
         11   -1    0    0    0    0 -0.00000000000E+00 -0.00000000000E+00 -0.45593999997E+02  0.45594000000E+02  0.51100000000E-03 0.  1.
    9900012    2    1    2    0    0 -0.22872117456E+01 -0.30328297840E+02  0.95750703752E+01  0.59301969201E+02  0.50000045910E+02 0.  0.
        -12    1    1    2    0    0  0.22872117456E+01  0.30328297840E+02 -0.95750703752E+01  0.31886030799E+02  0.00000000000E+00 0.  1.
         11    1    3    3    0    0  0.38027086205E+01 -0.41096905076E+02  0.91077276523E+01  0.42265433902E+02  0.51100000000E-03 0. -1.
        -11    1    3    3    0    0 -0.47286317471E+01 -0.12846421506E+01  0.95298684929E-01  0.49009535557E+01  0.51100000000E-03 0.  1.
         12    1    3    3    0    0 -0.13612886191E+01  0.12053249387E+02  0.37204403799E+00  0.12135581744E+02  0.00000000000E+00 0. -1.
</event>
<event>
 7    1  0.1290195E-011  0.5930194E+02  0.7816164E-02  0.1266605E+00
        -11   -1    0    0    0    0  0.00000000000E+00  0.00000000000E+00  0.45593999997E+02  0.45594000000E+02  0.51100000000E-03 0. -1.
         11   -1    0    0    0    0 -0.00000000000E+00 -0.00000000000E+00 -0.45593999997E+02  0.45594000000E+02  0.51100000000E-03 0.  1.
    9900012    2    1    2    0    0 -0.26109710857E+02  0.18020987596E+02 -0.32011989343E+01  0.59301942395E+02  0.49999997022E+02 0.  0.
        -12    1    1    2    0    0  0.26109710857E+02 -0.18020987596E+02  0.32011989343E+01  0.31886057605E+02  0.00000000000E+00 0.  1.
         11    1    3    3    0    0 -0.33679845253E+01  0.91687283527E+01  0.28038530449E+01  0.10162208989E+02  0.51100000000E-03 0. -1.
        -11    1    3    3    0    0 -0.22707052176E+02 -0.44164226479E+01  0.12558481290E+02  0.26321672821E+02  0.51100000000E-03 0.  1.
        -12    1    3    3    0    0 -0.34674156049E-01  0.13268681891E+02 -0.18563533270E+02  0.22818060586E+02  0.00000000000E+00 0.  1.
</event>
<event>
 7    1  0.1290195E-011  0.5930189E+02  0.7816164E-02  0.1266605E+00
        -11   -1    0    0    0    0  0.00000000000E+00  0.00000000000E+00  0.45593999997E+02  0.45594000000E+02  0.51100000000E-03 0.  1.
         11   -1    0    0    0    0 -0.00000000000E+00 -0.00000000000E+00 -0.45593999997E+02  0.45594000000E+02  0.51100000000E-03 0. -1.
    9900012    2    1    2    0    0  0.25254639522E+02 -0.19209345393E+02  0.31509294838E+01  0.59301888221E+02  0.49999898221E+02 0.  0.
        -12    1    1    2    0    0 -0.25254639522E+02  0.19209345393E+02 -0.31509294838E+01  0.31886111779E+02  0.00000000000E+00 0.  1.
         11    1    3    3    0    0  0.28344434727E+02 -0.28591658807E+02 -0.40682264062E+00  0.40262332747E+02  0.51100000000E-03 0. -1.
        -11    1    3    3    0    0 -0.82798783243E+01  0.32266729707E+01  0.58849407218E+01  0.10658345607E+02  0.51100000000E-03 0.  1.
        -12    1    3    3    0    0  0.51900831190E+01  0.61556404432E+01 -0.23271885974E+01  0.83812098659E+01  0.00000000000E+00 0.  1.
</event>
<event>
 7    1  0.1290195E-011  0.5930193E+02  0.7816164E-02  0.1266605E+00
        -11   -1    0    0    0    0  0.00000000000E+00  0.00000000000E+00  0.45593999997E+02  0.45594000000E+02  0.51100000000E-03 0.  1.
         11   -1    0    0    0    0 -0.00000000000E+00 -0.00000000000E+00 -0.45593999997E+02  0.45594000000E+02  0.51100000000E-03 0. -1.
    9900012    2    1    2    0    0  0.10349607954E+02 -0.27855293437E+02 -0.11562438719E+02  0.59301925509E+02  0.49999966227E+02 0.  0.
        -12    1    1    2    0    0 -0.10349607954E+02  0.27855293437E+02  0.11562438719E+02  0.31886074491E+02  0.00000000000E+00 0.  1.
         11    1    3    3    0    0  0.23726408939E+02 -0.12220297919E+02  0.83441548482E+01  0.27962529977E+02  0.51100000000E-03 0. -1.
        -11    1    3    3    0    0 -0.34769223677E+01 -0.13321352483E+02 -0.91060903303E+01  0.16506613901E+02  0.51100000000E-03 0.  1.
        -12    1    3    3    0    0 -0.98998786172E+01 -0.23136430358E+01 -0.10800503237E+02  0.14832781631E+02  0.00000000000E+00 0.  1.
</event>
<event>
 7    1  0.1290195E-011  0.5930195E+02  0.7816164E-02  0.1266605E+00
        -11   -1    0    0    0    0  0.00000000000E+00  0.00000000000E+00  0.45593999997E+02  0.45594000000E+02  0.51100000000E-03 0. -1.
         11   -1    0    0    0    0 -0.00000000000E+00 -0.00000000000E+00 -0.45593999997E+02  0.45594000000E+02  0.51100000000E-03 0.  1.
    9900012    2    1    2    0    0 -0.11772721167E+02  0.25798073559E+02  0.14580207115E+02  0.59301952854E+02  0.50000016098E+02 0.  0.
        -12    1    1    2    0    0  0.11772721167E+02 -0.25798073559E+02 -0.14580207115E+02  0.31886047146E+02  0.00000000000E+00 0.  1.
         11    1    3    3    0    0  0.42998491603E+01  0.67619013312E+01  0.26553604346E+02  0.27736364514E+02  0.51100000000E-03 0. -1.
        -11    1    3    3    0    0 -0.99994617859E+01  0.18178593877E+01 -0.78648845742E+01  0.12851080048E+02  0.51100000000E-03 0.  1.
        -12    1    3    3    0    0 -0.60731085412E+01  0.17218312840E+02 -0.41085126562E+01  0.18714508293E+02  0.00000000000E+00 0.  1.
</event>
<event>
 7    1  0.1290195E-011  0.5930195E+02  0.7816164E-02  0.1266605E+00
        -11   -1    0    0    0    0  0.00000000000E+00  0.00000000000E+00  0.45593999997E+02  0.45594000000E+02  0.51100000000E-03 0.  1.
         11   -1    0    0    0    0 -0.00000000000E+00 -0.00000000000E+00 -0.45593999997E+02  0.45594000000E+02  0.51100000000E-03 0. -1.
    9900012    2    1    2    0    0  0.66194149762E+01 -0.22724033653E+02 -0.21366374254E+02  0.59301948052E+02  0.50000007339E+02 0.  0.
        -12    1    1    2    0    0 -0.66194149762E+01  0.22724033653E+02  0.21366374254E+02  0.31886051948E+02  0.00000000000E+00 0.  1.
         11    1    3    3    0    0 -0.60666288102E+01  0.21918644295E+01 -0.50242977693E+00  0.64699838284E+01  0.51100000000E-03 0.  1.
        -11    1    3    3    0    0 -0.13596316632E+02 -0.96166213553E+01 -0.13709281396E+01  0.16709837715E+02  0.51100000000E-03 0. -1.
         12    1    3    3    0    0  0.26282360418E+02 -0.15299276727E+02 -0.19493016338E+02  0.36122126508E+02  0.00000000000E+00 0. -1.
</event>
<event>
 7    1  0.1290195E-011  0.5930197E+02  0.7816164E-02  0.1266605E+00
        -11   -1    0    0    0    0  0.00000000000E+00  0.00000000000E+00  0.45593999997E+02  0.45594000000E+02  0.51100000000E-03 0.  1.
         11   -1    0    0    0    0 -0.00000000000E+00 -0.00000000000E+00 -0.45593999997E+02  0.45594000000E+02  0.51100000000E-03 0. -1.
    9900012    2    1    2    0    0  0.98156946542E+01 -0.16681073968E+01 -0.30291720200E+02  0.59301972394E+02  0.50000051733E+02 0.  0.
        -12    1    1    2    0    0 -0.98156946542E+01  0.16681073968E+01  0.30291720200E+02  0.31886027606E+02  0.00000000000E+00 0.  1.
         11    1    3    3    0    0  0.19850573627E+02 -0.57391885519E+01 -0.25528094314E+02  0.32843068647E+02  0.51100000000E-03 0. -1.
        -11    1    3    3    0    0 -0.11822142674E+02 -0.73573186629E+01 -0.52499658097E+01  0.14881375494E+02  0.51100000000E-03 0.  1.
        -12    1    3    3    0    0  0.17872637015E+01  0.11428399818E+02  0.48633992398E+00  0.11577528254E+02  0.00000000000E+00 0.  1.
</event>
<event>
 7    1  0.1290195E-011  0.5930197E+02  0.7816164E-02  0.1266605E+00
        -11   -1    0    0    0    0  0.00000000000E+00  0.00000000000E+00  0.45593999997E+02  0.45594000000E+02  0.51100000000E-03 0. -1.
         11   -1    0    0    0    0 -0.00000000000E+00 -0.00000000000E+00 -0.45593999997E+02  0.45594000000E+02  0.51100000000E-03 0.  1.
    9900012    2    1    2    0    0  0.99951425343E+01 -0.24484213603E+02 -0.17814015672E+02  0.59301972584E+02  0.50000052079E+02 0.  0.
        -12    1    1    2    0    0 -0.99951425343E+01  0.24484213603E+02  0.17814015672E+02  0.31886027416E+02  0.00000000000E+00 0.  1.
         11    1    3    3    0    0 -0.50488800372E+01 -0.72700959521E+00 -0.57636344858E+01  0.76967015875E+01  0.51100000000E-03 0. -1.
        -11    1    3    3    0    0 -0.13958800351E+02 -0.83524307388E+01  0.92881651803E+00  0.16293370028E+02  0.51100000000E-03 0.  1.
         12    1    3    3    0    0  0.29002822923E+02 -0.15404773269E+02 -0.12979197704E+02  0.35311900968E+02  0.00000000000E+00 0. -1.
</event>
<event>
 7    1  0.1290195E-011  0.5930190E+02  0.7816164E-02  0.1266605E+00
        -11   -1    0    0    0    0  0.00000000000E+00  0.00000000000E+00  0.45593999997E+02  0.45594000000E+02  0.51100000000E-03 0.  1.
         11   -1    0    0    0    0 -0.00000000000E+00 -0.00000000000E+00 -0.45593999997E+02  0.45594000000E+02  0.51100000000E-03 0. -1.
    9900012    2    1    2    0    0 -0.96928396132E+00  0.94114064588E+01 -0.30450112604E+02  0.59301898944E+02  0.49999917778E+02 0.  0.
        -12    1    1    2    0    0  0.96928396132E+00 -0.94114064588E+01  0.30450112604E+02  0.31886101056E+02  0.00000000000E+00 0.  1.
         11    1    3    3    0    0 -0.20058822871E+01  0.11534969433E+02 -0.40599639894E+02  0.42254110373E+02  0.51100000000E-03 0. -1.
        -11    1    3    3    0    0  0.11729546012E+01 -0.63572665550E+01  0.46957566385E+00  0.64816018169E+01  0.51100000000E-03 0.  1.
        -12    1    3    3    0    0 -0.13635627547E+00  0.42337035806E+01  0.96799516264E+01  0.10566186755E+02  0.00000000000E+00 0.  1.
</event>
<event>
 7    1  0.1290195E-011  0.5930202E+02  0.7816164E-02  0.1266604E+00
        -11   -1    0    0    0    0  0.00000000000E+00  0.00000000000E+00  0.45593999997E+02  0.45594000000E+02  0.51100000000E-03 0.  1.
         11   -1    0    0    0    0 -0.00000000000E+00 -0.00000000000E+00 -0.45593999997E+02  0.45594000000E+02  0.51100000000E-03 0. -1.
    9900012    2    1    2    0    0  0.29400862232E+02 -0.46703663885E+01  0.11423336761E+02  0.59302021185E+02  0.50000140717E+02 0.  0.
        -12    1    1    2    0    0 -0.29400862232E+02  0.46703663885E+01 -0.11423336761E+02  0.31885978815E+02  0.00000000000E+00 0.  1.
         11    1    3    3    0    0  0.17647074185E+02 -0.27770062038E+00  0.19892854122E+02  0.26593645675E+02  0.51100000000E-03 0.  1.
        -11    1    3    3    0    0 -0.82494900848E+01  0.30748539685E+01  0.18460706261E+01  0.89953760680E+01  0.51100000000E-03 0. -1.
         12    1    3    3    0    0  0.20003278132E+02 -0.74675197366E+01 -0.10315587986E+02  0.23712999442E+02  0.00000000000E+00 0. -1.
</event>
<event>
 7    1  0.1290195E-011  0.5930196E+02  0.7816164E-02  0.1266605E+00
        -11   -1    0    0    0    0  0.00000000000E+00  0.00000000000E+00  0.45593999997E+02  0.45594000000E+02  0.51100000000E-03 0. -1.
         11   -1    0    0    0    0 -0.00000000000E+00 -0.00000000000E+00 -0.45593999997E+02  0.45594000000E+02  0.51100000000E-03 0.  1.
    9900012    2    1    2    0    0 -0.40144896541E+01 -0.41850264253E+01  0.31354253851E+02  0.59301955907E+02  0.50000021665E+02 0.  0.
        -12    1    1    2    0    0  0.40144896541E+01  0.41850264253E+01 -0.31354253851E+02  0.31886044093E+02  0.00000000000E+00 0.  1.
         11    1    3    3    0    0 -0.13703922742E+01 -0.27450602664E+01 -0.46207952879E+01  0.55466278228E+01  0.51100000000E-03 0. -1.
        -11    1    3    3    0    0  0.91590695996E+01 -0.10827262722E+02 -0.59875245540E+00  0.14194248087E+02  0.51100000000E-03 0.  1.
         12    1    3    3    0    0 -0.11803166980E+02  0.93872965635E+01  0.36573801594E+02  0.39561079997E+02  0.00000000000E+00 0. -1.
</event>
<event>
 7    1  0.1290195E-011  0.5930195E+02  0.7816164E-02  0.1266605E+00
        -11   -1    0    0    0    0  0.00000000000E+00  0.00000000000E+00  0.45593999997E+02  0.45594000000E+02  0.51100000000E-03 0. -1.
         11   -1    0    0    0    0 -0.00000000000E+00 -0.00000000000E+00 -0.45593999997E+02  0.45594000000E+02  0.51100000000E-03 0.  1.
    9900012    2    1    2    0    0 -0.24825462570E+02  0.18618061586E+02  0.73338029580E+01  0.59301945448E+02  0.50000002590E+02 0.  0.
        -12    1    1    2    0    0  0.24825462570E+02 -0.18618061586E+02 -0.73338029580E+01  0.31886054552E+02  0.00000000000E+00 0.  1.
         11    1    3    3    0    0 -0.30900964639E+02  0.39416809121E+01  0.11206194581E+02  0.33105668114E+02  0.51100000000E-03 0. -1.
        -11    1    3    3    0    0  0.31342895597E+01 -0.18195072426E+01 -0.81356738163E+01  0.89063778471E+01  0.51100000000E-03 0.  1.
        -12    1    3    3    0    0  0.29412125091E+01  0.16495887917E+02  0.42632821932E+01  0.17289899486E+02  0.00000000000E+00 0.  1.
</event>
<event>
 7    1  0.1290195E-011  0.5930196E+02  0.7816164E-02  0.1266605E+00
        -11   -1    0    0    0    0  0.00000000000E+00  0.00000000000E+00  0.45593999997E+02  0.45594000000E+02  0.51100000000E-03 0.  1.
         11   -1    0    0    0    0 -0.00000000000E+00 -0.00000000000E+00 -0.45593999997E+02  0.45594000000E+02  0.51100000000E-03 0. -1.
    9900012    2    1    2    0    0  0.17393502421E+02 -0.87580079945E+01 -0.25248421478E+02  0.59301962027E+02  0.50000032826E+02 0.  0.
        -12    1    1    2    0    0 -0.17393502421E+02  0.87580079945E+01  0.25248421478E+02  0.31886037973E+02  0.00000000000E+00 0.  1.
         11    1    3    3    0    0 -0.32830729121E+01  0.48569427678E+01 -0.19820887639E+02  0.20669689109E+02  0.51100000000E-03 0. -1.
        -11    1    3    3    0    0  0.73919598725E+01  0.92207401839E+01 -0.12226008753E+01  0.11880987899E+02  0.51100000000E-03 0.  1.
         12    1    3    3    0    0  0.13284615461E+02 -0.22835690946E+02 -0.42049329636E+01  0.26751285019E+02  0.00000000000E+00 0. -1.
</event>
<event>
 7    1  0.1290195E-011  0.5930215E+02  0.7816164E-02  0.1266604E+00
        -11   -1    0    0    0    0  0.00000000000E+00  0.00000000000E+00  0.45593999997E+02  0.45594000000E+02  0.51100000000E-03 0.  1.
         11   -1    0    0    0    0 -0.00000000000E+00 -0.00000000000E+00 -0.45593999997E+02  0.45594000000E+02  0.51100000000E-03 0. -1.
    9900012    2    1    2    0    0 -0.22034759178E+02 -0.21928806812E+02 -0.70925284450E+01  0.59302154552E+02  0.50000383943E+02 0.  0.
        -12    1    1    2    0    0  0.22034759178E+02  0.21928806812E+02  0.70925284450E+01  0.31885845448E+02  0.00000000000E+00 0.  1.
         11    1    3    3    0    0  0.23069377257E+00 -0.97132739028E+01  0.13203236828E+02  0.16392875663E+02  0.51100000000E-03 0. -1.
        -11    1    3    3    0    0  0.58948594065E+01 -0.48753382424E+01 -0.40620488743E+00  0.76605021423E+01  0.51100000000E-03 0.  1.
         12    1    3    3    0    0 -0.28160312357E+02 -0.73401946669E+01 -0.19889560385E+02  0.35248776746E+02  0.00000000000E+00 0. -1.
</event>
<event>
 7    1  0.1290195E-011  0.5930194E+02  0.7816164E-02  0.1266605E+00
        -11   -1    0    0    0    0  0.00000000000E+00  0.00000000000E+00  0.45593999997E+02  0.45594000000E+02  0.51100000000E-03 0. -1.
         11   -1    0    0    0    0 -0.00000000000E+00 -0.00000000000E+00 -0.45593999997E+02  0.45594000000E+02  0.51100000000E-03 0.  1.
    9900012    2    1    2    0    0  0.26166633374E+02 -0.11153206916E+02  0.14409517135E+02  0.59301938615E+02  0.49999990128E+02 0.  0.
        -12    1    1    2    0    0 -0.26166633374E+02  0.11153206916E+02 -0.14409517135E+02  0.31886061385E+02  0.00000000000E+00 0.  1.
         11    1    3    3    0    0  0.43247510777E+01 -0.55552726328E+01 -0.19282922615E+01  0.72995093818E+01  0.51100000000E-03 0. -1.
        -11    1    3    3    0    0  0.29682916366E+02 -0.15770395496E+02  0.34192502000E+01  0.33785679958E+02  0.51100000000E-03 0.  1.
         12    1    3    3    0    0 -0.78410340696E+01  0.10172461213E+02  0.12918559196E+02  0.18216749274E+02  0.00000000000E+00 0. -1.
</event>
<event>
 7    1  0.1290195E-011  0.5930193E+02  0.7816164E-02  0.1266605E+00
        -11   -1    0    0    0    0  0.00000000000E+00  0.00000000000E+00  0.45593999997E+02  0.45594000000E+02  0.51100000000E-03 0.  1.
         11   -1    0    0    0    0 -0.00000000000E+00 -0.00000000000E+00 -0.45593999997E+02  0.45594000000E+02  0.51100000000E-03 0. -1.
    9900012    2    1    2    0    0  0.16074570478E+01  0.19933050714E+02 -0.24835675745E+02  0.59301933785E+02  0.49999981320E+02 0.  0.
        -12    1    1    2    0    0 -0.16074570478E+01 -0.19933050714E+02  0.24835675745E+02  0.31886066215E+02  0.00000000000E+00 0.  1.
         11    1    3    3    0    0  0.36156083950E+01  0.13096605024E+01 -0.12853658072E+00  0.38476429943E+01  0.51100000000E-03 0. -1.
        -11    1    3    3    0    0  0.20857049988E+02  0.12236877935E+01 -0.11190407435E+02  0.23701037210E+02  0.51100000000E-03 0.  1.
         12    1    3    3    0    0 -0.22865201335E+02  0.17399702418E+02 -0.13516731729E+02  0.31753253581E+02  0.00000000000E+00 0. -1.
</event>
<event>
 7    1  0.1290195E-011  0.5930194E+02  0.7816164E-02  0.1266605E+00
        -11   -1    0    0    0    0  0.00000000000E+00  0.00000000000E+00  0.45593999997E+02  0.45594000000E+02  0.51100000000E-03 0.  1.
         11   -1    0    0    0    0 -0.00000000000E+00 -0.00000000000E+00 -0.45593999997E+02  0.45594000000E+02  0.51100000000E-03 0. -1.
    9900012    2    1    2    0    0  0.50622988154E+01 -0.31424844291E+02 -0.18902269761E+01  0.59301942451E+02  0.49999997124E+02 0.  0.
        -12    1    1    2    0    0 -0.50622988154E+01  0.31424844291E+02  0.18902269761E+01  0.31886057549E+02  0.00000000000E+00 0.  1.
         11    1    3    3    0    0 -0.31795679688E+01 -0.13992502998E+02  0.19562067335E+02  0.24260549691E+02  0.51100000000E-03 0. -1.
        -11    1    3    3    0    0  0.21287918075E+01  0.23141245212E+00  0.33552266817E+01  0.39803081074E+01  0.51100000000E-03 0.  1.
        -12    1    3    3    0    0  0.61130749766E+01 -0.17663753745E+02 -0.24807520993E+02  0.31061084653E+02  0.00000000000E+00 0.  1.
</event>
<event>
 7    1  0.1321520E-011  0.5930194E+02  0.7816164E-02  0.1266605E+00
        -11   -1    0    0    0    0  0.00000000000E+00  0.00000000000E+00  0.45593999997E+02  0.45594000000E+02  0.51100000000E-03 0.  1.
         11   -1    0    0    0    0 -0.00000000000E+00 -0.00000000000E+00 -0.45593999997E+02  0.45594000000E+02  0.51100000000E-03 0. -1.
    9900012    2    1    2    0    0  0.15150372067E+02 -0.27061717875E+02 -0.74061144191E+01  0.59301939113E+02  0.49999991037E+02 0.  0.
        -12    1    1    2    0    0 -0.15150372067E+02  0.27061717875E+02  0.74061144191E+01  0.31886060887E+02  0.00000000000E+00 0.  1.
         11    1    3    3    0    0  0.16687047693E+02 -0.16876301065E+02  0.64131976458E+01  0.24584470762E+02  0.51100000000E-03 0. -1.
        -11    1    3    3    0    0  0.12213704142E+02  0.26736768270E+01 -0.86199625656E+01  0.15186404168E+02  0.51100000000E-03 0.  1.
        -12    1    3    3    0    0 -0.13750379768E+02 -0.12859093636E+02 -0.51993494993E+01  0.19531064184E+02  0.00000000000E+00 0.  1.
</event>
<event>
 7    1  0.1290195E-011  0.5930193E+02  0.7816164E-02  0.1266605E+00
        -11   -1    0    0    0    0  0.00000000000E+00  0.00000000000E+00  0.45593999997E+02  0.45594000000E+02  0.51100000000E-03 0.  1.
         11   -1    0    0    0    0 -0.00000000000E+00 -0.00000000000E+00 -0.45593999997E+02  0.45594000000E+02  0.51100000000E-03 0. -1.
    9900012    2    1    2    0    0 -0.24246102548E+02  0.38122269600E+01 -0.20354721440E+02  0.59301933324E+02  0.49999980480E+02 0.  0.
        -12    1    1    2    0    0  0.24246102548E+02 -0.38122269600E+01  0.20354721440E+02  0.31886066676E+02  0.00000000000E+00 0.  1.
         11    1    3    3    0    0 -0.10255622364E+02  0.14681597677E+02  0.16974399752E+01  0.17989119021E+02  0.51100000000E-03 0. -1.
        -11    1    3    3    0    0 -0.16541339141E+02  0.15306489845E+01 -0.23273940596E+02  0.28594319331E+02  0.51100000000E-03 0.  1.
        -12    1    3    3    0    0  0.25508589564E+01 -0.12400019701E+02  0.12217791808E+01  0.12718494973E+02  0.00000000000E+00 0.  1.
</event>
<event>
 7    1  0.1290195E-011  0.5930196E+02  0.7816164E-02  0.1266605E+00
        -11   -1    0    0    0    0  0.00000000000E+00  0.00000000000E+00  0.45593999997E+02  0.45594000000E+02  0.51100000000E-03 0. -1.
         11   -1    0    0    0    0 -0.00000000000E+00 -0.00000000000E+00 -0.45593999997E+02  0.45594000000E+02  0.51100000000E-03 0.  1.
    9900012    2    1    2    0    0  0.12475256990E+02 -0.29238859517E+02  0.24853099715E+01  0.59301957466E+02  0.50000024508E+02 0.  0.
        -12    1    1    2    0    0 -0.12475256990E+02  0.29238859517E+02 -0.24853099715E+01  0.31886042534E+02  0.00000000000E+00 0.  1.
         11    1    3    3    0    0  0.10464523746E+02 -0.12768114364E+02  0.41245174341E+01  0.17015952690E+02  0.51100000000E-03 0. -1.
        -11    1    3    3    0    0  0.15911197323E+02  0.35285902463E+01  0.49895539077E+01  0.17044435979E+02  0.51100000000E-03 0.  1.
         12    1    3    3    0    0 -0.13900464078E+02 -0.19999335400E+02 -0.66287613702E+01  0.25241568797E+02  0.00000000000E+00 0. -1.
</event>
<event>
 7    1  0.1290195E-011  0.5930191E+02  0.7816164E-02  0.1266605E+00
        -11   -1    0    0    0    0  0.00000000000E+00  0.00000000000E+00  0.45593999997E+02  0.45594000000E+02  0.51100000000E-03 0.  1.
         11   -1    0    0    0    0 -0.00000000000E+00 -0.00000000000E+00 -0.45593999997E+02  0.45594000000E+02  0.51100000000E-03 0. -1.
    9900012    2    1    2    0    0 -0.27621679632E+02  0.11945818783E+02 -0.10538650114E+02  0.59301907133E+02  0.49999932713E+02 0.  0.
        -12    1    1    2    0    0  0.27621679632E+02 -0.11945818783E+02  0.10538650114E+02  0.31886092867E+02  0.00000000000E+00 0.  1.
         11    1    3    3    0    0 -0.28967848934E+02  0.59054514294E+01  0.29947012815E+01  0.29714960280E+02  0.51100000000E-03 0. -1.
        -11    1    3    3    0    0 -0.90270459059E+01 -0.52540598027E+01 -0.84383664152E+01  0.13427536267E+02  0.51100000000E-03 0.  1.
         12    1    3    3    0    0  0.10373215207E+02  0.11294427156E+02 -0.50949849805E+01  0.16159410586E+02  0.00000000000E+00 0. -1.
</event>
<event>
 7    1  0.1290195E-011  0.5930207E+02  0.7816164E-02  0.1266604E+00
        -11   -1    0    0    0    0  0.00000000000E+00  0.00000000000E+00  0.45593999997E+02  0.45594000000E+02  0.51100000000E-03 0. -1.
         11   -1    0    0    0    0 -0.00000000000E+00 -0.00000000000E+00 -0.45593999997E+02  0.45594000000E+02  0.51100000000E-03 0.  1.
    9900012    2    1    2    0    0  0.14418507554E+02 -0.11836311494E+02  0.25859633374E+02  0.59302074138E+02  0.50000237289E+02 0.  0.
        -12    1    1    2    0    0 -0.14418507554E+02  0.11836311494E+02 -0.25859633374E+02  0.31885925862E+02  0.00000000000E+00 0.  1.
         11    1    3    3    0    0 -0.10635629452E+02  0.81304081109E+01  0.94985811340E+01  0.16414724905E+02  0.51100000000E-03 0. -1.
        -11    1    3    3    0    0  0.70075557462E+00 -0.14688677451E+02  0.54197023187E+01  0.15672315627E+02  0.51100000000E-03 0.  1.
        -12    1    3    3    0    0  0.24353381431E+02 -0.52780421542E+01  0.10941349921E+02  0.27215033606E+02  0.00000000000E+00 0.  1.
</event>
<event>
 7    1  0.1290195E-011  0.5930193E+02  0.7816164E-02  0.1266605E+00
        -11   -1    0    0    0    0  0.00000000000E+00  0.00000000000E+00  0.45593999997E+02  0.45594000000E+02  0.51100000000E-03 0. -1.
         11   -1    0    0    0    0 -0.00000000000E+00 -0.00000000000E+00 -0.45593999997E+02  0.45594000000E+02  0.51100000000E-03 0.  1.
    9900012    2    1    2    0    0 -0.10255087437E+02 -0.21038990162E+02  0.21654458285E+02  0.59301929546E+02  0.49999973590E+02 0.  0.
        -12    1    1    2    0    0  0.10255087437E+02  0.21038990162E+02 -0.21654458285E+02  0.31886070454E+02  0.00000000000E+00 0.  1.
         11    1    3    3    0    0  0.21159351609E+01 -0.12752963103E+02 -0.33989204737E+00  0.12931773907E+02  0.51100000000E-03 0. -1.
        -11    1    3    3    0    0  0.75770757680E+01  0.79191845056E+00 -0.67809092681E+01  0.10199016756E+02  0.51100000000E-03 0.  1.
         12    1    3    3    0    0 -0.19948098366E+02 -0.90779455094E+01  0.28775259601E+02  0.36171138884E+02  0.00000000000E+00 0. -1.
</event>
<event>
 7    1  0.1290195E-011  0.5930196E+02  0.7816164E-02  0.1266605E+00
        -11   -1    0    0    0    0  0.00000000000E+00  0.00000000000E+00  0.45593999997E+02  0.45594000000E+02  0.51100000000E-03 0.  1.
         11   -1    0    0    0    0 -0.00000000000E+00 -0.00000000000E+00 -0.45593999997E+02  0.45594000000E+02  0.51100000000E-03 0. -1.
    9900012    2    1    2    0    0  0.20862894605E+02  0.88391977673E+01 -0.22434974041E+02  0.59301955267E+02  0.50000020498E+02 0.  0.
        -12    1    1    2    0    0 -0.20862894605E+02 -0.88391977673E+01  0.22434974041E+02  0.31886044733E+02  0.00000000000E+00 0.  1.
         11    1    3    3    0    0  0.34074610199E+01 -0.24334140675E+01 -0.11853066297E+02  0.12570897960E+02  0.51100000000E-03 0. -1.
        -11    1    3    3    0    0  0.26790869627E+02  0.37536223952E+01 -0.18129762303E+02  0.32565758979E+02  0.51100000000E-03 0.  1.
        -12    1    3    3    0    0 -0.93354360420E+01  0.75189894396E+01  0.75478545585E+01  0.14165298328E+02  0.00000000000E+00 0.  1.
</event>
<event>
 7    1  0.1290195E-011  0.5930195E+02  0.7816164E-02  0.1266605E+00
        -11   -1    0    0    0    0  0.00000000000E+00  0.00000000000E+00  0.45593999997E+02  0.45594000000E+02  0.51100000000E-03 0.  1.
         11   -1    0    0    0    0 -0.00000000000E+00 -0.00000000000E+00 -0.45593999997E+02  0.45594000000E+02  0.51100000000E-03 0. -1.
    9900012    2    1    2    0    0  0.24381084119E+02 -0.19414325553E+02 -0.67354742223E+01  0.59301954266E+02  0.50000018673E+02 0.  0.
        -12    1    1    2    0    0 -0.24381084119E+02  0.19414325553E+02  0.67354742223E+01  0.31886045734E+02  0.00000000000E+00 0.  1.
         11    1    3    3    0    0  0.58380896892E+01 -0.24635919439E+02 -0.15411696967E+02  0.29640044223E+02  0.51100000000E-03 0. -1.
        -11    1    3    3    0    0 -0.26053101259E+01 -0.24359841151E+01  0.60419585401E+01  0.70161900432E+01  0.51100000000E-03 0.  1.
        -12    1    3    3    0    0  0.21148304556E+02  0.76575780014E+01  0.26342642049E+01  0.22645720001E+02  0.00000000000E+00 0.  1.
</event>
<event>
 7    1  0.1290195E-011  0.5930191E+02  0.7816164E-02  0.1266605E+00
        -11   -1    0    0    0    0  0.00000000000E+00  0.00000000000E+00  0.45593999997E+02  0.45594000000E+02  0.51100000000E-03 0. -1.
         11   -1    0    0    0    0 -0.00000000000E+00 -0.00000000000E+00 -0.45593999997E+02  0.45594000000E+02  0.51100000000E-03 0.  1.
    9900012    2    1    2    0    0  0.35930934453E+01 -0.21824337991E+02  0.22967599146E+02  0.59301911187E+02  0.49999940107E+02 0.  0.
        -12    1    1    2    0    0 -0.35930934453E+01  0.21824337991E+02 -0.22967599146E+02  0.31886088813E+02  0.00000000000E+00 0.  1.
         11    1    3    3    0    0 -0.38006113051E+01 -0.10836254162E+02  0.15886203929E+01  0.11592789379E+02  0.51100000000E-03 0. -1.
        -11    1    3    3    0    0 -0.16234867696E+02 -0.90616287968E-01  0.51058398565E+01  0.17019069931E+02  0.51100000000E-03 0.  1.
        -12    1    3    3    0    0  0.23628572447E+02 -0.10897467540E+02  0.16273138897E+02  0.30690051877E+02  0.00000000000E+00 0.  1.
</event>
<event>
 7    1  0.1290195E-011  0.5930193E+02  0.7816164E-02  0.1266605E+00
        -11   -1    0    0    0    0  0.00000000000E+00  0.00000000000E+00  0.45593999997E+02  0.45594000000E+02  0.51100000000E-03 0.  1.
         11   -1    0    0    0    0 -0.00000000000E+00 -0.00000000000E+00 -0.45593999997E+02  0.45594000000E+02  0.51100000000E-03 0. -1.
    9900012    2    1    2    0    0  0.90997514542E+01 -0.64222252669E+01 -0.29877605410E+02  0.59301925313E+02  0.49999965869E+02 0.  0.
        -12    1    1    2    0    0 -0.90997514542E+01  0.64222252669E+01  0.29877605410E+02  0.31886074687E+02  0.00000000000E+00 0.  1.
         11    1    3    3    0    0  0.21276422149E+02 -0.16244185773E+01 -0.24118594767E+02  0.32202973294E+02  0.51100000000E-03 0. -1.
        -11    1    3    3    0    0  0.45564742627E+01 -0.42423551865E+01 -0.80759222011E+01  0.10197036574E+02  0.51100000000E-03 0.  1.
        -12    1    3    3    0    0 -0.16733144957E+02 -0.55545150311E+00  0.23169115581E+01  0.16901915445E+02  0.00000000000E+00 0.  1.
</event>
<event>
 7    1  0.1290195E-011  0.5930187E+02  0.7816164E-02  0.1266605E+00
        -11   -1    0    0    0    0  0.00000000000E+00  0.00000000000E+00  0.45593999997E+02  0.45594000000E+02  0.51100000000E-03 0.  1.
         11   -1    0    0    0    0 -0.00000000000E+00 -0.00000000000E+00 -0.45593999997E+02  0.45594000000E+02  0.51100000000E-03 0. -1.
    9900012    2    1    2    0    0 -0.27775760664E+02 -0.15609040539E+02 -0.12611371821E+01  0.59301866744E+02  0.49999859052E+02 0.  0.
        -12    1    1    2    0    0  0.27775760664E+02  0.15609040539E+02  0.12611371821E+01  0.31886133256E+02  0.00000000000E+00 0.  1.
         11    1    3    3    0    0 -0.25561083650E+02 -0.11646268400E+02 -0.10618561553E+02  0.30029292611E+02  0.51100000000E-03 0. -1.
        -11    1    3    3    0    0 -0.27076221350E+01 -0.15668256369E+02  0.40353485869E+01  0.16404557713E+02  0.51100000000E-03 0.  1.
        -12    1    3    3    0    0  0.49294512081E+00  0.11705484229E+02  0.53220757844E+01  0.12868016420E+02  0.00000000000E+00 0.  1.
</event>
<event>
 7    1  0.1290195E-011  0.5930194E+02  0.7816164E-02  0.1266605E+00
        -11   -1    0    0    0    0  0.00000000000E+00  0.00000000000E+00  0.45593999997E+02  0.45594000000E+02  0.51100000000E-03 0.  1.
         11   -1    0    0    0    0 -0.00000000000E+00 -0.00000000000E+00 -0.45593999997E+02  0.45594000000E+02  0.51100000000E-03 0. -1.
    9900012    2    1    2    0    0  0.79143004358E+01 -0.87263475635E+01 -0.29629973251E+02  0.59301943360E+02  0.49999998782E+02 0.  0.
        -12    1    1    2    0    0 -0.79143004358E+01  0.87263475635E+01  0.29629973251E+02  0.31886056640E+02  0.00000000000E+00 0.  1.
         11    1    3    3    0    0  0.20149489078E+01 -0.19223881884E+02 -0.84007391950E+01  0.21075817257E+02  0.51100000000E-03 0. -1.
        -11    1    3    3    0    0 -0.10428969302E+02 -0.25138830194E+01 -0.91858771535E+01  0.14123149361E+02  0.51100000000E-03 0.  1.
         12    1    3    3    0    0  0.16328320830E+02  0.13011417340E+02 -0.12043356903E+02  0.24102976741E+02  0.00000000000E+00 0. -1.
</event>
<event>
 7    1  0.1290195E-011  0.5930188E+02  0.7816164E-02  0.1266605E+00
        -11   -1    0    0    0    0  0.00000000000E+00  0.00000000000E+00  0.45593999997E+02  0.45594000000E+02  0.51100000000E-03 0.  1.
         11   -1    0    0    0    0 -0.00000000000E+00 -0.00000000000E+00 -0.45593999997E+02  0.45594000000E+02  0.51100000000E-03 0. -1.
    9900012    2    1    2    0    0  0.88668624535E+01 -0.16357965467E+02 -0.25894412803E+02  0.59301876084E+02  0.49999876087E+02 0.  0.
        -12    1    1    2    0    0 -0.88668624535E+01  0.16357965467E+02  0.25894412803E+02  0.31886123916E+02  0.00000000000E+00 0.  1.
         11    1    3    3    0    0 -0.45342259928E+01 -0.13493128360E+02  0.69168835395E+00  0.14251391207E+02  0.51100000000E-03 0. -1.
        -11    1    3    3    0    0 -0.35783696943E+00  0.14067238750E+02 -0.69354681229E+01  0.15688083748E+02  0.51100000000E-03 0.  1.
         12    1    3    3    0    0  0.13758925416E+02 -0.16932075857E+02 -0.19650633034E+02  0.29362401129E+02  0.00000000000E+00 0. -1.
</event>
<event>
 7    1  0.1290195E-011  0.5930196E+02  0.7816164E-02  0.1266605E+00
        -11   -1    0    0    0    0  0.00000000000E+00  0.00000000000E+00  0.45593999997E+02  0.45594000000E+02  0.51100000000E-03 0. -1.
         11   -1    0    0    0    0 -0.00000000000E+00 -0.00000000000E+00 -0.45593999997E+02  0.45594000000E+02  0.51100000000E-03 0.  1.
    9900012    2    1    2    0    0 -0.29671184043E+02 -0.53505350678E+01 -0.10378458450E+02  0.59301956222E+02  0.50000022240E+02 0.  0.
        -12    1    1    2    0    0  0.29671184043E+02  0.53505350678E+01  0.10378458450E+02  0.31886043778E+02  0.00000000000E+00 0.  1.
         11    1    3    3    0    0 -0.62454468614E+01  0.34089872525E+01 -0.47222521744E+01  0.85396994353E+01  0.51100000000E-03 0. -1.
        -11    1    3    3    0    0  0.33297817466E+01  0.14165125029E+02 -0.54203842847E+01  0.15527999859E+02  0.51100000000E-03 0.  1.
        -12    1    3    3    0    0 -0.26755518928E+02 -0.22924647350E+02 -0.23582199087E+00  0.35234256927E+02  0.00000000000E+00 0.  1.
</event>
<event>
 7    1  0.1290195E-011  0.5930195E+02  0.7816164E-02  0.1266605E+00
        -11   -1    0    0    0    0  0.00000000000E+00  0.00000000000E+00  0.45593999997E+02  0.45594000000E+02  0.51100000000E-03 0.  1.
         11   -1    0    0    0    0 -0.00000000000E+00 -0.00000000000E+00 -0.45593999997E+02  0.45594000000E+02  0.51100000000E-03 0. -1.
    9900012    2    1    2    0    0  0.49031938959E+01  0.30664010680E+02 -0.72385830391E+01  0.59301953745E+02  0.50000017723E+02 0.  0.
        -12    1    1    2    0    0 -0.49031938959E+01 -0.30664010680E+02  0.72385830391E+01  0.31886046255E+02  0.00000000000E+00 0.  1.
         11    1    3    3    0    0 -0.88127373642E+01  0.17786288789E+02  0.61725623993E+01  0.20787422534E+02  0.51100000000E-03 0. -1.
        -11    1    3    3    0    0  0.17052389977E+02  0.20922018480E+02 -0.75846912358E+01  0.28036447753E+02  0.51100000000E-03 0.  1.
         12    1    3    3    0    0 -0.33364587166E+01 -0.80442965900E+01 -0.58264542026E+01  0.10478083459E+02  0.00000000000E+00 0. -1.
</event>
<event>
 7    1  0.1290195E-011  0.5930194E+02  0.7816164E-02  0.1266605E+00
        -11   -1    0    0    0    0  0.00000000000E+00  0.00000000000E+00  0.45593999997E+02  0.45594000000E+02  0.51100000000E-03 0.  1.
         11   -1    0    0    0    0 -0.00000000000E+00 -0.00000000000E+00 -0.45593999997E+02  0.45594000000E+02  0.51100000000E-03 0. -1.
    9900012    2    1    2    0    0 -0.16185213635E+02 -0.23723206759E+02  0.13855297464E+02  0.59301938043E+02  0.49999989084E+02 0.  0.
        -12    1    1    2    0    0  0.16185213635E+02  0.23723206759E+02 -0.13855297464E+02  0.31886061957E+02  0.00000000000E+00 0.  1.
         11    1    3    3    0    0 -0.66916740634E+01 -0.11046989214E+02 -0.87282811650E+01  0.15588372744E+02  0.51100000000E-03 0. -1.
        -11    1    3    3    0    0 -0.11733847214E+01  0.90446382585E+01 -0.25484030336E+01  0.94697767246E+01  0.51100000000E-03 0.  1.
         12    1    3    3    0    0 -0.83201548505E+01 -0.21720855803E+02  0.25131981663E+02  0.34243788574E+02  0.00000000000E+00 0. -1.
</event>
<event>
 7    1  0.1290195E-011  0.5930193E+02  0.7816164E-02  0.1266605E+00
        -11   -1    0    0    0    0  0.00000000000E+00  0.00000000000E+00  0.45593999997E+02  0.45594000000E+02  0.51100000000E-03 0. -1.
         11   -1    0    0    0    0 -0.00000000000E+00 -0.00000000000E+00 -0.45593999997E+02  0.45594000000E+02  0.51100000000E-03 0.  1.
    9900012    2    1    2    0    0  0.78227938281E+01  0.63429059022E+01 -0.30253805518E+02  0.59301932402E+02  0.49999978797E+02 0.  0.
        -12    1    1    2    0    0 -0.78227938281E+01 -0.63429059022E+01  0.30253805518E+02  0.31886067598E+02  0.00000000000E+00 0.  1.
         11    1    3    3    0    0  0.76200684442E+00  0.10401921887E+02  0.11538828340E+00  0.10430433744E+02  0.51100000000E-03 0. -1.
        -11    1    3    3    0    0  0.13305828592E+02 -0.13433203697E+02 -0.28305050103E+01  0.19118258157E+02  0.51100000000E-03 0.  1.
         12    1    3    3    0    0 -0.62450416081E+01  0.93741877128E+01 -0.27538688791E+02  0.29753240501E+02  0.00000000000E+00 0. -1.
</event>
<event>
 7    1  0.1290195E-011  0.5930203E+02  0.7816164E-02  0.1266604E+00
        -11   -1    0    0    0    0  0.00000000000E+00  0.00000000000E+00  0.45593999997E+02  0.45594000000E+02  0.51100000000E-03 0.  1.
         11   -1    0    0    0    0 -0.00000000000E+00 -0.00000000000E+00 -0.45593999997E+02  0.45594000000E+02  0.51100000000E-03 0. -1.
    9900012    2    1    2    0    0 -0.12955142392E+02 -0.12598743741E+02 -0.26270721236E+02  0.59302033612E+02  0.50000163380E+02 0.  0.
        -12    1    1    2    0    0  0.12955142392E+02  0.12598743741E+02  0.26270721236E+02  0.31885966388E+02  0.00000000000E+00 0.  1.
         11    1    3    3    0    0 -0.16929194057E+02 -0.18292787892E+02 -0.23543417629E+02  0.34285801933E+02  0.51100000000E-03 0. -1.
        -11    1    3    3    0    0  0.48908898093E+01 -0.42484524221E+01  0.80443882205E+01  0.10328714015E+02  0.51100000000E-03 0.  1.
         12    1    3    3    0    0 -0.91683814491E+00  0.99424965738E+01 -0.10771691828E+02  0.14687517664E+02  0.00000000000E+00 0. -1.
</event>
<event>
 7    1  0.1290195E-011  0.5930189E+02  0.7816164E-02  0.1266605E+00
        -11   -1    0    0    0    0  0.00000000000E+00  0.00000000000E+00  0.45593999997E+02  0.45594000000E+02  0.51100000000E-03 0.  1.
         11   -1    0    0    0    0 -0.00000000000E+00 -0.00000000000E+00 -0.45593999997E+02  0.45594000000E+02  0.51100000000E-03 0. -1.
    9900012    2    1    2    0    0  0.26789810615E+02  0.45071217220E+01  0.16694779024E+02  0.59301894159E+02  0.49999909052E+02 0.  0.
        -12    1    1    2    0    0 -0.26789810615E+02 -0.45071217220E+01 -0.16694779024E+02  0.31886105841E+02  0.00000000000E+00 0.  1.
         11    1    3    3    0    0  0.30090652143E+02 -0.73578555721E+01 -0.64001634641E+00  0.30983786183E+02  0.51100000000E-03 0. -1.
        -11    1    3    3    0    0 -0.13163498937E+01  0.15720284280E+02  0.72917806264E+01  0.17379015503E+02  0.51100000000E-03 0.  1.
        -12    1    3    3    0    0 -0.19844916346E+01 -0.38553069855E+01  0.10043014744E+02  0.10939092474E+02  0.00000000000E+00 0.  1.
</event>
<event>
 7    1  0.1290195E-011  0.5930195E+02  0.7816164E-02  0.1266605E+00
        -11   -1    0    0    0    0  0.00000000000E+00  0.00000000000E+00  0.45593999997E+02  0.45594000000E+02  0.51100000000E-03 0.  1.
         11   -1    0    0    0    0 -0.00000000000E+00 -0.00000000000E+00 -0.45593999997E+02  0.45594000000E+02  0.51100000000E-03 0. -1.
    9900012    2    1    2    0    0 -0.14569354034E+02 -0.26487496185E+02 -0.10142329273E+02  0.59301947027E+02  0.50000005470E+02 0.  0.
        -12    1    1    2    0    0  0.14569354034E+02  0.26487496185E+02  0.10142329273E+02  0.31886052973E+02  0.00000000000E+00 0.  1.
         11    1    3    3    0    0 -0.68356156571E+01 -0.17826310729E+02 -0.20138043175E+02  0.27749662679E+02  0.51100000000E-03 0. -1.
        -11    1    3    3    0    0 -0.99909635976E+01 -0.14462441629E+02 -0.23419346669E+01  0.17733195699E+02  0.51100000000E-03 0.  1.
        -12    1    3    3    0    0  0.22572252206E+01  0.58012561729E+01  0.12337648568E+02  0.13819088649E+02  0.00000000000E+00 0.  1.
</event>
<event>
 7    1  0.1347873E-011  0.5930196E+02  0.7816164E-02  0.1266605E+00
        -11   -1    0    0    0    0  0.00000000000E+00  0.00000000000E+00  0.45593999997E+02  0.45594000000E+02  0.51100000000E-03 0. -1.
         11   -1    0    0    0    0 -0.00000000000E+00 -0.00000000000E+00 -0.45593999997E+02  0.45594000000E+02  0.51100000000E-03 0.  1.
    9900012    2    1    2    0    0  0.14451321097E+02  0.82257217848E+01  0.27206912815E+02  0.59301964103E+02  0.50000036612E+02 0.  0.
        -12    1    1    2    0    0 -0.14451321097E+02 -0.82257217848E+01 -0.27206912815E+02  0.31886035897E+02  0.00000000000E+00 0.  1.
         11    1    3    3    0    0 -0.13731853823E+02  0.85496289966E+01  0.13386971678E+02  0.20996927784E+02  0.51100000000E-03 0. -1.
        -11    1    3    3    0    0  0.14297591351E+02  0.10654950201E+02  0.49495627743E+01  0.18505330425E+02  0.51100000000E-03 0.  1.
        -12    1    3    3    0    0  0.13885583569E+02 -0.10978857413E+02  0.88703783634E+01  0.19799705894E+02  0.00000000000E+00 0.  1.
</event>
<event>
 7    1  0.1290195E-011  0.5930193E+02  0.7816164E-02  0.1266605E+00
        -11   -1    0    0    0    0  0.00000000000E+00  0.00000000000E+00  0.45593999997E+02  0.45594000000E+02  0.51100000000E-03 0.  1.
         11   -1    0    0    0    0 -0.00000000000E+00 -0.00000000000E+00 -0.45593999997E+02  0.45594000000E+02  0.51100000000E-03 0. -1.
    9900012    2    1    2    0    0 -0.21573535530E+02 -0.22902608823E+02 -0.51744060502E+01  0.59301930877E+02  0.49999976016E+02 0.  0.
        -12    1    1    2    0    0  0.21573535530E+02  0.22902608823E+02  0.51744060502E+01  0.31886069123E+02  0.00000000000E+00 0.  1.
         11    1    3    3    0    0  0.10163441887E+01 -0.10540367770E+02 -0.12324438020E+02  0.16248817834E+02  0.51100000000E-03 0. -1.
        -11    1    3    3    0    0 -0.62264266499E+01  0.99526827785E+01 -0.50893503156E+01  0.12795537121E+02  0.51100000000E-03 0.  1.
        -12    1    3    3    0    0 -0.16363453069E+02 -0.22314923832E+02  0.12239382285E+02  0.30257575922E+02  0.00000000000E+00 0.  1.
</event>
<event>
 7    1  0.1290195E-011  0.5930194E+02  0.7816164E-02  0.1266605E+00
        -11   -1    0    0    0    0  0.00000000000E+00  0.00000000000E+00  0.45593999997E+02  0.45594000000E+02  0.51100000000E-03 0. -1.
         11   -1    0    0    0    0 -0.00000000000E+00 -0.00000000000E+00 -0.45593999997E+02  0.45594000000E+02  0.51100000000E-03 0.  1.
    9900012    2    1    2    0    0 -0.20771530960E+02 -0.22316851149E+02  0.93392952846E+01  0.59301940663E+02  0.49999993864E+02 0.  0.
        -12    1    1    2    0    0  0.20771530960E+02  0.22316851149E+02 -0.93392952846E+01  0.31886059337E+02  0.00000000000E+00 0.  1.
         11    1    3    3    0    0 -0.11232540455E+02 -0.24985528009E+02  0.14866566493E+02  0.31168275129E+02  0.51100000000E-03 0. -1.
        -11    1    3    3    0    0 -0.16187256134E+02  0.40950784499E+01  0.32705493437E+01  0.17014506221E+02  0.51100000000E-03 0.  1.
        -12    1    3    3    0    0  0.66482656287E+01 -0.14264015893E+01 -0.87978205523E+01  0.11119159313E+02  0.00000000000E+00 0.  1.
</event>
<event>
 7    1  0.1290195E-011  0.5930199E+02  0.7816164E-02  0.1266605E+00
        -11   -1    0    0    0    0  0.00000000000E+00  0.00000000000E+00  0.45593999997E+02  0.45594000000E+02  0.51100000000E-03 0. -1.
         11   -1    0    0    0    0 -0.00000000000E+00 -0.00000000000E+00 -0.45593999997E+02  0.45594000000E+02  0.51100000000E-03 0.  1.
    9900012    2    1    2    0    0 -0.22831822800E+02  0.97330743244E+01  0.20017312620E+02  0.59301989389E+02  0.50000082728E+02 0.  0.
        -12    1    1    2    0    0  0.22831822800E+02 -0.97330743244E+01 -0.20017312620E+02  0.31886010611E+02  0.00000000000E+00 0.  1.
         11    1    3    3    0    0  0.52343157073E+01  0.53456539126E+01  0.29133555514E+01  0.80288054845E+01  0.51100000000E-03 0. -1.
        -11    1    3    3    0    0 -0.28565838162E+02  0.10963663275E+02 -0.23929913980E+01  0.30690966593E+02  0.51100000000E-03 0.  1.
         12    1    3    3    0    0  0.49969965520E+00 -0.65762428630E+01  0.19496948467E+02  0.20582217311E+02  0.00000000000E+00 0. -1.
</event>
<event>
 7    1  0.1290195E-011  0.5930195E+02  0.7816164E-02  0.1266605E+00
        -11   -1    0    0    0    0  0.00000000000E+00  0.00000000000E+00  0.45593999997E+02  0.45594000000E+02  0.51100000000E-03 0. -1.
         11   -1    0    0    0    0 -0.00000000000E+00 -0.00000000000E+00 -0.45593999997E+02  0.45594000000E+02  0.51100000000E-03 0.  1.
    9900012    2    1    2    0    0  0.14432682097E+01  0.18866023087E+02  0.25665349293E+02  0.59301952823E+02  0.50000016040E+02 0.  0.
        -12    1    1    2    0    0 -0.14432682097E+01 -0.18866023087E+02 -0.25665349293E+02  0.31886047177E+02  0.00000000000E+00 0.  1.
         11    1    3    3    0    0  0.83543296768E+01  0.82371295169E+01 -0.32809464216E+01  0.12182353496E+02  0.51100000000E-03 0. -1.
        -11    1    3    3    0    0 -0.12682934181E+02  0.11105698060E+02 -0.73938741771E+00  0.16874241994E+02  0.51100000000E-03 0.  1.
         12    1    3    3    0    0  0.57718727138E+01 -0.47680448952E+00  0.29685683132E+02  0.30245357333E+02  0.00000000000E+00 0. -1.
</event>
<event>
 7    1  0.1290195E-011  0.5930194E+02  0.7816164E-02  0.1266605E+00
        -11   -1    0    0    0    0  0.00000000000E+00  0.00000000000E+00  0.45593999997E+02  0.45594000000E+02  0.51100000000E-03 0. -1.
         11   -1    0    0    0    0 -0.00000000000E+00 -0.00000000000E+00 -0.45593999997E+02  0.45594000000E+02  0.51100000000E-03 0.  1.
    9900012    2    1    2    0    0 -0.57196271851E+01  0.30828879146E+02  0.57954068220E+01  0.59301942470E+02  0.49999997160E+02 0.  0.
        -12    1    1    2    0    0  0.57196271851E+01 -0.30828879146E+02 -0.57954068220E+01  0.31886057530E+02  0.00000000000E+00 0.  1.
         11    1    3    3    0    0 -0.65464888113E+00  0.35855830347E+01  0.14281805037E+01  0.39146737627E+01  0.51100000000E-03 0. -1.
        -11    1    3    3    0    0  0.37403701064E+01  0.37415964435E+02 -0.64148826400E+01  0.38145713818E+02  0.51100000000E-03 0.  1.
        -12    1    3    3    0    0 -0.88053484103E+01 -0.10172668323E+02  0.10782108958E+02  0.17241554890E+02  0.00000000000E+00 0.  1.
</event>
<event>
 7    1  0.1290195E-011  0.5930208E+02  0.7816164E-02  0.1266604E+00
        -11   -1    0    0    0    0  0.00000000000E+00  0.00000000000E+00  0.45593999997E+02  0.45594000000E+02  0.51100000000E-03 0.  1.
         11   -1    0    0    0    0 -0.00000000000E+00 -0.00000000000E+00 -0.45593999997E+02  0.45594000000E+02  0.51100000000E-03 0. -1.
    9900012    2    1    2    0    0 -0.51813398329E+01  0.19534844855E+02 -0.24662832196E+02  0.59302082452E+02  0.50000252452E+02 0.  0.
        -12    1    1    2    0    0  0.51813398329E+01 -0.19534844855E+02  0.24662832196E+02  0.31885917548E+02  0.00000000000E+00 0.  1.
         11    1    3    3    0    0  0.34127132134E+01  0.13226893642E+02 -0.11761310264E+02  0.18025696832E+02  0.51100000000E-03 0. -1.
        -11    1    3    3    0    0 -0.14166209961E+02  0.19951749009E+02 -0.81997685680E+01  0.25806782016E+02  0.51100000000E-03 0.  1.
        -12    1    3    3    0    0  0.55721569145E+01 -0.13643797796E+02 -0.47017533637E+01  0.15469603604E+02  0.00000000000E+00 0.  1.
</event>
<event>
 7    1  0.1290195E-011  0.5930229E+02  0.7816164E-02  0.1266604E+00
        -11   -1    0    0    0    0  0.00000000000E+00  0.00000000000E+00  0.45593999997E+02  0.45594000000E+02  0.51100000000E-03 0. -1.
         11   -1    0    0    0    0 -0.00000000000E+00 -0.00000000000E+00 -0.45593999997E+02  0.45594000000E+02  0.51100000000E-03 0.  1.
    9900012    2    1    2    0    0 -0.12031603253E+02  0.29528227557E+02 -0.15070098163E+00  0.59302291441E+02  0.50000633595E+02 0.  0.
        -12    1    1    2    0    0  0.12031603253E+02 -0.29528227557E+02  0.15070098163E+00  0.31885708559E+02  0.00000000000E+00 0.  1.
         11    1    3    3    0    0 -0.15770194046E+02  0.24587612955E+02  0.35084947591E+01  0.29420388625E+02  0.51100000000E-03 0. -1.
        -11    1    3    3    0    0 -0.12577178034E+02  0.10939507965E+01  0.41249682583E+00  0.12631400934E+02  0.51100000000E-03 0.  1.
        -12    1    3    3    0    0  0.16315768828E+02  0.38466638052E+01 -0.40716925666E+01  0.17250501883E+02  0.00000000000E+00 0.  1.
</event>
<event>
 7    1  0.1290195E-011  0.5930198E+02  0.7816164E-02  0.1266605E+00
        -11   -1    0    0    0    0  0.00000000000E+00  0.00000000000E+00  0.45593999997E+02  0.45594000000E+02  0.51100000000E-03 0.  1.
         11   -1    0    0    0    0 -0.00000000000E+00 -0.00000000000E+00 -0.45593999997E+02  0.45594000000E+02  0.51100000000E-03 0. -1.
    9900012    2    1    2    0    0 -0.21263056090E+02  0.18522187562E+02 -0.14883862576E+02  0.59301978744E+02  0.50000063314E+02 0.  0.
        -12    1    1    2    0    0  0.21263056090E+02 -0.18522187562E+02  0.14883862576E+02  0.31886021256E+02  0.00000000000E+00 0.  1.
         11    1    3    3    0    0  0.37470300057E+01 -0.61321764119E+01 -0.68986958214E+01  0.99617180099E+01  0.51100000000E-03 0. -1.
        -11    1    3    3    0    0 -0.17109122570E+02  0.64879475665E+01  0.11452596675E+02  0.21586512215E+02  0.51100000000E-03 0.  1.
        -12    1    3    3    0    0 -0.79009635261E+01  0.18166416407E+02 -0.19437763430E+02  0.27753748519E+02  0.00000000000E+00 0.  1.
</event>
<event>
 7    1  0.1290195E-011  0.5930195E+02  0.7816164E-02  0.1266605E+00
        -11   -1    0    0    0    0  0.00000000000E+00  0.00000000000E+00  0.45593999997E+02  0.45594000000E+02  0.51100000000E-03 0.  1.
         11   -1    0    0    0    0 -0.00000000000E+00 -0.00000000000E+00 -0.45593999997E+02  0.45594000000E+02  0.51100000000E-03 0. -1.
    9900012    2    1    2    0    0 -0.69502537974E+01 -0.25946690694E+02 -0.17180902555E+02  0.59301949783E+02  0.50000010496E+02 0.  0.
        -12    1    1    2    0    0  0.69502537974E+01  0.25946690694E+02  0.17180902555E+02  0.31886050217E+02  0.00000000000E+00 0.  1.
         11    1    3    3    0    0  0.13836986945E+02 -0.26515329226E+02 -0.12016474653E+02  0.32232290565E+02  0.51100000000E-03 0. -1.
        -11    1    3    3    0    0  0.22902120231E+01 -0.21933714568E+01  0.32598112633E+00  0.31878226761E+01  0.51100000000E-03 0.  1.
        -12    1    3    3    0    0 -0.23077452765E+02  0.27620099889E+01 -0.54904090288E+01  0.23881836542E+02  0.00000000000E+00 0.  1.
</event>
<event>
 7    1  0.1290195E-011  0.5930194E+02  0.7816164E-02  0.1266605E+00
        -11   -1    0    0    0    0  0.00000000000E+00  0.00000000000E+00  0.45593999997E+02  0.45594000000E+02  0.51100000000E-03 0.  1.
         11   -1    0    0    0    0 -0.00000000000E+00 -0.00000000000E+00 -0.45593999997E+02  0.45594000000E+02  0.51100000000E-03 0. -1.
    9900012    2    1    2    0    0  0.28477297623E+02  0.14176510648E+01 -0.14274273350E+02  0.59301935738E+02  0.49999984882E+02 0.  0.
        -12    1    1    2    0    0 -0.28477297623E+02 -0.14176510648E+01  0.14274273350E+02  0.31886064262E+02  0.00000000000E+00 0.  1.
         11    1    3    3    0    0  0.12790290237E+02 -0.33328745182E+01 -0.13285751854E+01  0.13284001250E+02  0.51100000000E-03 0. -1.
        -11    1    3    3    0    0  0.22795256415E+02 -0.11604524316E+02 -0.34389783064E+01  0.25809209048E+02  0.51100000000E-03 0.  1.
        -12    1    3    3    0    0 -0.71082490302E+01  0.16355049899E+02 -0.95067198583E+01  0.20208725441E+02  0.00000000000E+00 0.  1.
</event>
<event>
 7    1  0.1290195E-011  0.5930191E+02  0.7816164E-02  0.1266605E+00
        -11   -1    0    0    0    0  0.00000000000E+00  0.00000000000E+00  0.45593999997E+02  0.45594000000E+02  0.51100000000E-03 0.  1.
         11   -1    0    0    0    0 -0.00000000000E+00 -0.00000000000E+00 -0.45593999997E+02  0.45594000000E+02  0.51100000000E-03 0. -1.
    9900012    2    1    2    0    0 -0.67636853835E+01 -0.34429790501E+01 -0.30969685607E+02  0.59301906302E+02  0.49999931197E+02 0.  0.
        -12    1    1    2    0    0  0.67636853835E+01  0.34429790501E+01  0.30969685607E+02  0.31886093698E+02  0.00000000000E+00 0.  1.
         11    1    3    3    0    0  0.28255421000E+01  0.58300509142E+01  0.23227036600E+01  0.68824511894E+01  0.51100000000E-03 0. -1.
        -11    1    3    3    0    0 -0.27232768515E+01  0.10363789589E+02  0.25160282599E+01  0.11007032748E+02  0.51100000000E-03 0.  1.
         12    1    3    3    0    0 -0.68659506320E+01 -0.19636819553E+02 -0.35808417527E+02  0.41412422364E+02  0.00000000000E+00 0. -1.
</event>
<event>
 7    1  0.1290195E-011  0.5930191E+02  0.7816164E-02  0.1266605E+00
        -11   -1    0    0    0    0  0.00000000000E+00  0.00000000000E+00  0.45593999997E+02  0.45594000000E+02  0.51100000000E-03 0.  1.
         11   -1    0    0    0    0 -0.00000000000E+00 -0.00000000000E+00 -0.45593999997E+02  0.45594000000E+02  0.51100000000E-03 0. -1.
    9900012    2    1    2    0    0 -0.78992438061E+01 -0.20293400529E+01 -0.30825421151E+02  0.59301908002E+02  0.49999934297E+02 0.  0.
        -12    1    1    2    0    0  0.78992438061E+01  0.20293400529E+01  0.30825421151E+02  0.31886091998E+02  0.00000000000E+00 0.  1.
         11    1    3    3    0    0  0.38427798218E+01  0.15135508559E+02 -0.72307135223E+01  0.17208538416E+02  0.51100000000E-03 0. -1.
        -11    1    3    3    0    0 -0.44094919211E+01  0.72645099882E+01 -0.21390215375E+01  0.87631123335E+01  0.51100000000E-03 0.  1.
        -12    1    3    3    0    0 -0.73325317067E+01 -0.24429358600E+02 -0.21455686091E+02  0.33330257252E+02  0.00000000000E+00 0.  1.
</event>
<event>
 7    1  0.1290195E-011  0.5930204E+02  0.7816164E-02  0.1266604E+00
        -11   -1    0    0    0    0  0.00000000000E+00  0.00000000000E+00  0.45593999997E+02  0.45594000000E+02  0.51100000000E-03 0. -1.
         11   -1    0    0    0    0 -0.00000000000E+00 -0.00000000000E+00 -0.45593999997E+02  0.45594000000E+02  0.51100000000E-03 0.  1.
    9900012    2    1    2    0    0  0.18912351765E+02  0.11690476441E+02  0.22855419907E+02  0.59302039017E+02  0.50000173237E+02 0.  0.
        -12    1    1    2    0    0 -0.18912351765E+02 -0.11690476441E+02 -0.22855419907E+02  0.31885960983E+02  0.00000000000E+00 0.  1.
         11    1    3    3    0    0  0.46280632035E+01 -0.98590093229E+01  0.98631597121E+01  0.14693568444E+02  0.51100000000E-03 0. -1.
        -11    1    3    3    0    0  0.16957359029E+02  0.16564950738E+02 -0.62801357466E+01  0.24523248631E+02  0.51100000000E-03 0.  1.
         12    1    3    3    0    0 -0.26730704666E+01  0.49845350255E+01  0.19272395941E+02  0.20085221942E+02  0.00000000000E+00 0. -1.
</event>
<event>
 7    1  0.1290195E-011  0.5930206E+02  0.7816164E-02  0.1266604E+00
        -11   -1    0    0    0    0  0.00000000000E+00  0.00000000000E+00  0.45593999997E+02  0.45594000000E+02  0.51100000000E-03 0.  1.
         11   -1    0    0    0    0 -0.00000000000E+00 -0.00000000000E+00 -0.45593999997E+02  0.45594000000E+02  0.51100000000E-03 0. -1.
    9900012    2    1    2    0    0 -0.27440109375E+02  0.13084723138E+02 -0.96199518374E+01  0.59302061791E+02  0.50000214772E+02 0.  0.
        -12    1    1    2    0    0  0.27440109375E+02 -0.13084723138E+02  0.96199518374E+01  0.31885938209E+02  0.00000000000E+00 0.  1.
         11    1    3    3    0    0 -0.23322242571E+01  0.59852770029E+01 -0.17764814841E+02  0.18890512364E+02  0.51100000000E-03 0. -1.
        -11    1    3    3    0    0  0.68097626535E+01  0.27156720141E+01  0.86619280310E+00  0.73822782472E+01  0.51100000000E-03 0.  1.
        -12    1    3    3    0    0 -0.31917647771E+02  0.43837741209E+01  0.72786702006E+01  0.33029271180E+02  0.00000000000E+00 0.  1.
</event>
<event>
 7    1  0.1290195E-011  0.5930195E+02  0.7816164E-02  0.1266605E+00
        -11   -1    0    0    0    0  0.00000000000E+00  0.00000000000E+00  0.45593999997E+02  0.45594000000E+02  0.51100000000E-03 0.  1.
         11   -1    0    0    0    0 -0.00000000000E+00 -0.00000000000E+00 -0.45593999997E+02  0.45594000000E+02  0.51100000000E-03 0. -1.
    9900012    2    1    2    0    0 -0.56006312683E+01 -0.23217012868E+02  0.21126370617E+02  0.59301948307E+02  0.50000007804E+02 0.  0.
        -12    1    1    2    0    0  0.56006312683E+01  0.23217012868E+02 -0.21126370617E+02  0.31886051693E+02  0.00000000000E+00 0.  1.
         11    1    3    3    0    0 -0.30899600523E+01 -0.27755318717E+02 -0.17126216951E+01  0.27979253806E+02  0.51100000000E-03 0. -1.
        -11    1    3    3    0    0 -0.10070817289E+02 -0.29398737932E+01  0.86875922933E+01  0.13621251003E+02  0.51100000000E-03 0.  1.
        -12    1    3    3    0    0  0.75601460728E+01  0.74781796414E+01  0.14151400019E+02  0.17701443498E+02  0.00000000000E+00 0.  1.
</event>
<event>
 7    1  0.1290195E-011  0.5930193E+02  0.7816164E-02  0.1266605E+00
        -11   -1    0    0    0    0  0.00000000000E+00  0.00000000000E+00  0.45593999997E+02  0.45594000000E+02  0.51100000000E-03 0.  1.
         11   -1    0    0    0    0 -0.00000000000E+00 -0.00000000000E+00 -0.45593999997E+02  0.45594000000E+02  0.51100000000E-03 0. -1.
    9900012    2    1    2    0    0  0.98260007959E+01  0.14242814335E+02 -0.26782703654E+02  0.59301933030E+02  0.49999979942E+02 0.  0.
        -12    1    1    2    0    0 -0.98260007959E+01 -0.14242814335E+02  0.26782703654E+02  0.31886066970E+02  0.00000000000E+00 0.  1.
         11    1    3    3    0    0 -0.12308130397E+02  0.14263600739E+02 -0.23565937915E+02  0.30171075718E+02  0.51100000000E-03 0. -1.
        -11    1    3    3    0    0 -0.18745148070E+01  0.39522805943E+01 -0.18736170304E+01  0.47586519830E+01  0.51100000000E-03 0.  1.
         12    1    3    3    0    0  0.24008646000E+02 -0.39730669978E+01 -0.13431487086E+01  0.24372205329E+02  0.00000000000E+00 0. -1.
</event>
<event>
 7    1  0.1290195E-011  0.5930191E+02  0.7816164E-02  0.1266605E+00
        -11   -1    0    0    0    0  0.00000000000E+00  0.00000000000E+00  0.45593999997E+02  0.45594000000E+02  0.51100000000E-03 0. -1.
         11   -1    0    0    0    0 -0.00000000000E+00 -0.00000000000E+00 -0.45593999997E+02  0.45594000000E+02  0.51100000000E-03 0.  1.
    9900012    2    1    2    0    0 -0.31171123095E+02  0.58649634389E+01  0.32689486253E+01  0.59301909988E+02  0.49999937920E+02 0.  0.
        -12    1    1    2    0    0  0.31171123095E+02 -0.58649634389E+01 -0.32689486253E+01  0.31886090012E+02  0.00000000000E+00 0.  1.
         11    1    3    3    0    0 -0.21103119684E+02  0.11256203356E+02  0.15965904989E+02  0.28756806094E+02  0.51100000000E-03 0. -1.
        -11    1    3    3    0    0 -0.95000652715E+01 -0.11324710728E+02  0.17805199909E+01  0.14888605205E+02  0.51100000000E-03 0.  1.
        -12    1    3    3    0    0 -0.56793813962E+00  0.59334708118E+01 -0.14477476354E+02  0.15656498689E+02  0.00000000000E+00 0.  1.
</event>
<event>
 7    1  0.1290195E-011  0.5930194E+02  0.7816164E-02  0.1266605E+00
        -11   -1    0    0    0    0  0.00000000000E+00  0.00000000000E+00  0.45593999997E+02  0.45594000000E+02  0.51100000000E-03 0. -1.
         11   -1    0    0    0    0 -0.00000000000E+00 -0.00000000000E+00 -0.45593999997E+02  0.45594000000E+02  0.51100000000E-03 0.  1.
    9900012    2    1    2    0    0  0.14511793359E+02  0.43766917581E+01  0.28053046552E+02  0.59301937244E+02  0.49999987628E+02 0.  0.
        -12    1    1    2    0    0 -0.14511793359E+02 -0.43766917581E+01 -0.28053046552E+02  0.31886062756E+02  0.00000000000E+00 0.  1.
         11    1    3    3    0    0  0.97419931974E+01 -0.93334049675E+01  0.28220117684E+02  0.31279289028E+02  0.51100000000E-03 0. -1.
        -11    1    3    3    0    0  0.21614464500E+01  0.49194988194E+01  0.11788666746E+02  0.12955538711E+02  0.51100000000E-03 0.  1.
        -12    1    3    3    0    0  0.26083537120E+01  0.87905979062E+01 -0.11955737878E+02  0.15067109505E+02  0.00000000000E+00 0.  1.
</event>
<event>
 7    1  0.1290195E-011  0.5930195E+02  0.7816164E-02  0.1266605E+00
        -11   -1    0    0    0    0  0.00000000000E+00  0.00000000000E+00  0.45593999997E+02  0.45594000000E+02  0.51100000000E-03 0.  1.
         11   -1    0    0    0    0 -0.00000000000E+00 -0.00000000000E+00 -0.45593999997E+02  0.45594000000E+02  0.51100000000E-03 0. -1.
    9900012    2    1    2    0    0  0.80944118400E+01  0.17126424734E+02 -0.25649289395E+02  0.59301953308E+02  0.50000016924E+02 0.  0.
        -12    1    1    2    0    0 -0.80944118400E+01 -0.17126424734E+02  0.25649289395E+02  0.31886046692E+02  0.00000000000E+00 0.  1.
         11    1    3    3    0    0  0.16107268892E+02  0.24185551363E+02 -0.27887552222E+02  0.40275309745E+02  0.51100000000E-03 0. -1.
        -11    1    3    3    0    0 -0.16646637640E+01  0.46808330134E+01  0.27347999861E+01  0.56710170492E+01  0.51100000000E-03 0.  1.
        -12    1    3    3    0    0 -0.63481932875E+01 -0.11739959642E+02 -0.49653715929E+00  0.13355626514E+02  0.00000000000E+00 0.  1.
</event>
<event>
 7    1  0.1290195E-011  0.5930194E+02  0.7816164E-02  0.1266605E+00
        -11   -1    0    0    0    0  0.00000000000E+00  0.00000000000E+00  0.45593999997E+02  0.45594000000E+02  0.51100000000E-03 0.  1.
         11   -1    0    0    0    0 -0.00000000000E+00 -0.00000000000E+00 -0.45593999997E+02  0.45594000000E+02  0.51100000000E-03 0. -1.
    9900012    2    1    2    0    0  0.62925342734E+01 -0.29639095685E+02 -0.99321971436E+01  0.59301944730E+02  0.50000001281E+02 0.  0.
        -12    1    1    2    0    0 -0.62925342734E+01  0.29639095685E+02  0.99321971436E+01  0.31886055270E+02  0.00000000000E+00 0.  1.
         11    1    3    3    0    0 -0.88964052375E+00 -0.83836102489E+01 -0.15291400238E+02  0.17461480538E+02  0.51100000000E-03 0. -1.
        -11    1    3    3    0    0  0.77859306734E+01 -0.15507059363E+02 -0.13582981434E+02  0.22036038470E+02  0.51100000000E-03 0.  1.
        -12    1    3    3    0    0 -0.60375587618E+00 -0.57484260732E+01  0.18942184529E+02  0.19804425723E+02  0.00000000000E+00 0.  1.
</event>
<event>
 7    1  0.1290195E-011  0.5930198E+02  0.7816164E-02  0.1266605E+00
        -11   -1    0    0    0    0  0.00000000000E+00  0.00000000000E+00  0.45593999997E+02  0.45594000000E+02  0.51100000000E-03 0. -1.
         11   -1    0    0    0    0 -0.00000000000E+00 -0.00000000000E+00 -0.45593999997E+02  0.45594000000E+02  0.51100000000E-03 0.  1.
    9900012    2    1    2    0    0 -0.28155962157E+02  0.14635400464E+02  0.31248973633E+01  0.59301982135E+02  0.50000069499E+02 0.  0.
        -12    1    1    2    0    0  0.28155962157E+02 -0.14635400464E+02 -0.31248973633E+01  0.31886017865E+02  0.00000000000E+00 0.  1.
         11    1    3    3    0    0 -0.81202417582E+01 -0.73756327481E+00  0.13486129309E+02  0.15759378471E+02  0.51100000000E-03 0. -1.
        -11    1    3    3    0    0 -0.28484997298E+01  0.57720898996E+01 -0.20437262118E+02  0.21426914282E+02  0.51100000000E-03 0.  1.
         12    1    3    3    0    0 -0.17187220669E+02  0.96008738391E+01  0.10076030172E+02  0.22115689382E+02  0.00000000000E+00 0. -1.
</event>
<event>
 7    1  0.1290195E-011  0.5930190E+02  0.7816164E-02  0.1266605E+00
        -11   -1    0    0    0    0  0.00000000000E+00  0.00000000000E+00  0.45593999997E+02  0.45594000000E+02  0.51100000000E-03 0.  1.
         11   -1    0    0    0    0 -0.00000000000E+00 -0.00000000000E+00 -0.45593999997E+02  0.45594000000E+02  0.51100000000E-03 0. -1.
    9900012    2    1    2    0    0  0.35576133946E+00  0.26453927434E+02 -0.17798501032E+02  0.59301898297E+02  0.49999916598E+02 0.  0.
        -12    1    1    2    0    0 -0.35576133946E+00 -0.26453927434E+02  0.17798501032E+02  0.31886101703E+02  0.00000000000E+00 0.  1.
         11    1    3    3    0    0 -0.47867655372E+01  0.46827207660E+01 -0.12165846393E+02  0.13887001721E+02  0.51100000000E-03 0. -1.
        -11    1    3    3    0    0 -0.11141490703E+02  0.29747078770E+01 -0.14929687650E+02  0.18864709794E+02  0.51100000000E-03 0.  1.
         12    1    3    3    0    0  0.16284017580E+02  0.18796498791E+02  0.92970330106E+01  0.26550186782E+02  0.00000000000E+00 0. -1.
</event>
<event>
 7    1  0.1290195E-011  0.5930195E+02  0.7816164E-02  0.1266605E+00
        -11   -1    0    0    0    0  0.00000000000E+00  0.00000000000E+00  0.45593999997E+02  0.45594000000E+02  0.51100000000E-03 0. -1.
         11   -1    0    0    0    0 -0.00000000000E+00 -0.00000000000E+00 -0.45593999997E+02  0.45594000000E+02  0.51100000000E-03 0.  1.
    9900012    2    1    2    0    0 -0.14864383994E+02  0.37809273604E+01  0.27954873794E+02  0.59301948315E+02  0.50000007819E+02 0.  0.
        -12    1    1    2    0    0  0.14864383994E+02 -0.37809273604E+01 -0.27954873794E+02  0.31886051685E+02  0.00000000000E+00 0.  1.
         11    1    3    3    0    0  0.61904689054E+01  0.18842154308E+02  0.18250524315E+02  0.26952371366E+02  0.51100000000E-03 0. -1.
        -11    1    3    3    0    0  0.24321323297E+01  0.17576568928E+00  0.23876495749E+01  0.34127748242E+01  0.51100000000E-03 0.  1.
         12    1    3    3    0    0 -0.23486985229E+02 -0.15236992637E+02  0.73166999041E+01  0.28936802125E+02  0.00000000000E+00 0. -1.
</event>
<event>
 7    1  0.1290195E-011  0.5930195E+02  0.7816164E-02  0.1266605E+00
        -11   -1    0    0    0    0  0.00000000000E+00  0.00000000000E+00  0.45593999997E+02  0.45594000000E+02  0.51100000000E-03 0.  1.
         11   -1    0    0    0    0 -0.00000000000E+00 -0.00000000000E+00 -0.45593999997E+02  0.45594000000E+02  0.51100000000E-03 0. -1.
    9900012    2    1    2    0    0  0.25067717035E+02  0.77240227601E+01 -0.18129229212E+02  0.59301954200E+02  0.50000018552E+02 0.  0.
        -12    1    1    2    0    0 -0.25067717035E+02 -0.77240227601E+01  0.18129229212E+02  0.31886045800E+02  0.00000000000E+00 0.  1.
         11    1    3    3    0    0  0.99385328113E+01  0.55964839648E+01  0.45351690385E+01  0.12274478632E+02  0.51100000000E-03 0. -1.
        -11    1    3    3    0    0  0.16624510568E+02  0.78449100090E+01  0.47475911702E+01  0.18985694269E+02  0.51100000000E-03 0.  1.
         12    1    3    3    0    0 -0.14953263443E+01 -0.57173712137E+01 -0.27411989421E+02  0.28041781300E+02  0.00000000000E+00 0. -1.
</event>
<event>
 7    1  0.1290195E-011  0.5930196E+02  0.7816164E-02  0.1266605E+00
        -11   -1    0    0    0    0  0.00000000000E+00  0.00000000000E+00  0.45593999997E+02  0.45594000000E+02  0.51100000000E-03 0.  1.
         11   -1    0    0    0    0 -0.00000000000E+00 -0.00000000000E+00 -0.45593999997E+02  0.45594000000E+02  0.51100000000E-03 0. -1.
    9900012    2    1    2    0    0 -0.25402007972E+02  0.32491867944E+01 -0.18997373123E+02  0.59301962155E+02  0.50000033061E+02 0.  0.
        -12    1    1    2    0    0  0.25402007972E+02 -0.32491867944E+01  0.18997373123E+02  0.31886037845E+02  0.00000000000E+00 0.  1.
         11    1    3    3    0    0 -0.64473881521E+01 -0.49971159631E+01 -0.27821716980E+02  0.28992894266E+02  0.51100000000E-03 0. -1.
        -11    1    3    3    0    0 -0.21282990203E+02  0.32624529596E+01  0.21183815830E+01  0.21635545107E+02  0.51100000000E-03 0.  1.
        -12    1    3    3    0    0  0.23283703828E+01  0.49838497979E+01  0.67059622736E+01  0.86735227827E+01  0.00000000000E+00 0.  1.
</event>
<event>
 7    1  0.1290195E-011  0.5930194E+02  0.7816164E-02  0.1266605E+00
        -11   -1    0    0    0    0  0.00000000000E+00  0.00000000000E+00  0.45593999997E+02  0.45594000000E+02  0.51100000000E-03 0.  1.
         11   -1    0    0    0    0 -0.00000000000E+00 -0.00000000000E+00 -0.45593999997E+02  0.45594000000E+02  0.51100000000E-03 0. -1.
    9900012    2    1    2    0    0 -0.16197718523E+02 -0.24718428491E+02 -0.11973041893E+02  0.59301944669E+02  0.50000001169E+02 0.  0.
        -12    1    1    2    0    0  0.16197718523E+02  0.24718428491E+02  0.11973041893E+02  0.31886055331E+02  0.00000000000E+00 0.  1.
         11    1    3    3    0    0 -0.38859423256E+01 -0.19442689681E+02 -0.94787311151E+01  0.21976466358E+02  0.51100000000E-03 0. -1.
        -11    1    3    3    0    0  0.10401475560E+02 -0.78525336548E+01  0.38734005085E+01  0.13596183670E+02  0.51100000000E-03 0.  1.
         12    1    3    3    0    0 -0.22713251758E+02  0.25767948450E+01 -0.63677112868E+01  0.23729294640E+02  0.00000000000E+00 0. -1.
</event>
<event>
 7    1  0.1290195E-011  0.5930193E+02  0.7816164E-02  0.1266605E+00
        -11   -1    0    0    0    0  0.00000000000E+00  0.00000000000E+00  0.45593999997E+02  0.45594000000E+02  0.51100000000E-03 0. -1.
         11   -1    0    0    0    0 -0.00000000000E+00 -0.00000000000E+00 -0.45593999997E+02  0.45594000000E+02  0.51100000000E-03 0.  1.
    9900012    2    1    2    0    0  0.22191735389E+02 -0.21627493414E+02 -0.75166459744E+01  0.59301928470E+02  0.49999971626E+02 0.  0.
        -12    1    1    2    0    0 -0.22191735389E+02  0.21627493414E+02  0.75166459744E+01  0.31886071530E+02  0.00000000000E+00 0.  1.
         11    1    3    3    0    0  0.30193467593E+02 -0.11546810754E+02 -0.93416395508E+01  0.33648782350E+02  0.51100000000E-03 0. -1.
        -11    1    3    3    0    0 -0.15844142874E+01 -0.14520572525E+02 -0.48431087787E+01  0.15388732826E+02  0.51100000000E-03 0.  1.
         12    1    3    3    0    0 -0.64173179166E+01  0.44398898647E+01  0.66681023552E+01  0.10264413294E+02  0.00000000000E+00 0. -1.
</event>
<event>
 7    1  0.1290195E-011  0.5930194E+02  0.7816164E-02  0.1266605E+00
        -11   -1    0    0    0    0  0.00000000000E+00  0.00000000000E+00  0.45593999997E+02  0.45594000000E+02  0.51100000000E-03 0. -1.
         11   -1    0    0    0    0 -0.00000000000E+00 -0.00000000000E+00 -0.45593999997E+02  0.45594000000E+02  0.51100000000E-03 0.  1.
    9900012    2    1    2    0    0 -0.90570492292E+01  0.13818669875E+02  0.27271504093E+02  0.59301941709E+02  0.49999995770E+02 0.  0.
        -12    1    1    2    0    0  0.90570492292E+01 -0.13818669875E+02 -0.27271504093E+02  0.31886058291E+02  0.00000000000E+00 0.  1.
         11    1    3    3    0    0 -0.43881080469E+01 -0.77469769197E+01 -0.16757730026E+01  0.90597659486E+01  0.51100000000E-03 0.  1.
        -11    1    3    3    0    0 -0.11217227485E+02  0.21086960324E+02  0.37179403300E+01  0.24172487847E+02  0.51100000000E-03 0. -1.
         12    1    3    3    0    0  0.65482863027E+01  0.47868647068E+00  0.25229336766E+02  0.26069687913E+02  0.00000000000E+00 0. -1.
</event>
<event>
 7    1  0.1290195E-011  0.5930195E+02  0.7816164E-02  0.1266605E+00
        -11   -1    0    0    0    0  0.00000000000E+00  0.00000000000E+00  0.45593999997E+02  0.45594000000E+02  0.51100000000E-03 0.  1.
         11   -1    0    0    0    0 -0.00000000000E+00 -0.00000000000E+00 -0.45593999997E+02  0.45594000000E+02  0.51100000000E-03 0. -1.
    9900012    2    1    2    0    0 -0.96525418192E+01  0.22894535057E+01 -0.30303579292E+02  0.59301951658E+02  0.50000013916E+02 0.  0.
        -12    1    1    2    0    0  0.96525418192E+01 -0.22894535057E+01  0.30303579292E+02  0.31886048342E+02  0.00000000000E+00 0.  1.
         11    1    3    3    0    0 -0.24824796736E+02  0.10061804185E+02 -0.21176756098E+02  0.34146236037E+02  0.51100000000E-03 0. -1.
        -11    1    3    3    0    0  0.35467501488E+01 -0.29754921220E+00 -0.10670642018E+02  0.11248580954E+02  0.51100000000E-03 0.  1.
        -12    1    3    3    0    0  0.11625504768E+02 -0.74748014667E+01  0.15438188230E+01  0.13907134667E+02  0.00000000000E+00 0.  1.
</event>
<event>
 7    1  0.1290195E-011  0.5930193E+02  0.7816164E-02  0.1266605E+00
        -11   -1    0    0    0    0  0.00000000000E+00  0.00000000000E+00  0.45593999997E+02  0.45594000000E+02  0.51100000000E-03 0.  1.
         11   -1    0    0    0    0 -0.00000000000E+00 -0.00000000000E+00 -0.45593999997E+02  0.45594000000E+02  0.51100000000E-03 0. -1.
    9900012    2    1    2    0    0  0.25493078083E+01  0.19517119028E+02 -0.25085942085E+02  0.59301931008E+02  0.49999976255E+02 0.  0.
        -12    1    1    2    0    0 -0.25493078083E+01 -0.19517119028E+02  0.25085942085E+02  0.31886068992E+02  0.00000000000E+00 0.  1.
         11    1    3    3    0    0  0.29137257011E+01 -0.29592218606E+00 -0.31894529022E+02  0.32028711326E+02  0.51100000000E-03 0. -1.
        -11    1    3    3    0    0 -0.56275775512E+01  0.17670159460E+01  0.60655574291E+01  0.84606714648E+01  0.51100000000E-03 0.  1.
        -12    1    3    3    0    0  0.52631596583E+01  0.18046025269E+02  0.74302950827E+00  0.18812548217E+02  0.00000000000E+00 0.  1.
</event>
<event>
 7    1  0.1290195E-011  0.5930190E+02  0.7816164E-02  0.1266605E+00
        -11   -1    0    0    0    0  0.00000000000E+00  0.00000000000E+00  0.45593999997E+02  0.45594000000E+02  0.51100000000E-03 0.  1.
         11   -1    0    0    0    0 -0.00000000000E+00 -0.00000000000E+00 -0.45593999997E+02  0.45594000000E+02  0.51100000000E-03 0. -1.
    9900012    2    1    2    0    0 -0.14788288033E+02  0.77255741911E+01 -0.27172506706E+02  0.59301904594E+02  0.49999928083E+02 0.  0.
        -12    1    1    2    0    0  0.14788288033E+02 -0.77255741911E+01  0.27172506706E+02  0.31886095406E+02  0.00000000000E+00 0.  1.
         11    1    3    3    0    0  0.38392669994E+01  0.61544900431E+01 -0.94008876664E+01  0.11874106617E+02  0.51100000000E-03 0. -1.
        -11    1    3    3    0    0 -0.61553049071E+01  0.20274337175E+02 -0.11407989523E+02  0.24064055178E+02  0.51100000000E-03 0.  1.
        -12    1    3    3    0    0 -0.12472250125E+02 -0.18703253027E+02 -0.63636295163E+01  0.23363742799E+02  0.00000000000E+00 0.  1.
</event>
<event>
 7    1  0.1290195E-011  0.5930196E+02  0.7816164E-02  0.1266605E+00
        -11   -1    0    0    0    0  0.00000000000E+00  0.00000000000E+00  0.45593999997E+02  0.45594000000E+02  0.51100000000E-03 0. -1.
         11   -1    0    0    0    0 -0.00000000000E+00 -0.00000000000E+00 -0.45593999997E+02  0.45594000000E+02  0.51100000000E-03 0.  1.
    9900012    2    1    2    0    0 -0.56728577857E+01  0.25405640719E+02  0.18414437242E+02  0.59301962386E+02  0.50000033481E+02 0.  0.
        -12    1    1    2    0    0  0.56728577857E+01 -0.25405640719E+02 -0.18414437242E+02  0.31886037614E+02  0.00000000000E+00 0.  1.
         11    1    3    3    0    0  0.43985217775E+01  0.15617354903E+01  0.38872278041E+01  0.60742531912E+01  0.51100000000E-03 0. -1.
        -11    1    3    3    0    0 -0.10545453261E+02 -0.41411451970E+01  0.21571625587E+02  0.24365768995E+02  0.51100000000E-03 0.  1.
        -12    1    3    3    0    0  0.47407369764E+00  0.27985050426E+02 -0.70444161490E+01  0.28861940199E+02  0.00000000000E+00 0.  1.
</event>
<event>
 7    1  0.1290195E-011  0.5930194E+02  0.7816164E-02  0.1266605E+00
        -11   -1    0    0    0    0  0.00000000000E+00  0.00000000000E+00  0.45593999997E+02  0.45594000000E+02  0.51100000000E-03 0. -1.
         11   -1    0    0    0    0 -0.00000000000E+00 -0.00000000000E+00 -0.45593999997E+02  0.45594000000E+02  0.51100000000E-03 0.  1.
    9900012    2    1    2    0    0  0.72259597085E+01  0.19843818481E+02  0.23889939595E+02  0.59301939732E+02  0.49999992165E+02 0.  0.
        -12    1    1    2    0    0 -0.72259597085E+01 -0.19843818481E+02 -0.23889939595E+02  0.31886060268E+02  0.00000000000E+00 0.  1.
         11    1    3    3    0    0 -0.72925242697E+01  0.19557398412E+02  0.15896853211E+01  0.20933223415E+02  0.51100000000E-03 0.  1.
        -11    1    3    3    0    0  0.12064368253E+02  0.19324489226E+01  0.28769526368E+02  0.31256503130E+02  0.51100000000E-03 0. -1.
         12    1    3    3    0    0  0.24541157249E+01 -0.16460288534E+01 -0.64692720947E+01  0.71122131867E+01  0.00000000000E+00 0. -1.
</event>
<event>
 7    1  0.1290195E-011  0.5930192E+02  0.7816164E-02  0.1266605E+00
        -11   -1    0    0    0    0  0.00000000000E+00  0.00000000000E+00  0.45593999997E+02  0.45594000000E+02  0.51100000000E-03 0.  1.
         11   -1    0    0    0    0 -0.00000000000E+00 -0.00000000000E+00 -0.45593999997E+02  0.45594000000E+02  0.51100000000E-03 0. -1.
    9900012    2    1    2    0    0 -0.32410771733E+01 -0.18569292076E+02 -0.25717676113E+02  0.59301920685E+02  0.49999957428E+02 0.  0.
        -12    1    1    2    0    0  0.32410771733E+01  0.18569292076E+02  0.25717676113E+02  0.31886079315E+02  0.00000000000E+00 0.  1.
         11    1    3    3    0    0 -0.27538613780E+01  0.30320421457E+01 -0.34486490671E+01  0.53544572752E+01  0.51100000000E-03 0. -1.
        -11    1    3    3    0    0  0.49238557915E+01  0.12175704597E+02 -0.69267999538E-02  0.13133628079E+02  0.51100000000E-03 0.  1.
        -12    1    3    3    0    0 -0.54110715868E+01 -0.33777038818E+02 -0.22262100246E+02  0.40813835331E+02  0.00000000000E+00 0.  1.
</event>
<event>
 7    1  0.1290195E-011  0.5930194E+02  0.7816164E-02  0.1266605E+00
        -11   -1    0    0    0    0  0.00000000000E+00  0.00000000000E+00  0.45593999997E+02  0.45594000000E+02  0.51100000000E-03 0.  1.
         11   -1    0    0    0    0 -0.00000000000E+00 -0.00000000000E+00 -0.45593999997E+02  0.45594000000E+02  0.51100000000E-03 0. -1.
    9900012    2    1    2    0    0  0.21494392957E+02 -0.20326893416E+02 -0.11896616078E+02  0.59301937235E+02  0.49999987612E+02 0.  0.
        -12    1    1    2    0    0 -0.21494392957E+02  0.20326893416E+02  0.11896616078E+02  0.31886062765E+02  0.00000000000E+00 0.  1.
         11    1    3    3    0    0  0.34386414518E+01 -0.18871254182E+00  0.10071583018E+01  0.35880685004E+01  0.51100000000E-03 0. -1.
        -11    1    3    3    0    0  0.15535238155E+02 -0.11391820129E+02  0.16230873145E+02  0.25190443301E+02  0.51100000000E-03 0.  1.
        -12    1    3    3    0    0  0.25205133502E+01 -0.87463607450E+01 -0.29134647525E+02  0.30523425434E+02  0.00000000000E+00 0.  1.
</event>
<event>
 7    1  0.1290195E-011  0.5930194E+02  0.7816164E-02  0.1266605E+00
        -11   -1    0    0    0    0  0.00000000000E+00  0.00000000000E+00  0.45593999997E+02  0.45594000000E+02  0.51100000000E-03 0.  1.
         11   -1    0    0    0    0 -0.00000000000E+00 -0.00000000000E+00 -0.45593999997E+02  0.45594000000E+02  0.51100000000E-03 0. -1.
    9900012    2    1    2    0    0 -0.83892843299E+01  0.27913696701E+02 -0.12929276776E+02  0.59301941086E+02  0.49999994635E+02 0.  0.
        -12    1    1    2    0    0  0.83892843299E+01 -0.27913696701E+02  0.12929276776E+02  0.31886058914E+02  0.00000000000E+00 0.  1.
         11    1    3    3    0    0  0.58261772678E+01  0.40305997229E+01  0.17011105868E+02  0.18427365487E+02  0.51100000000E-03 0.  1.
        -11    1    3    3    0    0 -0.24692123623E+01  0.48503965427E+01 -0.64558725075E+01  0.84440302229E+01  0.51100000000E-03 0. -1.
        -12    1    3    3    0    0 -0.11746249235E+02  0.19032700436E+02 -0.23484510137E+02  0.32430545376E+02  0.00000000000E+00 0.  1.
</event>
<event>
 7    1  0.1290195E-011  0.5930198E+02  0.7816164E-02  0.1266605E+00
        -11   -1    0    0    0    0  0.00000000000E+00  0.00000000000E+00  0.45593999997E+02  0.45594000000E+02  0.51100000000E-03 0. -1.
         11   -1    0    0    0    0 -0.00000000000E+00 -0.00000000000E+00 -0.45593999997E+02  0.45594000000E+02  0.51100000000E-03 0.  1.
    9900012    2    1    2    0    0 -0.21118534672E+01 -0.33828209079E+01  0.31635662971E+02  0.59301975256E+02  0.50000056953E+02 0.  0.
        -12    1    1    2    0    0  0.21118534672E+01  0.33828209079E+01 -0.31635662971E+02  0.31886024744E+02  0.00000000000E+00 0.  1.
         11    1    3    3    0    0  0.91960444917E+01 -0.45596242821E+01 -0.32299724892E+01  0.10760582253E+02  0.51100000000E-03 0. -1.
        -11    1    3    3    0    0  0.10845087747E+02  0.34063600572E+01  0.13929979657E+02  0.17979531434E+02  0.51100000000E-03 0.  1.
        -12    1    3    3    0    0 -0.22152985706E+02 -0.22295566829E+01  0.20935655803E+02  0.30561861569E+02  0.00000000000E+00 0.  1.
</event>
<event>
 7    1  0.1290195E-011  0.5930190E+02  0.7816164E-02  0.1266605E+00
        -11   -1    0    0    0    0  0.00000000000E+00  0.00000000000E+00  0.45593999997E+02  0.45594000000E+02  0.51100000000E-03 0.  1.
         11   -1    0    0    0    0 -0.00000000000E+00 -0.00000000000E+00 -0.45593999997E+02  0.45594000000E+02  0.51100000000E-03 0. -1.
    9900012    2    1    2    0    0  0.12672817545E+02 -0.12107298521E+01 -0.29234515524E+02  0.59301904767E+02  0.49999928398E+02 0.  0.
        -12    1    1    2    0    0 -0.12672817545E+02  0.12107298521E+01  0.29234515524E+02  0.31886095233E+02  0.00000000000E+00 0.  1.
         11    1    3    3    0    0  0.59047167954E+01 -0.18005423235E+02 -0.51631675838E+01  0.19639736405E+02  0.51100000000E-03 0. -1.
        -11    1    3    3    0    0  0.29216392887E+01  0.77011793283E+01  0.45329896526E+01  0.94017091335E+01  0.51100000000E-03 0.  1.
         12    1    3    3    0    0  0.38464614605E+01  0.90935140544E+01 -0.28604337593E+02  0.30260459229E+02  0.00000000000E+00 0. -1.
</event>
<event>
 7    1  0.1290195E-011  0.5930195E+02  0.7816164E-02  0.1266605E+00
        -11   -1    0    0    0    0  0.00000000000E+00  0.00000000000E+00  0.45593999997E+02  0.45594000000E+02  0.51100000000E-03 0.  1.
         11   -1    0    0    0    0 -0.00000000000E+00 -0.00000000000E+00 -0.45593999997E+02  0.45594000000E+02  0.51100000000E-03 0. -1.
    9900012    2    1    2    0    0  0.25162709704E+02  0.38362683418E+01 -0.19205245717E+02  0.59301946975E+02  0.50000005376E+02 0.  0.
        -12    1    1    2    0    0 -0.25162709704E+02 -0.38362683418E+01  0.19205245717E+02  0.31886053025E+02  0.00000000000E+00 0.  1.
         11    1    3    3    0    0  0.56484707683E+00  0.10810478514E+02 -0.63462928738E+00  0.10843811715E+02  0.51100000000E-03 0. -1.
        -11    1    3    3    0    0  0.24320245842E+01 -0.28571747427E+01  0.10799517806E+02  0.11432750159E+02  0.51100000000E-03 0.  1.
         12    1    3    3    0    0  0.22165838043E+02 -0.41170354293E+01 -0.29370134236E+02  0.37025385101E+02  0.00000000000E+00 0. -1.
</event>
<event>
 7    1  0.1290195E-011  0.5930194E+02  0.7816164E-02  0.1266605E+00
        -11   -1    0    0    0    0  0.00000000000E+00  0.00000000000E+00  0.45593999997E+02  0.45594000000E+02  0.51100000000E-03 0.  1.
         11   -1    0    0    0    0 -0.00000000000E+00 -0.00000000000E+00 -0.45593999997E+02  0.45594000000E+02  0.51100000000E-03 0. -1.
    9900012    2    1    2    0    0  0.25348096012E+02 -0.16287939857E+02 -0.10435421057E+02  0.59301937703E+02  0.49999988465E+02 0.  0.
        -12    1    1    2    0    0 -0.25348096012E+02  0.16287939857E+02  0.10435421057E+02  0.31886062297E+02  0.00000000000E+00 0.  1.
         11    1    3    3    0    0  0.85183344648E+01 -0.29857845664E+02 -0.14759433130E+01  0.31084262556E+02  0.51100000000E-03 0. -1.
        -11    1    3    3    0    0  0.30617584197E+00  0.25817350159E+01 -0.79323177840E+01  0.83475005257E+01  0.51100000000E-03 0.  1.
        -12    1    3    3    0    0  0.16523585705E+02  0.10988170791E+02 -0.10271599599E+01  0.19870174621E+02  0.00000000000E+00 0.  1.
</event>
<event>
 7    1  0.1290195E-011  0.5930195E+02  0.7816164E-02  0.1266605E+00
        -11   -1    0    0    0    0  0.00000000000E+00  0.00000000000E+00  0.45593999997E+02  0.45594000000E+02  0.51100000000E-03 0. -1.
         11   -1    0    0    0    0 -0.00000000000E+00 -0.00000000000E+00 -0.45593999997E+02  0.45594000000E+02  0.51100000000E-03 0.  1.
    9900012    2    1    2    0    0 -0.21723125712E+02 -0.59149914271E+01  0.22579617779E+02  0.59301945786E+02  0.50000003207E+02 0.  0.
        -12    1    1    2    0    0  0.21723125712E+02  0.59149914271E+01 -0.22579617779E+02  0.31886054214E+02  0.00000000000E+00 0.  1.
         11    1    3    3    0    0  0.40635361163E+01  0.11284488538E+02  0.10263824843E+02  0.15786009882E+02  0.51100000000E-03 0. -1.
        -11    1    3    3    0    0 -0.26161473686E+02 -0.82985970157E+01  0.18115579864E+02  0.32885614666E+02  0.51100000000E-03 0.  1.
        -12    1    3    3    0    0  0.37481185821E+00 -0.89008829499E+01 -0.57997869278E+01  0.10630321238E+02  0.00000000000E+00 0.  1.
</event>
<event>
 7    1  0.1290195E-011  0.5930202E+02  0.7816164E-02  0.1266605E+00
        -11   -1    0    0    0    0  0.00000000000E+00  0.00000000000E+00  0.45593999997E+02  0.45594000000E+02  0.51100000000E-03 0.  1.
         11   -1    0    0    0    0 -0.00000000000E+00 -0.00000000000E+00 -0.45593999997E+02  0.45594000000E+02  0.51100000000E-03 0. -1.
    9900012    2    1    2    0    0  0.10909562950E+02  0.24042862603E+01 -0.29864973251E+02  0.59302019014E+02  0.50000136756E+02 0.  0.
        -12    1    1    2    0    0 -0.10909562950E+02 -0.24042862603E+01  0.29864973251E+02  0.31885980986E+02  0.00000000000E+00 0.  1.
         11    1    3    3    0    0  0.18461723374E+01 -0.87345982202E+01  0.77719261650E+01  0.11836570236E+02  0.51100000000E-03 0. -1.
        -11    1    3    3    0    0  0.11551384877E+02 -0.49562053806E+01 -0.14826767934E+02  0.19437888569E+02  0.51100000000E-03 0.  1.
         12    1    3    3    0    0 -0.24879942647E+01  0.16095089861E+02 -0.22810131481E+02  0.28027560210E+02  0.00000000000E+00 0. -1.
</event>
<event>
 7    1  0.1290195E-011  0.5930195E+02  0.7816164E-02  0.1266605E+00
        -11   -1    0    0    0    0  0.00000000000E+00  0.00000000000E+00  0.45593999997E+02  0.45594000000E+02  0.51100000000E-03 0.  1.
         11   -1    0    0    0    0 -0.00000000000E+00 -0.00000000000E+00 -0.45593999997E+02  0.45594000000E+02  0.51100000000E-03 0. -1.
    9900012    2    1    2    0    0 -0.21982844383E+01 -0.19958212792E+02 -0.24770087881E+02  0.59301953428E+02  0.50000017144E+02 0.  0.
        -12    1    1    2    0    0  0.21982844383E+01  0.19958212792E+02  0.24770087881E+02  0.31886046572E+02  0.00000000000E+00 0.  1.
         11    1    3    3    0    0  0.54295340426E+01 -0.97010772900E+00 -0.55951274342E+01  0.78566150594E+01  0.51100000000E-03 0. -1.
        -11    1    3    3    0    0  0.12260482056E+02 -0.48861364306E+01  0.76026776636E+01  0.15231364265E+02  0.51100000000E-03 0.  1.
         12    1    3    3    0    0 -0.19888300537E+02 -0.14101968633E+02 -0.26777638111E+02  0.36213974103E+02  0.00000000000E+00 0. -1.
</event>
<event>
 7    1  0.1290195E-011  0.5930194E+02  0.7816164E-02  0.1266605E+00
        -11   -1    0    0    0    0  0.00000000000E+00  0.00000000000E+00  0.45593999997E+02  0.45594000000E+02  0.51100000000E-03 0. -1.
         11   -1    0    0    0    0 -0.00000000000E+00 -0.00000000000E+00 -0.45593999997E+02  0.45594000000E+02  0.51100000000E-03 0.  1.
    9900012    2    1    2    0    0 -0.21568418602E+02 -0.23449647781E+02  0.12798634024E+01  0.59301941724E+02  0.49999995799E+02 0.  0.
        -12    1    1    2    0    0  0.21568418602E+02  0.23449647781E+02 -0.12798634024E+01  0.31886058276E+02  0.00000000000E+00 0.  1.
         11    1    3    3    0    0 -0.57578594817E+00  0.44949679164E+01  0.46109329511E+01  0.64650575379E+01  0.51100000000E-03 0. -1.
        -11    1    3    3    0    0 -0.32437456160E+02 -0.21420612858E+02  0.12425189929E+01  0.38891838103E+02  0.51100000000E-03 0.  1.
         12    1    3    3    0    0  0.11444823506E+02 -0.65240028386E+01 -0.45735885416E+01  0.13945046083E+02  0.00000000000E+00 0. -1.
</event>
<event>
 7    1  0.1290195E-011  0.5930192E+02  0.7816164E-02  0.1266605E+00
        -11   -1    0    0    0    0  0.00000000000E+00  0.00000000000E+00  0.45593999997E+02  0.45594000000E+02  0.51100000000E-03 0. -1.
         11   -1    0    0    0    0 -0.00000000000E+00 -0.00000000000E+00 -0.45593999997E+02  0.45594000000E+02  0.51100000000E-03 0.  1.
    9900012    2    1    2    0    0  0.29024984891E+01  0.12280330451E+02  0.29282943707E+02  0.59301924581E+02  0.49999964533E+02 0.  0.
        -12    1    1    2    0    0 -0.29024984891E+01 -0.12280330451E+02 -0.29282943707E+02  0.31886075419E+02  0.00000000000E+00 0.  1.
         11    1    3    3    0    0  0.16865491291E+02  0.14738641256E+02  0.25719942351E+02  0.34105538808E+02  0.51100000000E-03 0. -1.
        -11    1    3    3    0    0 -0.48537456489E+01  0.40134836240E+00 -0.85095717164E+01  0.98047304088E+01  0.51100000000E-03 0.  1.
        -12    1    3    3    0    0 -0.91092471531E+01 -0.28596591674E+01  0.12072573073E+02  0.15391655364E+02  0.00000000000E+00 0.  1.
</event>
<event>
 7    1  0.1290195E-011  0.5930197E+02  0.7816164E-02  0.1266605E+00
        -11   -1    0    0    0    0  0.00000000000E+00  0.00000000000E+00  0.45593999997E+02  0.45594000000E+02  0.51100000000E-03 0.  1.
         11   -1    0    0    0    0 -0.00000000000E+00 -0.00000000000E+00 -0.45593999997E+02  0.45594000000E+02  0.51100000000E-03 0. -1.
    9900012    2    1    2    0    0 -0.10290116371E+02 -0.18358285547E+02 -0.23954242813E+02  0.59301970270E+02  0.50000047860E+02 0.  0.
        -12    1    1    2    0    0  0.10290116371E+02  0.18358285547E+02  0.23954242813E+02  0.31886029730E+02  0.00000000000E+00 0.  1.
         11    1    3    3    0    0 -0.15036374747E+01  0.96095864905E+01 -0.12702135992E+02  0.15998416709E+02  0.51100000000E-03 0. -1.
        -11    1    3    3    0    0  0.85237134337E+01 -0.48927201863E+01  0.40735210414E+01  0.10638889766E+02  0.51100000000E-03 0.  1.
         12    1    3    3    0    0 -0.17310192330E+02 -0.23075151851E+02 -0.15325627863E+02  0.32664663795E+02  0.00000000000E+00 0. -1.
</event>
<event>
 7    1  0.1290195E-011  0.5930196E+02  0.7816164E-02  0.1266605E+00
        -11   -1    0    0    0    0  0.00000000000E+00  0.00000000000E+00  0.45593999997E+02  0.45594000000E+02  0.51100000000E-03 0. -1.
         11   -1    0    0    0    0 -0.00000000000E+00 -0.00000000000E+00 -0.45593999997E+02  0.45594000000E+02  0.51100000000E-03 0.  1.
    9900012    2    1    2    0    0  0.86166289873E+01  0.85678507282E+01  0.29479910033E+02  0.59301961413E+02  0.50000031707E+02 0.  0.
        -12    1    1    2    0    0 -0.86166289873E+01 -0.85678507282E+01 -0.29479910033E+02  0.31886038587E+02  0.00000000000E+00 0.  1.
         11    1    3    3    0    0  0.13139667130E-01 -0.26110651891E+01  0.10746034079E+02  0.11058710718E+02  0.51100000000E-03 0. -1.
        -11    1    3    3    0    0 -0.98870539908E+01  0.62972535261E+01  0.25413096425E+02  0.27986330748E+02  0.51100000000E-03 0.  1.
         12    1    3    3    0    0  0.18490543311E+02  0.48816623912E+01 -0.66792204700E+01  0.20256919947E+02  0.00000000000E+00 0. -1.
</event>
<event>
 7    1  0.1290195E-011  0.5930194E+02  0.7816164E-02  0.1266605E+00
        -11   -1    0    0    0    0  0.00000000000E+00  0.00000000000E+00  0.45593999997E+02  0.45594000000E+02  0.51100000000E-03 0.  1.
         11   -1    0    0    0    0 -0.00000000000E+00 -0.00000000000E+00 -0.45593999997E+02  0.45594000000E+02  0.51100000000E-03 0. -1.
    9900012    2    1    2    0    0  0.23177142665E+02  0.10227922095E+02 -0.19363125256E+02  0.59301937964E+02  0.49999988941E+02 0.  0.
        -12    1    1    2    0    0 -0.23177142665E+02 -0.10227922095E+02  0.19363125256E+02  0.31886062036E+02  0.00000000000E+00 0.  1.
         11    1    3    3    0    0  0.11832434691E+02 -0.73013203381E+00  0.81341674764E+01  0.14377214066E+02  0.51100000000E-03 0. -1.
        -11    1    3    3    0    0  0.97040482172E+01  0.13815959724E+02  0.34615027388E+00  0.16886951032E+02  0.51100000000E-03 0.  1.
         12    1    3    3    0    0  0.16406597568E+01 -0.28579055949E+01 -0.27843443006E+02  0.28037772865E+02  0.00000000000E+00 0. -1.
</event>
<event>
 7    1  0.1290195E-011  0.5930194E+02  0.7816164E-02  0.1266605E+00
        -11   -1    0    0    0    0  0.00000000000E+00  0.00000000000E+00  0.45593999997E+02  0.45594000000E+02  0.51100000000E-03 0.  1.
         11   -1    0    0    0    0 -0.00000000000E+00 -0.00000000000E+00 -0.45593999997E+02  0.45594000000E+02  0.51100000000E-03 0. -1.
    9900012    2    1    2    0    0 -0.10281124570E+02  0.28243745449E+02  0.10644709755E+02  0.59301944660E+02  0.50000001153E+02 0.  0.
        -12    1    1    2    0    0  0.10281124570E+02 -0.28243745449E+02 -0.10644709755E+02  0.31886055340E+02  0.00000000000E+00 0.  1.
         11    1    3    3    0    0 -0.11645225583E+02  0.59220748443E+01 -0.69404675660E+01  0.14793658765E+02  0.51100000000E-03 0. -1.
        -11    1    3    3    0    0 -0.10947304904E+02  0.67853984072E+01  0.20761989432E+02  0.24432464502E+02  0.51100000000E-03 0.  1.
        -12    1    3    3    0    0  0.12311405917E+02  0.15536272197E+02 -0.31768121109E+01  0.20075821394E+02  0.00000000000E+00 0.  1.
</event>
<event>
 7    1  0.1290195E-011  0.5930199E+02  0.7816164E-02  0.1266605E+00
        -11   -1    0    0    0    0  0.00000000000E+00  0.00000000000E+00  0.45593999997E+02  0.45594000000E+02  0.51100000000E-03 0. -1.
         11   -1    0    0    0    0 -0.00000000000E+00 -0.00000000000E+00 -0.45593999997E+02  0.45594000000E+02  0.51100000000E-03 0.  1.
    9900012    2    1    2    0    0 -0.10913828640E+02  0.12222378440E+02  0.27353597965E+02  0.59301991910E+02  0.50000087325E+02 0.  0.
        -12    1    1    2    0    0  0.10913828640E+02 -0.12222378440E+02 -0.27353597965E+02  0.31886008090E+02  0.00000000000E+00 0.  1.
         11    1    3    3    0    0 -0.68276086002E+01  0.30288314722E+02  0.16616462274E+02  0.35215125538E+02  0.51100000000E-03 0. -1.
        -11    1    3    3    0    0  0.27925349933E+01 -0.84996815432E+01  0.14051299198E+01  0.90563363662E+01  0.51100000000E-03 0.  1.
        -12    1    3    3    0    0 -0.68787550334E+01 -0.95662547384E+01  0.93320057704E+01  0.15030530005E+02  0.00000000000E+00 0.  1.
</event>
<event>
 7    1  0.1290195E-011  0.5930193E+02  0.7816164E-02  0.1266605E+00
        -11   -1    0    0    0    0  0.00000000000E+00  0.00000000000E+00  0.45593999997E+02  0.45594000000E+02  0.51100000000E-03 0. -1.
         11   -1    0    0    0    0 -0.00000000000E+00 -0.00000000000E+00 -0.45593999997E+02  0.45594000000E+02  0.51100000000E-03 0.  1.
    9900012    2    1    2    0    0  0.94991610269E+01  0.22149873502E+02  0.20877516168E+02  0.59301927214E+02  0.49999969335E+02 0.  0.
        -12    1    1    2    0    0 -0.94991610269E+01 -0.22149873502E+02 -0.20877516168E+02  0.31886072786E+02  0.00000000000E+00 0.  1.
         11    1    3    3    0    0 -0.41806895897E+01  0.45163799529E+00 -0.66963838729E+01  0.79071929001E+01  0.51100000000E-03 0. -1.
        -11    1    3    3    0    0 -0.11718932444E+02  0.44126535950E+01  0.62368348350E+01  0.13989388779E+02  0.51100000000E-03 0.  1.
         12    1    3    3    0    0  0.25398783061E+02  0.17285581912E+02  0.21337065206E+02  0.37405345535E+02  0.00000000000E+00 0. -1.
</event>
<event>
 7    1  0.1290195E-011  0.5930194E+02  0.7816164E-02  0.1266605E+00
        -11   -1    0    0    0    0  0.00000000000E+00  0.00000000000E+00  0.45593999997E+02  0.45594000000E+02  0.51100000000E-03 0.  1.
         11   -1    0    0    0    0 -0.00000000000E+00 -0.00000000000E+00 -0.45593999997E+02  0.45594000000E+02  0.51100000000E-03 0. -1.
    9900012    2    1    2    0    0 -0.21736028150E+02  0.89259669825E+01 -0.21554416597E+02  0.59301942214E+02  0.49999996692E+02 0.  0.
        -12    1    1    2    0    0  0.21736028150E+02 -0.89259669825E+01  0.21554416597E+02  0.31886057786E+02  0.00000000000E+00 0.  1.
         11    1    3    3    0    0 -0.11295137326E+02 -0.98164819279E+00  0.13456467863E+02  0.17596030461E+02  0.51100000000E-03 0. -1.
        -11    1    3    3    0    0  0.13801659938E+01 -0.17906382710E+01  0.65444898951E+00  0.23536242965E+01  0.51100000000E-03 0.  1.
         12    1    3    3    0    0 -0.11821056818E+02  0.11698253446E+02 -0.35665333449E+02  0.39352287456E+02  0.00000000000E+00 0. -1.
</event>
<event>
 7    1  0.1290195E-011  0.5930185E+02  0.7816164E-02  0.1266605E+00
        -11   -1    0    0    0    0  0.00000000000E+00  0.00000000000E+00  0.45593999997E+02  0.45594000000E+02  0.51100000000E-03 0.  1.
         11   -1    0    0    0    0 -0.00000000000E+00 -0.00000000000E+00 -0.45593999997E+02  0.45594000000E+02  0.51100000000E-03 0. -1.
    9900012    2    1    2    0    0  0.43594726110E+01 -0.73745030893E+01 -0.30713814672E+02  0.59301847693E+02  0.49999824308E+02 0.  0.
        -12    1    1    2    0    0 -0.43594726110E+01  0.73745030893E+01  0.30713814672E+02  0.31886152307E+02  0.00000000000E+00 0.  1.
         11    1    3    3    0    0 -0.60102472731E+00  0.74346360660E+01 -0.25211314615E+02  0.26291546722E+02  0.51100000000E-03 0.  1.
        -11    1    3    3    0    0  0.12455561628E+02  0.29895482397E+01 -0.48189859346E+01  0.13685797012E+02  0.51100000000E-03 0. -1.
         12    1    3    3    0    0 -0.74950642897E+01 -0.17798687395E+02 -0.68351412218E+00  0.19324503959E+02  0.00000000000E+00 0. -1.
</event>
<event>
 7    1  0.1290195E-011  0.5930191E+02  0.7816164E-02  0.1266605E+00
        -11   -1    0    0    0    0  0.00000000000E+00  0.00000000000E+00  0.45593999997E+02  0.45594000000E+02  0.51100000000E-03 0.  1.
         11   -1    0    0    0    0 -0.00000000000E+00 -0.00000000000E+00 -0.45593999997E+02  0.45594000000E+02  0.51100000000E-03 0. -1.
    9900012    2    1    2    0    0 -0.17884447221E+02 -0.12516095442E+02 -0.23242564364E+02  0.59301907487E+02  0.49999933359E+02 0.  0.
        -12    1    1    2    0    0  0.17884447221E+02  0.12516095442E+02  0.23242564364E+02  0.31886092513E+02  0.00000000000E+00 0.  1.
         11    1    3    3    0    0 -0.46644169068E+01 -0.44227842749E+01  0.16068943209E+01  0.66257011283E+01  0.51100000000E-03 0. -1.
        -11    1    3    3    0    0 -0.15400318344E+02 -0.27380286656E+01  0.91949667225E+01  0.18144255823E+02  0.51100000000E-03 0.  1.
         12    1    3    3    0    0  0.21802880297E+01 -0.53552825019E+01 -0.34044425407E+02  0.34531950537E+02  0.00000000000E+00 0. -1.
</event>
<event>
 7    1  0.1290195E-011  0.5930194E+02  0.7816164E-02  0.1266605E+00
        -11   -1    0    0    0    0  0.00000000000E+00  0.00000000000E+00  0.45593999997E+02  0.45594000000E+02  0.51100000000E-03 0. -1.
         11   -1    0    0    0    0 -0.00000000000E+00 -0.00000000000E+00 -0.45593999997E+02  0.45594000000E+02  0.51100000000E-03 0.  1.
    9900012    2    1    2    0    0 -0.18115485561E+02 -0.12401735406E+02  0.23124598093E+02  0.59301938858E+02  0.49999990571E+02 0.  0.
        -12    1    1    2    0    0  0.18115485561E+02  0.12401735406E+02 -0.23124598093E+02  0.31886061142E+02  0.00000000000E+00 0.  1.
         11    1    3    3    0    0 -0.27733930351E+02 -0.10805047916E+02  0.31552846366E+02  0.43376284618E+02  0.51100000000E-03 0. -1.
        -11    1    3    3    0    0 -0.14472864856E+01  0.39657739484E+00  0.48546807649E+00  0.15772099784E+01  0.51100000000E-03 0.  1.
        -12    1    3    3    0    0  0.11065731276E+02 -0.19932648847E+01 -0.89137163492E+01  0.14348444261E+02  0.00000000000E+00 0.  1.
</event>
<event>
 7    1  0.1290195E-011  0.5930196E+02  0.7816164E-02  0.1266605E+00
        -11   -1    0    0    0    0  0.00000000000E+00  0.00000000000E+00  0.45593999997E+02  0.45594000000E+02  0.51100000000E-03 0. -1.
         11   -1    0    0    0    0 -0.00000000000E+00 -0.00000000000E+00 -0.45593999997E+02  0.45594000000E+02  0.51100000000E-03 0.  1.
    9900012    2    1    2    0    0  0.90155930938E+01 -0.29840107581E+02  0.67086830186E+01  0.59301962818E+02  0.50000034270E+02 0.  0.
        -12    1    1    2    0    0 -0.90155930938E+01  0.29840107581E+02 -0.67086830186E+01  0.31886037182E+02  0.00000000000E+00 0.  1.
         11    1    3    3    0    0 -0.53524492123E+01 -0.28264337249E+02  0.58881967804E+00  0.28772698546E+02  0.51100000000E-03 0. -1.
        -11    1    3    3    0    0  0.52894590972E+01 -0.97893996529E+01 -0.65492382033E+01  0.12911361060E+02  0.51100000000E-03 0.  1.
        -12    1    3    3    0    0  0.90785832089E+01  0.82136293210E+01  0.12669101544E+02  0.17617903213E+02  0.00000000000E+00 0.  1.
</event>
<event>
 7    1  0.1290195E-011  0.5930194E+02  0.7816164E-02  0.1266605E+00
        -11   -1    0    0    0    0  0.00000000000E+00  0.00000000000E+00  0.45593999997E+02  0.45594000000E+02  0.51100000000E-03 0. -1.
         11   -1    0    0    0    0 -0.00000000000E+00 -0.00000000000E+00 -0.45593999997E+02  0.45594000000E+02  0.51100000000E-03 0.  1.
    9900012    2    1    2    0    0 -0.71064619793E+00 -0.20642510702E+01  0.31811237050E+02  0.59301937948E+02  0.49999988912E+02 0.  0.
        -12    1    1    2    0    0  0.71064619793E+00  0.20642510702E+01 -0.31811237050E+02  0.31886062052E+02  0.00000000000E+00 0.  1.
         11    1    3    3    0    0  0.36237051959E+01  0.42699914871E+00  0.29631136344E+02  0.29854946138E+02  0.51100000000E-03 0. -1.
        -11    1    3    3    0    0  0.27329824367E+01 -0.13807171750E+02  0.63890410263E+01  0.15457264643E+02  0.51100000000E-03 0.  1.
        -12    1    3    3    0    0 -0.70673338305E+01  0.11315921532E+02 -0.42089403202E+01  0.13989727167E+02  0.00000000000E+00 0.  1.
</event>
<event>
 7    1  0.1290195E-011  0.5930193E+02  0.7816164E-02  0.1266605E+00
        -11   -1    0    0    0    0  0.00000000000E+00  0.00000000000E+00  0.45593999997E+02  0.45594000000E+02  0.51100000000E-03 0.  1.
         11   -1    0    0    0    0 -0.00000000000E+00 -0.00000000000E+00 -0.45593999997E+02  0.45594000000E+02  0.51100000000E-03 0. -1.
    9900012    2    1    2    0    0  0.19754493854E+02 -0.20514473647E+02 -0.14340079312E+02  0.59301928886E+02  0.49999972384E+02 0.  0.
        -12    1    1    2    0    0 -0.19754493854E+02  0.20514473647E+02  0.14340079312E+02  0.31886071114E+02  0.00000000000E+00 0.  1.
         11    1    3    3    0    0  0.18376021006E+02 -0.33965701577E+01 -0.20863511971E+02  0.28008944444E+02  0.51100000000E-03 0. -1.
        -11    1    3    3    0    0  0.56320467919E+01  0.10680214297E+01  0.10714670683E+02  0.12151740161E+02  0.51100000000E-03 0.  1.
        -12    1    3    3    0    0 -0.42535739434E+01 -0.18185924919E+02 -0.41912380248E+01  0.19141244281E+02  0.00000000000E+00 0.  1.
</event>
<event>
 7    1  0.1290195E-011  0.5930195E+02  0.7816164E-02  0.1266605E+00
        -11   -1    0    0    0    0  0.00000000000E+00  0.00000000000E+00  0.45593999997E+02  0.45594000000E+02  0.51100000000E-03 0.  1.
         11   -1    0    0    0    0 -0.00000000000E+00 -0.00000000000E+00 -0.45593999997E+02  0.45594000000E+02  0.51100000000E-03 0. -1.
    9900012    2    1    2    0    0 -0.19847482680E+02 -0.17526632289E+02 -0.17765554911E+02  0.59301947416E+02  0.50000006179E+02 0.  0.
        -12    1    1    2    0    0  0.19847482680E+02  0.17526632289E+02  0.17765554911E+02  0.31886052584E+02  0.00000000000E+00 0.  1.
         11    1    3    3    0    0  0.65720828669E+01 -0.13756337210E+01 -0.28136407193E+01  0.72801933836E+01  0.51100000000E-03 0. -1.
        -11    1    3    3    0    0  0.93264520754E+01  0.14745835331E+01 -0.59561866876E+01  0.11163926954E+02  0.51100000000E-03 0.  1.
         12    1    3    3    0    0 -0.35746017622E+02 -0.17625582101E+02 -0.89957275038E+01  0.40857827078E+02  0.00000000000E+00 0. -1.
</event>
<event>
 7    1  0.1290195E-011  0.5930195E+02  0.7816164E-02  0.1266605E+00
        -11   -1    0    0    0    0  0.00000000000E+00  0.00000000000E+00  0.45593999997E+02  0.45594000000E+02  0.51100000000E-03 0. -1.
         11   -1    0    0    0    0 -0.00000000000E+00 -0.00000000000E+00 -0.45593999997E+02  0.45594000000E+02  0.51100000000E-03 0.  1.
    9900012    2    1    2    0    0  0.30063825655E+02  0.99526120023E+01  0.37191103833E+01  0.59301954765E+02  0.50000019583E+02 0.  0.
        -12    1    1    2    0    0 -0.30063825655E+02 -0.99526120023E+01 -0.37191103833E+01  0.31886045235E+02  0.00000000000E+00 0.  1.
         11    1    3    3    0    0  0.88993023878E+01 -0.31979961644E+00 -0.55349687850E+01  0.10485024296E+02  0.51100000000E-03 0. -1.
        -11    1    3    3    0    0 -0.40202452368E+01  0.20092949513E+02  0.71524474232E+01  0.21703605606E+02  0.51100000000E-03 0.  1.
         12    1    3    3    0    0  0.25184768504E+02 -0.98205378943E+01  0.21016317450E+01  0.27113324863E+02  0.00000000000E+00 0. -1.
</event>
<event>
 7    1  0.1290195E-011  0.5930194E+02  0.7816164E-02  0.1266605E+00
        -11   -1    0    0    0    0  0.00000000000E+00  0.00000000000E+00  0.45593999997E+02  0.45594000000E+02  0.51100000000E-03 0.  1.
         11   -1    0    0    0    0 -0.00000000000E+00 -0.00000000000E+00 -0.45593999997E+02  0.45594000000E+02  0.51100000000E-03 0. -1.
    9900012    2    1    2    0    0  0.31305944985E+02 -0.59688773416E+01  0.10153080172E+01  0.59301944451E+02  0.50000000771E+02 0.  0.
        -12    1    1    2    0    0 -0.31305944985E+02  0.59688773416E+01 -0.10153080172E+01  0.31886055549E+02  0.00000000000E+00 0.  1.
         11    1    3    3    0    0 -0.33036897294E+01 -0.62680994666E+01  0.10758156739E+02  0.12881823374E+02  0.51100000000E-03 0. -1.
        -11    1    3    3    0    0 -0.39287283335E+01  0.50836621677E+01 -0.18732198893E+00  0.64275669691E+01  0.51100000000E-03 0.  1.
         12    1    3    3    0    0  0.38538363048E+02 -0.47844400428E+01 -0.95555267329E+01  0.39992554108E+02  0.00000000000E+00 0. -1.
</event>
<event>
 7    1  0.1290195E-011  0.5930195E+02  0.7816164E-02  0.1266605E+00
        -11   -1    0    0    0    0  0.00000000000E+00  0.00000000000E+00  0.45593999997E+02  0.45594000000E+02  0.51100000000E-03 0.  1.
         11   -1    0    0    0    0 -0.00000000000E+00 -0.00000000000E+00 -0.45593999997E+02  0.45594000000E+02  0.51100000000E-03 0. -1.
    9900012    2    1    2    0    0 -0.57807542989E+01  0.59452079533E+01 -0.30788923285E+02  0.59301946388E+02  0.50000004305E+02 0.  0.
        -12    1    1    2    0    0  0.57807542989E+01 -0.59452079533E+01  0.30788923285E+02  0.31886053612E+02  0.00000000000E+00 0.  1.
         11    1    3    3    0    0  0.58339889002E+01 -0.13407949918E+01  0.11187636291E+01  0.60897282383E+01  0.51100000000E-03 0. -1.
        -11    1    3    3    0    0 -0.89433999475E+01 -0.89247608164E+01  0.43849923524E+01  0.13374001512E+02  0.51100000000E-03 0.  1.
         12    1    3    3    0    0 -0.26713432516E+01  0.16210763762E+02 -0.36292679267E+02  0.39838216638E+02  0.00000000000E+00 0. -1.
</event>
<event>
 7    1  0.1290195E-011  0.5930195E+02  0.7816164E-02  0.1266605E+00
        -11   -1    0    0    0    0  0.00000000000E+00  0.00000000000E+00  0.45593999997E+02  0.45594000000E+02  0.51100000000E-03 0. -1.
         11   -1    0    0    0    0 -0.00000000000E+00 -0.00000000000E+00 -0.45593999997E+02  0.45594000000E+02  0.51100000000E-03 0.  1.
    9900012    2    1    2    0    0  0.63154295769E+01  0.27065518153E+02  0.15629874203E+02  0.59301954600E+02  0.50000019282E+02 0.  0.
        -12    1    1    2    0    0 -0.63154295769E+01 -0.27065518153E+02 -0.15629874203E+02  0.31886045400E+02  0.00000000000E+00 0.  1.
         11    1    3    3    0    0 -0.21015401712E+00  0.72677371627E+01  0.17202960786E+02  0.18676349436E+02  0.51100000000E-03 0. -1.
        -11    1    3    3    0    0  0.11919309964E+02  0.69168030171E+00  0.11722307661E+02  0.16732031222E+02  0.51100000000E-03 0.  1.
        -12    1    3    3    0    0 -0.53937263696E+01  0.19106100688E+02 -0.13295394244E+02  0.23893573943E+02  0.00000000000E+00 0.  1.
</event>
<event>
 7    1  0.1290195E-011  0.5930197E+02  0.7816164E-02  0.1266605E+00
        -11   -1    0    0    0    0  0.00000000000E+00  0.00000000000E+00  0.45593999997E+02  0.45594000000E+02  0.51100000000E-03 0. -1.
         11   -1    0    0    0    0 -0.00000000000E+00 -0.00000000000E+00 -0.45593999997E+02  0.45594000000E+02  0.51100000000E-03 0.  1.
    9900012    2    1    2    0    0 -0.17386708234E+02 -0.18628745123E+02  0.19167457422E+02  0.59301965563E+02  0.50000039275E+02 0.  0.
        -12    1    1    2    0    0  0.17386708234E+02  0.18628745123E+02 -0.19167457422E+02  0.31886034437E+02  0.00000000000E+00 0.  1.
         11    1    3    3    0    0 -0.54367934276E+01  0.73535641966E+01  0.21346690414E+02  0.23223152695E+02  0.51100000000E-03 0. -1.
        -11    1    3    3    0    0 -0.70850484155E+01  0.20748656652E+01  0.89880263328E+00  0.74371247813E+01  0.51100000000E-03 0.  1.
        -12    1    3    3    0    0 -0.48648663912E+01 -0.28057174985E+02 -0.30780356253E+01  0.28641688087E+02  0.00000000000E+00 0.  1.
</event>
<event>
 7    1  0.1290195E-011  0.5930196E+02  0.7816164E-02  0.1266605E+00
        -11   -1    0    0    0    0  0.00000000000E+00  0.00000000000E+00  0.45593999997E+02  0.45594000000E+02  0.51100000000E-03 0. -1.
         11   -1    0    0    0    0 -0.00000000000E+00 -0.00000000000E+00 -0.45593999997E+02  0.45594000000E+02  0.51100000000E-03 0.  1.
    9900012    2    1    2    0    0  0.82158946922E+01 -0.94614010001E+01  0.29320649948E+02  0.59301959984E+02  0.50000029101E+02 0.  0.
        -12    1    1    2    0    0 -0.82158946922E+01  0.94614010001E+01 -0.29320649948E+02  0.31886040016E+02  0.00000000000E+00 0.  1.
         11    1    3    3    0    0  0.86685010328E+01 -0.15243351707E+02  0.76061334340E+01  0.19114286476E+02  0.51100000000E-03 0. -1.
        -11    1    3    3    0    0 -0.95759869431E+01 -0.10458238257E+02  0.46432196726E+01  0.14920916948E+02  0.51100000000E-03 0.  1.
        -12    1    3    3    0    0  0.91233806025E+01  0.16240188964E+02  0.17071296842E+02  0.25266756560E+02  0.00000000000E+00 0.  1.
</event>
<event>
 7    1  0.1290195E-011  0.5930194E+02  0.7816164E-02  0.1266605E+00
        -11   -1    0    0    0    0  0.00000000000E+00  0.00000000000E+00  0.45593999997E+02  0.45594000000E+02  0.51100000000E-03 0.  1.
         11   -1    0    0    0    0 -0.00000000000E+00 -0.00000000000E+00 -0.45593999997E+02  0.45594000000E+02  0.51100000000E-03 0. -1.
    9900012    2    1    2    0    0  0.26578696695E+02 -0.14187863801E+02 -0.10440209545E+02  0.59301943916E+02  0.49999999796E+02 0.  0.
        -12    1    1    2    0    0 -0.26578696695E+02  0.14187863801E+02  0.10440209545E+02  0.31886056084E+02  0.00000000000E+00 0.  1.
         11    1    3    3    0    0 -0.12358316938E+01  0.89513050443E+01 -0.20304851327E+01  0.92615340040E+01  0.51100000000E-03 0.  1.
        -11    1    3    3    0    0 -0.47954240768E+01 -0.10094571747E+02 -0.98382069351E+01  0.14889149969E+02  0.51100000000E-03 0. -1.
         12    1    3    3    0    0  0.32609952466E+02 -0.13044597098E+02  0.14284825229E+01  0.35151259943E+02  0.00000000000E+00 0. -1.
</event>
<event>
 7    1  0.1290195E-011  0.5930194E+02  0.7816164E-02  0.1266605E+00
        -11   -1    0    0    0    0  0.00000000000E+00  0.00000000000E+00  0.45593999997E+02  0.45594000000E+02  0.51100000000E-03 0.  1.
         11   -1    0    0    0    0 -0.00000000000E+00 -0.00000000000E+00 -0.45593999997E+02  0.45594000000E+02  0.51100000000E-03 0. -1.
    9900012    2    1    2    0    0 -0.95658389647E+01  0.21768771931E+01 -0.30339356918E+02  0.59301942740E+02  0.49999997651E+02 0.  0.
        -12    1    1    2    0    0  0.95658389647E+01 -0.21768771931E+01  0.30339356918E+02  0.31886057260E+02  0.00000000000E+00 0.  1.
         11    1    3    3    0    0  0.22423861091E+01  0.34854198724E+01 -0.14972095757E+02  0.15535124679E+02  0.51100000000E-03 0. -1.
        -11    1    3    3    0    0  0.79505563281E+01  0.27430311555E+01 -0.21169449003E+02  0.22778962602E+02  0.51100000000E-03 0.  1.
         12    1    3    3    0    0 -0.19758781402E+02 -0.40515738347E+01  0.58021878425E+01  0.20987855460E+02  0.00000000000E+00 0. -1.
</event>
<event>
 7    1  0.1290195E-011  0.5930195E+02  0.7816164E-02  0.1266605E+00
        -11   -1    0    0    0    0  0.00000000000E+00  0.00000000000E+00  0.45593999997E+02  0.45594000000E+02  0.51100000000E-03 0.  1.
         11   -1    0    0    0    0 -0.00000000000E+00 -0.00000000000E+00 -0.45593999997E+02  0.45594000000E+02  0.51100000000E-03 0. -1.
    9900012    2    1    2    0    0 -0.68856393779E+01 -0.15672658032E+02 -0.26901227841E+02  0.59301948210E+02  0.50000007627E+02 0.  0.
        -12    1    1    2    0    0  0.68856393779E+01  0.15672658032E+02  0.26901227841E+02  0.31886051790E+02  0.00000000000E+00 0.  1.
         11    1    3    3    0    0 -0.29177431927E+01  0.90680995413E+01  0.67434695216E+01  0.11671248266E+02  0.51100000000E-03 0.  1.
        -11    1    3    3    0    0  0.92351859352E+01 -0.75944773904E+01 -0.13913073519E+02  0.18344981905E+02  0.51100000000E-03 0. -1.
        -12    1    3    3    0    0 -0.13203082120E+02 -0.17146280182E+02 -0.19731623844E+02  0.29285718039E+02  0.00000000000E+00 0.  1.
</event>
<event>
 7    1  0.1290195E-011  0.5930193E+02  0.7816164E-02  0.1266605E+00
        -11   -1    0    0    0    0  0.00000000000E+00  0.00000000000E+00  0.45593999997E+02  0.45594000000E+02  0.51100000000E-03 0.  1.
         11   -1    0    0    0    0 -0.00000000000E+00 -0.00000000000E+00 -0.45593999997E+02  0.45594000000E+02  0.51100000000E-03 0. -1.
    9900012    2    1    2    0    0 -0.79966868415E+01  0.20145709680E+02 -0.23386421494E+02  0.59301932051E+02  0.49999978158E+02 0.  0.
        -12    1    1    2    0    0  0.79966868415E+01 -0.20145709680E+02  0.23386421494E+02  0.31886067949E+02  0.00000000000E+00 0.  1.
         11    1    3    3    0    0 -0.47805287212E+01 -0.36556375718E+01 -0.70995006677E+01  0.93069893576E+01  0.51100000000E-03 0. -1.
        -11    1    3    3    0    0  0.18128241409E+02  0.61441216683E+01 -0.99721132300E+01  0.21583012074E+02  0.51100000000E-03 0.  1.
         12    1    3    3    0    0 -0.21344399529E+02  0.17657225583E+02 -0.63148075958E+01  0.28411930620E+02  0.00000000000E+00 0. -1.
</event>
<event>
 7    1  0.1290195E-011  0.5930194E+02  0.7816164E-02  0.1266605E+00
        -11   -1    0    0    0    0  0.00000000000E+00  0.00000000000E+00  0.45593999997E+02  0.45594000000E+02  0.51100000000E-03 0. -1.
         11   -1    0    0    0    0 -0.00000000000E+00 -0.00000000000E+00 -0.45593999997E+02  0.45594000000E+02  0.51100000000E-03 0.  1.
    9900012    2    1    2    0    0  0.21125683897E+02 -0.22795463234E+02  0.71269272504E+01  0.59301941037E+02  0.49999994545E+02 0.  0.
        -12    1    1    2    0    0 -0.21125683897E+02  0.22795463234E+02 -0.71269272504E+01  0.31886058963E+02  0.00000000000E+00 0.  1.
         11    1    3    3    0    0  0.73002267950E+01 -0.50684721798E+00  0.12284212669E+01  0.74201903231E+01  0.51100000000E-03 0. -1.
        -11    1    3    3    0    0  0.16099715447E+02  0.86376352208E+01 -0.51171779182E+01  0.18973536566E+02  0.51100000000E-03 0.  1.
         12    1    3    3    0    0 -0.22742583452E+01 -0.30926251237E+02  0.11015683902E+02  0.32908214148E+02  0.00000000000E+00 0. -1.
</event>
<event>
 7    1  0.1290195E-011  0.5930196E+02  0.7816164E-02  0.1266605E+00
        -11   -1    0    0    0    0  0.00000000000E+00  0.00000000000E+00  0.45593999997E+02  0.45594000000E+02  0.51100000000E-03 0. -1.
         11   -1    0    0    0    0 -0.00000000000E+00 -0.00000000000E+00 -0.45593999997E+02  0.45594000000E+02  0.51100000000E-03 0.  1.
    9900012    2    1    2    0    0 -0.27496062630E+02  0.44398957699E+01  0.15523325264E+02  0.59301956629E+02  0.50000022981E+02 0.  0.
        -12    1    1    2    0    0  0.27496062630E+02 -0.44398957699E+01 -0.15523325264E+02  0.31886043371E+02  0.00000000000E+00 0.  1.
         11    1    3    3    0    0 -0.50924832037E+01  0.16315389052E+02  0.19234268508E+02  0.25730961708E+02  0.51100000000E-03 0. -1.
        -11    1    3    3    0    0 -0.13326604953E+02  0.24825569597E+01  0.50403756572E+01  0.14462602658E+02  0.51100000000E-03 0.  1.
        -12    1    3    3    0    0 -0.90769744740E+01 -0.14358050242E+02 -0.87513189009E+01  0.19108392263E+02  0.00000000000E+00 0.  1.
</event>
<event>
 7    1  0.1290195E-011  0.5930194E+02  0.7816164E-02  0.1266605E+00
        -11   -1    0    0    0    0  0.00000000000E+00  0.00000000000E+00  0.45593999997E+02  0.45594000000E+02  0.51100000000E-03 0. -1.
         11   -1    0    0    0    0 -0.00000000000E+00 -0.00000000000E+00 -0.45593999997E+02  0.45594000000E+02  0.51100000000E-03 0.  1.
    9900012    2    1    2    0    0 -0.29298321693E+02  0.64580062881E+01  0.10799213177E+02  0.59301944984E+02  0.50000001745E+02 0.  0.
        -12    1    1    2    0    0  0.29298321693E+02 -0.64580062881E+01 -0.10799213177E+02  0.31886055016E+02  0.00000000000E+00 0.  1.
         11    1    3    3    0    0 -0.30711174569E+02 -0.64567407148E+01 -0.18835874106E+01  0.31439046516E+02  0.51100000000E-03 0. -1.
        -11    1    3    3    0    0 -0.29398894118E+01 -0.41944922971E+01 -0.13657285467E+01  0.53011253624E+01  0.51100000000E-03 0.  1.
        -12    1    3    3    0    0  0.43527422878E+01  0.17109239300E+02  0.14048529134E+02  0.22561773106E+02  0.00000000000E+00 0.  1.
</event>
<event>
 7    1  0.1290195E-011  0.5930194E+02  0.7816164E-02  0.1266605E+00
        -11   -1    0    0    0    0  0.00000000000E+00  0.00000000000E+00  0.45593999997E+02  0.45594000000E+02  0.51100000000E-03 0. -1.
         11   -1    0    0    0    0 -0.00000000000E+00 -0.00000000000E+00 -0.45593999997E+02  0.45594000000E+02  0.51100000000E-03 0.  1.
    9900012    2    1    2    0    0  0.30098717066E+02 -0.50973241387E+01 -0.92089748131E+01  0.59301941926E+02  0.49999996166E+02 0.  0.
        -12    1    1    2    0    0 -0.30098717066E+02  0.50973241387E+01  0.92089748131E+01  0.31886058074E+02  0.00000000000E+00 0.  1.
         11    1    3    3    0    0  0.66861592872E+01 -0.14244387583E+02 -0.29802389308E+00  0.15738364659E+02  0.51100000000E-03 0. -1.
        -11    1    3    3    0    0  0.24132637644E+02 -0.78742288900E+01 -0.74958722292E+01  0.26468392113E+02  0.51100000000E-03 0.  1.
        -12    1    3    3    0    0 -0.72007986511E+00  0.17021292335E+02 -0.14150786908E+01  0.17095185154E+02  0.00000000000E+00 0.  1.
</event>
<event>
 7    1  0.1290195E-011  0.5930194E+02  0.7816164E-02  0.1266605E+00
        -11   -1    0    0    0    0  0.00000000000E+00  0.00000000000E+00  0.45593999997E+02  0.45594000000E+02  0.51100000000E-03 0.  1.
         11   -1    0    0    0    0 -0.00000000000E+00 -0.00000000000E+00 -0.45593999997E+02  0.45594000000E+02  0.51100000000E-03 0. -1.
    9900012    2    1    2    0    0  0.17219653304E+02  0.98867776299E+01  0.24949064666E+02  0.59301942553E+02  0.49999997311E+02 0.  0.
        -12    1    1    2    0    0 -0.17219653304E+02 -0.98867776299E+01 -0.24949064666E+02  0.31886057447E+02  0.00000000000E+00 0.  1.
         11    1    3    3    0    0  0.21764556230E+02  0.14301136309E+02  0.95600904802E+01  0.27741913018E+02  0.51100000000E-03 0. -1.
        -11    1    3    3    0    0  0.62102436130E+01  0.65914433092E+01  0.13212920218E+02  0.16018598927E+02  0.51100000000E-03 0.  1.
         12    1    3    3    0    0 -0.10755146540E+02 -0.11005801988E+02  0.21760539675E+01  0.15541430609E+02  0.00000000000E+00 0. -1.
</event>
<event>
 7    1  0.1290195E-011  0.5930195E+02  0.7816164E-02  0.1266605E+00
        -11   -1    0    0    0    0  0.00000000000E+00  0.00000000000E+00  0.45593999997E+02  0.45594000000E+02  0.51100000000E-03 0.  1.
         11   -1    0    0    0    0 -0.00000000000E+00 -0.00000000000E+00 -0.45593999997E+02  0.45594000000E+02  0.51100000000E-03 0. -1.
    9900012    2    1    2    0    0 -0.27814891574E+02 -0.62891169468E+01 -0.14265304486E+02  0.59301951368E+02  0.50000013388E+02 0.  0.
        -12    1    1    2    0    0  0.27814891574E+02  0.62891169468E+01  0.14265304486E+02  0.31886048632E+02  0.00000000000E+00 0.  1.
         11    1    3    3    0    0 -0.26391775549E+02  0.23945134143E+01 -0.75413397045E+01  0.27552337758E+02  0.51100000000E-03 0. -1.
        -11    1    3    3    0    0 -0.33534997447E+01 -0.65796019271E+01 -0.18348830766E+02  0.19779198993E+02  0.51100000000E-03 0.  1.
        -12    1    3    3    0    0  0.19303837200E+01 -0.21040284340E+01  0.11624865984E+02  0.11970414617E+02  0.00000000000E+00 0.  1.
</event>
<event>
 7    1  0.1290195E-011  0.5930195E+02  0.7816164E-02  0.1266605E+00
        -11   -1    0    0    0    0  0.00000000000E+00  0.00000000000E+00  0.45593999997E+02  0.45594000000E+02  0.51100000000E-03 0. -1.
         11   -1    0    0    0    0 -0.00000000000E+00 -0.00000000000E+00 -0.45593999997E+02  0.45594000000E+02  0.51100000000E-03 0.  1.
    9900012    2    1    2    0    0 -0.81439169669E+01 -0.20966590320E+02  0.22600859940E+02  0.59301950335E+02  0.50000011503E+02 0.  0.
        -12    1    1    2    0    0  0.81439169669E+01  0.20966590320E+02 -0.22600859940E+02  0.31886049665E+02  0.00000000000E+00 0.  1.
         11    1    3    3    0    0 -0.90186656941E+01 -0.95355284884E+01 -0.51156701702E+00  0.13134851942E+02  0.51100000000E-03 0. -1.
        -11    1    3    3    0    0 -0.59462301478E+01 -0.79124705960E+01 -0.88614503229E+01  0.13284959390E+02  0.51100000000E-03 0.  1.
         12    1    3    3    0    0  0.68209788751E+01 -0.35185912356E+01  0.31973877280E+02  0.32882139003E+02  0.00000000000E+00 0. -1.
</event>
<event>
 7    1  0.1290195E-011  0.5930195E+02  0.7816164E-02  0.1266605E+00
        -11   -1    0    0    0    0  0.00000000000E+00  0.00000000000E+00  0.45593999997E+02  0.45594000000E+02  0.51100000000E-03 0.  1.
         11   -1    0    0    0    0 -0.00000000000E+00 -0.00000000000E+00 -0.45593999997E+02  0.45594000000E+02  0.51100000000E-03 0. -1.
    9900012    2    1    2    0    0  0.33421763176E+01 -0.19331065473E+02 -0.25136824258E+02  0.59301950250E+02  0.50000011349E+02 0.  0.
        -12    1    1    2    0    0 -0.33421763176E+01  0.19331065473E+02  0.25136824258E+02  0.31886049750E+02  0.00000000000E+00 0.  1.
         11    1    3    3    0    0  0.93310893565E+01 -0.56695698878E+01 -0.18541514613E+02  0.21517458393E+02  0.51100000000E-03 0. -1.
        -11    1    3    3    0    0 -0.50707141911E+01 -0.24697206272E+02 -0.83783031001E+01  0.26568027837E+02  0.51100000000E-03 0.  1.
         12    1    3    3    0    0 -0.91819884774E+00  0.11035710686E+02  0.17829934547E+01  0.11216464021E+02  0.00000000000E+00 0. -1.
</event>
<event>
 7    1  0.1290195E-011  0.5930193E+02  0.7816164E-02  0.1266605E+00
        -11   -1    0    0    0    0  0.00000000000E+00  0.00000000000E+00  0.45593999997E+02  0.45594000000E+02  0.51100000000E-03 0.  1.
         11   -1    0    0    0    0 -0.00000000000E+00 -0.00000000000E+00 -0.45593999997E+02  0.45594000000E+02  0.51100000000E-03 0. -1.
    9900012    2    1    2    0    0  0.55249577780E+01  0.15136717010E+02 -0.27515011453E+02  0.59301933834E+02  0.49999981409E+02 0.  0.
        -12    1    1    2    0    0 -0.55249577780E+01 -0.15136717010E+02  0.27515011453E+02  0.31886066166E+02  0.00000000000E+00 0.  1.
         11    1    3    3    0    0  0.13959188922E+02  0.10434131102E+02  0.42884117090E+01  0.17947716358E+02  0.51100000000E-03 0.  1.
        -11    1    3    3    0    0 -0.83211615396E+01  0.93918645538E+01 -0.40177499018E+01  0.13175399945E+02  0.51100000000E-03 0. -1.
         12    1    3    3    0    0 -0.11306960429E+00 -0.46892786463E+01 -0.27785673260E+02  0.28178817532E+02  0.00000000000E+00 0. -1.
</event>
<event>
 7    1  0.1290195E-011  0.5930194E+02  0.7816164E-02  0.1266605E+00
        -11   -1    0    0    0    0  0.00000000000E+00  0.00000000000E+00  0.45593999997E+02  0.45594000000E+02  0.51100000000E-03 0.  1.
         11   -1    0    0    0    0 -0.00000000000E+00 -0.00000000000E+00 -0.45593999997E+02  0.45594000000E+02  0.51100000000E-03 0. -1.
    9900012    2    1    2    0    0  0.14249636304E+02  0.28056791462E+02 -0.51463987260E+01  0.59301935618E+02  0.49999984662E+02 0.  0.
        -12    1    1    2    0    0 -0.14249636304E+02 -0.28056791462E+02  0.51463987260E+01  0.31886064382E+02  0.00000000000E+00 0.  1.
         11    1    3    3    0    0 -0.12365359009E+00  0.23621077253E+02  0.57361143377E+01  0.24307891491E+02  0.51100000000E-03 0. -1.
        -11    1    3    3    0    0 -0.89991562517E+01  0.40408975411E+01 -0.37629834163E+01  0.10558111130E+02  0.51100000000E-03 0.  1.
        -12    1    3    3    0    0  0.23372446145E+02  0.39481666841E+00 -0.71195296475E+01  0.24435932997E+02  0.00000000000E+00 0.  1.
</event>
<event>
 7    1  0.1290195E-011  0.5930191E+02  0.7816164E-02  0.1266605E+00
        -11   -1    0    0    0    0  0.00000000000E+00  0.00000000000E+00  0.45593999997E+02  0.45594000000E+02  0.51100000000E-03 0.  1.
         11   -1    0    0    0    0 -0.00000000000E+00 -0.00000000000E+00 -0.45593999997E+02  0.45594000000E+02  0.51100000000E-03 0. -1.
    9900012    2    1    2    0    0 -0.26907212151E+02 -0.14085178223E+02 -0.97124828674E+01  0.59301911579E+02  0.49999940821E+02 0.  0.
        -12    1    1    2    0    0  0.26907212151E+02  0.14085178223E+02  0.97124828674E+01  0.31886088421E+02  0.00000000000E+00 0.  1.
         11    1    3    3    0    0  0.49690822380E+01 -0.11212253795E+02 -0.78146643427E+01  0.14542193524E+02  0.51100000000E-03 0. -1.
        -11    1    3    3    0    0 -0.59529427371E+01  0.80541974764E+01  0.10056459810E+02  0.14192956295E+02  0.51100000000E-03 0.  1.
         12    1    3    3    0    0 -0.25923351652E+02 -0.10927121905E+02 -0.11954278334E+02  0.30566761760E+02  0.00000000000E+00 0. -1.
</event>
<event>
 7    1  0.1290195E-011  0.5930196E+02  0.7816164E-02  0.1266605E+00
        -11   -1    0    0    0    0  0.00000000000E+00  0.00000000000E+00  0.45593999997E+02  0.45594000000E+02  0.51100000000E-03 0.  1.
         11   -1    0    0    0    0 -0.00000000000E+00 -0.00000000000E+00 -0.45593999997E+02  0.45594000000E+02  0.51100000000E-03 0. -1.
    9900012    2    1    2    0    0 -0.18217927440E+02  0.17030488142E+02 -0.19869309374E+02  0.59301955066E+02  0.50000020131E+02 0.  0.
        -12    1    1    2    0    0  0.18217927440E+02 -0.17030488142E+02  0.19869309374E+02  0.31886044934E+02  0.00000000000E+00 0.  1.
         11    1    3    3    0    0 -0.18364224634E+02  0.12497629706E+02 -0.42814764702E+01  0.22622257529E+02  0.51100000000E-03 0. -1.
        -11    1    3    3    0    0 -0.10537440591E+02  0.85572064953E+01  0.38740802957E+01  0.14116371191E+02  0.51100000000E-03 0.  1.
         12    1    3    3    0    0  0.10683737785E+02 -0.40243480601E+01 -0.19461913200E+02  0.22563326345E+02  0.00000000000E+00 0. -1.
</event>
<event>
 7    1  0.1290195E-011  0.5930188E+02  0.7816164E-02  0.1266605E+00
        -11   -1    0    0    0    0  0.00000000000E+00  0.00000000000E+00  0.45593999997E+02  0.45594000000E+02  0.51100000000E-03 0. -1.
         11   -1    0    0    0    0 -0.00000000000E+00 -0.00000000000E+00 -0.45593999997E+02  0.45594000000E+02  0.51100000000E-03 0.  1.
    9900012    2    1    2    0    0  0.27920961865E+02  0.12937479383E+02  0.83526002642E+01  0.59301883657E+02  0.49999889899E+02 0.  0.
        -12    1    1    2    0    0 -0.27920961865E+02 -0.12937479383E+02 -0.83526002642E+01  0.31886116343E+02  0.00000000000E+00 0.  1.
         11    1    3    3    0    0  0.31323266065E+02  0.12038666154E+01  0.77442088571E+01  0.32288838054E+02  0.51100000000E-03 0. -1.
        -11    1    3    3    0    0  0.53956201019E+01  0.81659567099E+01 -0.91499940197E+01  0.13398431106E+02  0.51100000000E-03 0.  1.
        -12    1    3    3    0    0 -0.87979243023E+01  0.35676560572E+01  0.97583854268E+01  0.13614614497E+02  0.00000000000E+00 0.  1.
</event>
<event>
 7    1  0.1290195E-011  0.5930194E+02  0.7816164E-02  0.1266605E+00
        -11   -1    0    0    0    0  0.00000000000E+00  0.00000000000E+00  0.45593999997E+02  0.45594000000E+02  0.51100000000E-03 0. -1.
         11   -1    0    0    0    0 -0.00000000000E+00 -0.00000000000E+00 -0.45593999997E+02  0.45594000000E+02  0.51100000000E-03 0.  1.
    9900012    2    1    2    0    0  0.26992505786E+02 -0.16282744709E+02  0.47956160794E+01  0.59301936000E+02  0.49999985359E+02 0.  0.
        -12    1    1    2    0    0 -0.26992505786E+02  0.16282744709E+02 -0.47956160794E+01  0.31886064000E+02  0.00000000000E+00 0.  1.
         11    1    3    3    0    0  0.17214346179E+02  0.48500303328E+00  0.59496526518E+01  0.18219970067E+02  0.51100000000E-03 0. -1.
        -11    1    3    3    0    0  0.16151435236E+02 -0.15956125543E+01  0.11859963688E+02  0.20101581494E+02  0.51100000000E-03 0.  1.
        -12    1    3    3    0    0 -0.63732756297E+01 -0.15172135188E+02 -0.13014000260E+02  0.20980384439E+02  0.00000000000E+00 0.  1.
</event>
<event>
 7    1  0.1290195E-011  0.5930193E+02  0.7816164E-02  0.1266605E+00
        -11   -1    0    0    0    0  0.00000000000E+00  0.00000000000E+00  0.45593999997E+02  0.45594000000E+02  0.51100000000E-03 0.  1.
         11   -1    0    0    0    0 -0.00000000000E+00 -0.00000000000E+00 -0.45593999997E+02  0.45594000000E+02  0.51100000000E-03 0. -1.
    9900012    2    1    2    0    0  0.58080236453E+01  0.28768611589E+02 -0.12464160791E+02  0.59301930069E+02  0.49999974543E+02 0.  0.
        -12    1    1    2    0    0 -0.58080236453E+01 -0.28768611589E+02  0.12464160791E+02  0.31886069931E+02  0.00000000000E+00 0.  1.
         11    1    3    3    0    0 -0.11236163153E+02  0.40885499369E+01 -0.18485517027E+02  0.22015493249E+02  0.51100000000E-03 0. -1.
        -11    1    3    3    0    0 -0.40994793515E+01  0.24193565772E+01 -0.25642423937E+01  0.54068804792E+01  0.51100000000E-03 0.  1.
        -12    1    3    3    0    0  0.21143666149E+02  0.22260705075E+02  0.85855986298E+01  0.31879556341E+02  0.00000000000E+00 0.  1.
</event>
<event>
 7    1  0.1290195E-011  0.5930183E+02  0.7816164E-02  0.1266605E+00
        -11   -1    0    0    0    0  0.00000000000E+00  0.00000000000E+00  0.45593999997E+02  0.45594000000E+02  0.51100000000E-03 0.  1.
         11   -1    0    0    0    0 -0.00000000000E+00 -0.00000000000E+00 -0.45593999997E+02  0.45594000000E+02  0.51100000000E-03 0. -1.
    9900012    2    1    2    0    0 -0.10121273730E+02 -0.57602343553E+01 -0.29683457449E+02  0.59301825443E+02  0.49999783730E+02 0.  0.
        -12    1    1    2    0    0  0.10121273730E+02  0.57602343553E+01  0.29683457449E+02  0.31886174557E+02  0.00000000000E+00 0.  1.
         11    1    3    3    0    0 -0.58962358280E+01  0.54988958593E+01 -0.18565222426E+01  0.82734592348E+01  0.51100000000E-03 0. -1.
        -11    1    3    3    0    0 -0.16849168848E+02  0.27971762114E+01  0.37378834284E+00  0.17083863838E+02  0.51100000000E-03 0.  1.
         12    1    3    3    0    0  0.12624130946E+02 -0.14056306426E+02 -0.28200723549E+02  0.33944502370E+02  0.00000000000E+00 0. -1.
</event>
<event>
 7    1  0.1290195E-011  0.5930195E+02  0.7816164E-02  0.1266605E+00
        -11   -1    0    0    0    0  0.00000000000E+00  0.00000000000E+00  0.45593999997E+02  0.45594000000E+02  0.51100000000E-03 0. -1.
         11   -1    0    0    0    0 -0.00000000000E+00 -0.00000000000E+00 -0.45593999997E+02  0.45594000000E+02  0.51100000000E-03 0.  1.
    9900012    2    1    2    0    0  0.60147945173E+01  0.28989196847E+02  0.11839291332E+02  0.59301951230E+02  0.50000013135E+02 0.  0.
        -12    1    1    2    0    0 -0.60147945173E+01 -0.28989196847E+02 -0.11839291332E+02  0.31886048770E+02  0.00000000000E+00 0.  1.
         11    1    3    3    0    0 -0.13154216212E+02 -0.22139078593E+01 -0.53967302746E+01  0.14389561845E+02  0.51100000000E-03 0. -1.
        -11    1    3    3    0    0  0.10483994271E+02  0.18142567277E+01  0.26075460362E+01  0.10954677537E+02  0.51100000000E-03 0.  1.
         12    1    3    3    0    0  0.86850164583E+01  0.29388847979E+02  0.14628475570E+02  0.33957711847E+02  0.00000000000E+00 0. -1.
</event>
<event>
 7    1  0.1290195E-011  0.5930190E+02  0.7816164E-02  0.1266605E+00
        -11   -1    0    0    0    0  0.00000000000E+00  0.00000000000E+00  0.45593999997E+02  0.45594000000E+02  0.51100000000E-03 0.  1.
         11   -1    0    0    0    0 -0.00000000000E+00 -0.00000000000E+00 -0.45593999997E+02  0.45594000000E+02  0.51100000000E-03 0. -1.
    9900012    2    1    2    0    0 -0.21214945691E+01 -0.18360660881E+02 -0.25982850921E+02  0.59301903513E+02  0.49999926111E+02 0.  0.
        -12    1    1    2    0    0  0.21214945691E+01  0.18360660881E+02  0.25982850921E+02  0.31886096487E+02  0.00000000000E+00 0.  1.
         11    1    3    3    0    0  0.17205775129E+01  0.29842397018E+01  0.12813506616E+01  0.36753140484E+01  0.51100000000E-03 0. -1.
        -11    1    3    3    0    0  0.14887875025E+02  0.25676127810E+01 -0.18754113452E+02  0.24082321935E+02  0.51100000000E-03 0.  1.
         12    1    3    3    0    0 -0.18729947107E+02 -0.23912513364E+02 -0.85100881310E+01  0.31544267530E+02  0.00000000000E+00 0. -1.
</event>
<event>
 7    1  0.1290195E-011  0.5930194E+02  0.7816164E-02  0.1266605E+00
        -11   -1    0    0    0    0  0.00000000000E+00  0.00000000000E+00  0.45593999997E+02  0.45594000000E+02  0.51100000000E-03 0. -1.
         11   -1    0    0    0    0 -0.00000000000E+00 -0.00000000000E+00 -0.45593999997E+02  0.45594000000E+02  0.51100000000E-03 0.  1.
    9900012    2    1    2    0    0  0.56527318669E+00 -0.30950014712E+02  0.76484033429E+01  0.59301936929E+02  0.49999987054E+02 0.  0.
        -12    1    1    2    0    0 -0.56527318669E+00  0.30950014712E+02 -0.76484033429E+01  0.31886063071E+02  0.00000000000E+00 0.  1.
         11    1    3    3    0    0 -0.38802917828E+01 -0.27619278471E+02 -0.32815599583E+01  0.28082910170E+02  0.51100000000E-03 0. -1.
        -11    1    3    3    0    0  0.10019644637E+02 -0.66061487962E+00 -0.70087044212E+01  0.12245473801E+02  0.51100000000E-03 0.  1.
         12    1    3    3    0    0 -0.55740796678E+01 -0.26701213610E+01  0.17938667722E+02  0.18973552959E+02  0.00000000000E+00 0. -1.
</event>
<event>
 7    1  0.1290195E-011  0.5930198E+02  0.7816164E-02  0.1266605E+00
        -11   -1    0    0    0    0  0.00000000000E+00  0.00000000000E+00  0.45593999997E+02  0.45594000000E+02  0.51100000000E-03 0. -1.
         11   -1    0    0    0    0 -0.00000000000E+00 -0.00000000000E+00 -0.45593999997E+02  0.45594000000E+02  0.51100000000E-03 0.  1.
    9900012    2    1    2    0    0 -0.16826584678E+02  0.26883379340E+02 -0.32967073799E+01  0.59301979298E+02  0.50000064325E+02 0.  0.
        -12    1    1    2    0    0  0.16826584678E+02 -0.26883379340E+02  0.32967073799E+01  0.31886020702E+02  0.00000000000E+00 0.  1.
         11    1    3    3    0    0 -0.68311042924E+01  0.28689446294E+02 -0.95314894429E+01  0.30993509091E+02  0.51100000000E-03 0. -1.
        -11    1    3    3    0    0  0.74735431882E+01  0.42562997745E+01  0.45786315636E+01  0.97433979090E+01  0.51100000000E-03 0.  1.
        -12    1    3    3    0    0 -0.17469023573E+02 -0.60623667291E+01  0.16561504994E+01  0.18565072298E+02  0.00000000000E+00 0.  1.
</event>
<event>
 7    1  0.1290195E-011  0.5930195E+02  0.7816164E-02  0.1266605E+00
        -11   -1    0    0    0    0  0.00000000000E+00  0.00000000000E+00  0.45593999997E+02  0.45594000000E+02  0.51100000000E-03 0.  1.
         11   -1    0    0    0    0 -0.00000000000E+00 -0.00000000000E+00 -0.45593999997E+02  0.45594000000E+02  0.51100000000E-03 0. -1.
    9900012    2    1    2    0    0 -0.30059725755E+02 -0.90724968156E+01  0.55518302706E+01  0.59301950851E+02  0.50000012445E+02 0.  0.
        -12    1    1    2    0    0  0.30059725755E+02  0.90724968156E+01 -0.55518302706E+01  0.31886049149E+02  0.00000000000E+00 0.  1.
         11    1    3    3    0    0  0.71495799842E+01 -0.69775088480E+01  0.19451019548E+01  0.10177698441E+02  0.51100000000E-03 0. -1.
        -11    1    3    3    0    0  0.33429863946E+01 -0.15860809708E+01  0.75193742305E+01  0.83804653785E+01  0.51100000000E-03 0.  1.
         12    1    3    3    0    0 -0.40552292134E+02 -0.50890699679E+00 -0.39126459147E+01  0.40743787032E+02  0.00000000000E+00 0. -1.
</event>
<event>
 7    1  0.1290195E-011  0.5930193E+02  0.7816164E-02  0.1266605E+00
        -11   -1    0    0    0    0  0.00000000000E+00  0.00000000000E+00  0.45593999997E+02  0.45594000000E+02  0.51100000000E-03 0. -1.
         11   -1    0    0    0    0 -0.00000000000E+00 -0.00000000000E+00 -0.45593999997E+02  0.45594000000E+02  0.51100000000E-03 0.  1.
    9900012    2    1    2    0    0  0.10615607110E+02  0.28131326817E+02 -0.10614070948E+02  0.59301934628E+02  0.49999982857E+02 0.  0.
        -12    1    1    2    0    0 -0.10615607110E+02 -0.28131326817E+02  0.10614070948E+02  0.31886065372E+02  0.00000000000E+00 0.  1.
         11    1    3    3    0    0 -0.30933699506E+01 -0.41050352806E+01  0.40845427944E+01  0.65653440433E+01  0.51100000000E-03 0. -1.
        -11    1    3    3    0    0  0.39514891480E+01  0.37568267982E+02 -0.16929723315E+02  0.41395706993E+02  0.51100000000E-03 0.  1.
         12    1    3    3    0    0  0.97574879123E+01 -0.53319058842E+01  0.22311095725E+01  0.11340883592E+02  0.00000000000E+00 0. -1.
</event>
<event>
 7    1  0.1290195E-011  0.5930194E+02  0.7816164E-02  0.1266605E+00
        -11   -1    0    0    0    0  0.00000000000E+00  0.00000000000E+00  0.45593999997E+02  0.45594000000E+02  0.51100000000E-03 0.  1.
         11   -1    0    0    0    0 -0.00000000000E+00 -0.00000000000E+00 -0.45593999997E+02  0.45594000000E+02  0.51100000000E-03 0. -1.
    9900012    2    1    2    0    0 -0.24845358799E+02 -0.18699188304E+02 -0.70547558316E+01  0.59301936007E+02  0.49999985373E+02 0.  0.
        -12    1    1    2    0    0  0.24845358799E+02  0.18699188304E+02  0.70547558316E+01  0.31886063993E+02  0.00000000000E+00 0.  1.
         11    1    3    3    0    0  0.88604255417E+01 -0.83045706001E+01  0.11898740415E+01  0.12202001235E+02  0.51100000000E-03 0. -1.
        -11    1    3    3    0    0 -0.91451818935E+01 -0.15450444133E+02  0.51405158090E+01  0.18675531553E+02  0.51100000000E-03 0.  1.
         12    1    3    3    0    0 -0.24560602447E+02  0.50558264287E+01 -0.13385145682E+02  0.28424403220E+02  0.00000000000E+00 0. -1.
</event>
<event>
 7    1  0.1290195E-011  0.5930198E+02  0.7816164E-02  0.1266605E+00
        -11   -1    0    0    0    0  0.00000000000E+00  0.00000000000E+00  0.45593999997E+02  0.45594000000E+02  0.51100000000E-03 0.  1.
         11   -1    0    0    0    0 -0.00000000000E+00 -0.00000000000E+00 -0.45593999997E+02  0.45594000000E+02  0.51100000000E-03 0. -1.
    9900012    2    1    2    0    0 -0.46407316742E+01 -0.22141229633E+02 -0.22471044796E+02  0.59301979641E+02  0.50000064949E+02 0.  0.
        -12    1    1    2    0    0  0.46407316742E+01  0.22141229633E+02  0.22471044796E+02  0.31886020359E+02  0.00000000000E+00 0.  1.
         11    1    3    3    0    0  0.14956140478E+02 -0.77163423931E+01 -0.49367334576E+01  0.17538512349E+02  0.51100000000E-03 0. -1.
        -11    1    3    3    0    0 -0.81923035433E+01 -0.22264288840E+02 -0.83327334460E+01  0.25144519121E+02  0.51100000000E-03 0.  1.
         12    1    3    3    0    0 -0.11404568608E+02  0.78394016000E+01 -0.92015778929E+01  0.16618948171E+02  0.00000000000E+00 0. -1.
</event>
<event>
 7    1  0.1290195E-011  0.5930222E+02  0.7816164E-02  0.1266604E+00
        -11   -1    0    0    0    0  0.00000000000E+00  0.00000000000E+00  0.45593999997E+02  0.45594000000E+02  0.51100000000E-03 0. -1.
         11   -1    0    0    0    0 -0.00000000000E+00 -0.00000000000E+00 -0.45593999997E+02  0.45594000000E+02  0.51100000000E-03 0.  1.
    9900012    2    1    2    0    0 -0.15842249200E+02  0.16275440810E+02  0.22379369182E+02  0.59302219497E+02  0.50000502388E+02 0.  0.
        -12    1    1    2    0    0  0.15842249200E+02 -0.16275440810E+02 -0.22379369182E+02  0.31885780503E+02  0.00000000000E+00 0.  1.
         11    1    3    3    0    0 -0.95864865017E+00  0.34402610245E+01  0.87059220888E+01  0.94099672066E+01  0.51100000000E-03 0. -1.
        -11    1    3    3    0    0 -0.79099233716E+01 -0.14091718582E+02  0.14995456559E+02  0.22045569578E+02  0.51100000000E-03 0.  1.
        -12    1    3    3    0    0 -0.69736771778E+01  0.26926898368E+02 -0.13220094649E+01  0.27846682713E+02  0.00000000000E+00 0.  1.
</event>
<event>
 7    1  0.1290195E-011  0.5930196E+02  0.7816164E-02  0.1266605E+00
        -11   -1    0    0    0    0  0.00000000000E+00  0.00000000000E+00  0.45593999997E+02  0.45594000000E+02  0.51100000000E-03 0.  1.
         11   -1    0    0    0    0 -0.00000000000E+00 -0.00000000000E+00 -0.45593999997E+02  0.45594000000E+02  0.51100000000E-03 0. -1.
    9900012    2    1    2    0    0 -0.29410310492E+02 -0.96010203037E+01 -0.77183759033E+01  0.59301964174E+02  0.50000036741E+02 0.  0.
        -12    1    1    2    0    0  0.29410310492E+02  0.96010203037E+01  0.77183759033E+01  0.31886035826E+02  0.00000000000E+00 0.  1.
         11    1    3    3    0    0 -0.24519262197E+02 -0.23097867495E+02 -0.11161534808E+02  0.35486413752E+02  0.51100000000E-03 0. -1.
        -11    1    3    3    0    0 -0.40279740147E+01  0.54952209569E+01  0.10893267575E+02  0.12848552710E+02  0.51100000000E-03 0.  1.
        -12    1    3    3    0    0 -0.86307428118E+00  0.80016262343E+01 -0.74501086698E+01  0.10966997711E+02  0.00000000000E+00 0.  1.
</event>
<event>
 7    1  0.1290195E-011  0.5930197E+02  0.7816164E-02  0.1266605E+00
        -11   -1    0    0    0    0  0.00000000000E+00  0.00000000000E+00  0.45593999997E+02  0.45594000000E+02  0.51100000000E-03 0. -1.
         11   -1    0    0    0    0 -0.00000000000E+00 -0.00000000000E+00 -0.45593999997E+02  0.45594000000E+02  0.51100000000E-03 0.  1.
    9900012    2    1    2    0    0 -0.28744911781E+02  0.13470445136E+02 -0.29993552261E+01  0.59301968933E+02  0.50000045421E+02 0.  0.
        -12    1    1    2    0    0  0.28744911781E+02 -0.13470445136E+02  0.29993552261E+01  0.31886031067E+02  0.00000000000E+00 0.  1.
         11    1    3    3    0    0 -0.20024002741E+01  0.15571384898E+02  0.70178970449E+01  0.17196758814E+02  0.51100000000E-03 0. -1.
        -11    1    3    3    0    0 -0.14407133029E+02  0.47674902664E+01 -0.19786702680E+02  0.24936079258E+02  0.51100000000E-03 0.  1.
        -12    1    3    3    0    0 -0.12335378478E+02 -0.68684300288E+01  0.97694504089E+01  0.17169130861E+02  0.00000000000E+00 0.  1.
</event>
<event>
 7    1  0.1439754E-011  0.5930194E+02  0.7816164E-02  0.1266605E+00
        -11   -1    0    0    0    0  0.00000000000E+00  0.00000000000E+00  0.45593999997E+02  0.45594000000E+02  0.51100000000E-03 0. -1.
         11   -1    0    0    0    0 -0.00000000000E+00 -0.00000000000E+00 -0.45593999997E+02  0.45594000000E+02  0.51100000000E-03 0.  1.
    9900012    2    1    2    0    0 -0.68054989854E+01  0.14349926307E+02  0.27649333905E+02  0.59301939302E+02  0.49999991382E+02 0.  0.
        -12    1    1    2    0    0  0.68054989854E+01 -0.14349926307E+02 -0.27649333905E+02  0.31886060698E+02  0.00000000000E+00 0.  1.
         11    1    3    3    0    0 -0.84150963266E+01 -0.74043699941E+01  0.29657106356E+02  0.31704613211E+02  0.51100000000E-03 0. -1.
        -11    1    3    3    0    0  0.80495542301E+01  0.49638692612E+01  0.33085241591E+00  0.94628106252E+01  0.51100000000E-03 0.  1.
        -12    1    3    3    0    0 -0.64399568889E+01  0.16790427040E+02 -0.23386248674E+01  0.18134515466E+02  0.00000000000E+00 0.  1.
</event>
<event>
 7    1  0.1290195E-011  0.5930219E+02  0.7816164E-02  0.1266604E+00
        -11   -1    0    0    0    0  0.00000000000E+00  0.00000000000E+00  0.45593999997E+02  0.45594000000E+02  0.51100000000E-03 0.  1.
         11   -1    0    0    0    0 -0.00000000000E+00 -0.00000000000E+00 -0.45593999997E+02  0.45594000000E+02  0.51100000000E-03 0. -1.
    9900012    2    1    2    0    0  0.13595445702E+02 -0.28840701466E+02  0.28732880167E+00  0.59302191829E+02  0.50000451928E+02 0.  0.
        -12    1    1    2    0    0 -0.13595445702E+02  0.28840701466E+02 -0.28732880167E+00  0.31885808171E+02  0.00000000000E+00 0.  1.
         11    1    3    3    0    0  0.71462115523E+01  0.31380224378E+01 -0.40789090418E+01  0.88064194542E+01  0.51100000000E-03 0. -1.
        -11    1    3    3    0    0  0.17864796797E+02 -0.67063909478E+01 -0.72731220431E+01  0.20421188718E+02  0.51100000000E-03 0.  1.
        -12    1    3    3    0    0 -0.11415562647E+02 -0.25272332956E+02  0.11639359887E+02  0.30074583657E+02  0.00000000000E+00 0.  1.
</event>
<event>
 7    1  0.1290195E-011  0.5930190E+02  0.7816164E-02  0.1266605E+00
        -11   -1    0    0    0    0  0.00000000000E+00  0.00000000000E+00  0.45593999997E+02  0.45594000000E+02  0.51100000000E-03 0.  1.
         11   -1    0    0    0    0 -0.00000000000E+00 -0.00000000000E+00 -0.45593999997E+02  0.45594000000E+02  0.51100000000E-03 0. -1.
    9900012    2    1    2    0    0 -0.17579346630E+02 -0.74167292465E+01 -0.25547641300E+02  0.59301901514E+02  0.49999922465E+02 0.  0.
        -12    1    1    2    0    0  0.17579346630E+02  0.74167292465E+01  0.25547641300E+02  0.31886098486E+02  0.00000000000E+00 0.  1.
         11    1    3    3    0    0 -0.14563990851E+01 -0.73022977545E+01 -0.29957418227E+02  0.30868941638E+02  0.51100000000E-03 0. -1.
        -11    1    3    3    0    0  0.39725132095E+01  0.55320409277E+01 -0.96444484410E+00  0.68785530560E+01  0.51100000000E-03 0.  1.
        -12    1    3    3    0    0 -0.20095460754E+02 -0.56464724197E+01  0.53742217707E+01  0.21554406820E+02  0.00000000000E+00 0.  1.
</event>
<event>
 7    1  0.1290195E-011  0.5930201E+02  0.7816164E-02  0.1266605E+00
        -11   -1    0    0    0    0  0.00000000000E+00  0.00000000000E+00  0.45593999997E+02  0.45594000000E+02  0.51100000000E-03 0.  1.
         11   -1    0    0    0    0 -0.00000000000E+00 -0.00000000000E+00 -0.45593999997E+02  0.45594000000E+02  0.51100000000E-03 0. -1.
    9900012    2    1    2    0    0 -0.52444225300E+01  0.77788290413E-01 -0.31451649183E+02  0.59302011619E+02  0.50000123270E+02 0.  0.
        -12    1    1    2    0    0  0.52444225300E+01 -0.77788290413E-01  0.31451649183E+02  0.31885988381E+02  0.00000000000E+00 0.  1.
         11    1    3    3    0    0 -0.97544330887E+00 -0.11272224286E+02 -0.13589971639E+02  0.17683378054E+02  0.51100000000E-03 0. -1.
        -11    1    3    3    0    0 -0.15560051299E+02  0.47652617703E+01 -0.22483389750E+02  0.27754742497E+02  0.51100000000E-03 0.  1.
        -12    1    3    3    0    0  0.11291072078E+02  0.65847508060E+01  0.46217122056E+01  0.13863891068E+02  0.00000000000E+00 0.  1.
</event>
<event>
 7    1  0.1290195E-011  0.5930191E+02  0.7816164E-02  0.1266605E+00
        -11   -1    0    0    0    0  0.00000000000E+00  0.00000000000E+00  0.45593999997E+02  0.45594000000E+02  0.51100000000E-03 0.  1.
         11   -1    0    0    0    0 -0.00000000000E+00 -0.00000000000E+00 -0.45593999997E+02  0.45594000000E+02  0.51100000000E-03 0. -1.
    9900012    2    1    2    0    0  0.24569671550E+02 -0.63776430228E+00  0.20313719003E+02  0.59301910821E+02  0.49999939439E+02 0.  0.
        -12    1    1    2    0    0 -0.24569671550E+02  0.63776430228E+00 -0.20313719003E+02  0.31886089179E+02  0.00000000000E+00 0.  1.
         11    1    3    3    0    0  0.10372315394E+02  0.28197450262E+01  0.13537442389E+02  0.17285781305E+02  0.51100000000E-03 0. -1.
        -11    1    3    3    0    0  0.22047149330E+02  0.15754316141E+01  0.17217036673E+02  0.28017586092E+02  0.51100000000E-03 0.  1.
         12    1    3    3    0    0 -0.78497931743E+01 -0.50329409425E+01 -0.10440760058E+02  0.13998543424E+02  0.00000000000E+00 0. -1.
</event>
<event>
 7    1  0.1290195E-011  0.5930195E+02  0.7816164E-02  0.1266605E+00
        -11   -1    0    0    0    0  0.00000000000E+00  0.00000000000E+00  0.45593999997E+02  0.45594000000E+02  0.51100000000E-03 0.  1.
         11   -1    0    0    0    0 -0.00000000000E+00 -0.00000000000E+00 -0.45593999997E+02  0.45594000000E+02  0.51100000000E-03 0. -1.
    9900012    2    1    2    0    0  0.75493634284E+01  0.21928585925E+02 -0.21882974798E+02  0.59301947330E+02  0.50000006023E+02 0.  0.
        -12    1    1    2    0    0 -0.75493634284E+01 -0.21928585925E+02  0.21882974798E+02  0.31886052670E+02  0.00000000000E+00 0.  1.
         11    1    3    3    0    0 -0.50113156149E+01  0.12851578779E+02 -0.87674013698E+01  0.16344530839E+02  0.51100000000E-03 0. -1.
        -11    1    3    3    0    0 -0.11774884785E+02  0.39427888013E+00 -0.12407005879E+02  0.17109563486E+02  0.51100000000E-03 0.  1.
         12    1    3    3    0    0  0.24335563828E+02  0.86827282658E+01 -0.70856754894E+00  0.25847853005E+02  0.00000000000E+00 0. -1.
</event>
<event>
 7    1  0.1290195E-011  0.5930196E+02  0.7816164E-02  0.1266605E+00
        -11   -1    0    0    0    0  0.00000000000E+00  0.00000000000E+00  0.45593999997E+02  0.45594000000E+02  0.51100000000E-03 0.  1.
         11   -1    0    0    0    0 -0.00000000000E+00 -0.00000000000E+00 -0.45593999997E+02  0.45594000000E+02  0.51100000000E-03 0. -1.
    9900012    2    1    2    0    0 -0.33684208970E+01 -0.27914704840E+02 -0.15038035858E+02  0.59301960294E+02  0.50000029666E+02 0.  0.
        -12    1    1    2    0    0  0.33684208970E+01  0.27914704840E+02  0.15038035858E+02  0.31886039706E+02  0.00000000000E+00 0.  1.
         11    1    3    3    0    0  0.20310748226E+01 -0.44881670327E+01  0.21458465478E+01  0.53734128742E+01  0.51100000000E-03 0. -1.
        -11    1    3    3    0    0  0.12566247909E+02 -0.78419617947E+00  0.85576555671E+01  0.15223633575E+02  0.51100000000E-03 0.  1.
         12    1    3    3    0    0 -0.17965743628E+02 -0.22642341628E+02 -0.25741537973E+02  0.38704913845E+02  0.00000000000E+00 0. -1.
</event>
<event>
 7    1  0.1290195E-011  0.5930194E+02  0.7816164E-02  0.1266605E+00
        -11   -1    0    0    0    0  0.00000000000E+00  0.00000000000E+00  0.45593999997E+02  0.45594000000E+02  0.51100000000E-03 0. -1.
         11   -1    0    0    0    0 -0.00000000000E+00 -0.00000000000E+00 -0.45593999997E+02  0.45594000000E+02  0.51100000000E-03 0.  1.
    9900012    2    1    2    0    0 -0.31191095240E+02  0.47785565653E+01 -0.45827962193E+01  0.59301936488E+02  0.49999986249E+02 0.  0.
        -12    1    1    2    0    0  0.31191095240E+02 -0.47785565653E+01  0.45827962193E+01  0.31886063512E+02  0.00000000000E+00 0.  1.
         11    1    3    3    0    0 -0.23315662995E+01 -0.99233918111E+01 -0.11131694524E+02  0.15093857350E+02  0.51100000000E-03 0. -1.
        -11    1    3    3    0    0  0.34841893946E+01 -0.40226469059E+01  0.41676655816E+01  0.67594896648E+01  0.51100000000E-03 0.  1.
        -12    1    3    3    0    0 -0.32343718335E+02  0.18724595282E+02  0.23812327236E+01  0.37448589473E+02  0.00000000000E+00 0.  1.
</event>
<event>
 7    1  0.1290195E-011  0.5930201E+02  0.7816164E-02  0.1266605E+00
        -11   -1    0    0    0    0  0.00000000000E+00  0.00000000000E+00  0.45593999997E+02  0.45594000000E+02  0.51100000000E-03 0.  1.
         11   -1    0    0    0    0 -0.00000000000E+00 -0.00000000000E+00 -0.45593999997E+02  0.45594000000E+02  0.51100000000E-03 0. -1.
    9900012    2    1    2    0    0  0.16514182226E+02 -0.27259912275E+02 -0.94627335946E+00  0.59302008324E+02  0.50000117261E+02 0.  0.
        -12    1    1    2    0    0 -0.16514182226E+02  0.27259912275E+02  0.94627335946E+00  0.31885991676E+02  0.00000000000E+00 0.  1.
         11    1    3    3    0    0  0.31520595601E+01 -0.32617031333E+02 -0.10175313640E+02  0.34312435360E+02  0.51100000000E-03 0. -1.
        -11    1    3    3    0    0  0.11749168293E+02 -0.45211173506E+01  0.79744611278E+01  0.14902197429E+02  0.51100000000E-03 0.  1.
        -12    1    3    3    0    0  0.16129543737E+01  0.98782364078E+01  0.12545791525E+01  0.10087375535E+02  0.00000000000E+00 0.  1.
</event>
<event>
 7    1  0.1290195E-011  0.5930197E+02  0.7816164E-02  0.1266605E+00
        -11   -1    0    0    0    0  0.00000000000E+00  0.00000000000E+00  0.45593999997E+02  0.45594000000E+02  0.51100000000E-03 0. -1.
         11   -1    0    0    0    0 -0.00000000000E+00 -0.00000000000E+00 -0.45593999997E+02  0.45594000000E+02  0.51100000000E-03 0.  1.
    9900012    2    1    2    0    0 -0.22583682681E+02  0.12675470490E+02  0.18601839386E+02  0.59301973214E+02  0.50000053230E+02 0.  0.
        -12    1    1    2    0    0  0.22583682681E+02 -0.12675470490E+02 -0.18601839386E+02  0.31886026786E+02  0.00000000000E+00 0.  1.
         11    1    3    3    0    0 -0.97069677171E+00 -0.12393407205E+02  0.34625403466E+00  0.12436184564E+02  0.51100000000E-03 0.  1.
        -11    1    3    3    0    0 -0.46671536965E+01  0.48742825537E+01  0.19337359212E+02  0.20481074572E+02  0.51100000000E-03 0. -1.
         12    1    3    3    0    0 -0.16945832213E+02  0.20194595142E+02 -0.10817738605E+01  0.26384714079E+02  0.00000000000E+00 0. -1.
</event>
<event>
 7    1  0.1290195E-011  0.5930196E+02  0.7816164E-02  0.1266605E+00
        -11   -1    0    0    0    0  0.00000000000E+00  0.00000000000E+00  0.45593999997E+02  0.45594000000E+02  0.51100000000E-03 0. -1.
         11   -1    0    0    0    0 -0.00000000000E+00 -0.00000000000E+00 -0.45593999997E+02  0.45594000000E+02  0.51100000000E-03 0.  1.
    9900012    2    1    2    0    0  0.20801859256E+02 -0.18695434411E+02  0.15312844065E+02  0.59301955879E+02  0.50000021614E+02 0.  0.
        -12    1    1    2    0    0 -0.20801859256E+02  0.18695434411E+02 -0.15312844065E+02  0.31886044121E+02  0.00000000000E+00 0.  1.
         11    1    3    3    0    0  0.19910073594E+02  0.41677238476E+01  0.20663061182E+02  0.28995569494E+02  0.51100000000E-03 0. -1.
        -11    1    3    3    0    0 -0.39637379903E+01  0.12053908951E+01 -0.39323390947E+01  0.57120466632E+01  0.51100000000E-03 0.  1.
        -12    1    3    3    0    0  0.48555236522E+01 -0.24068549154E+02 -0.14178780219E+01  0.24594339722E+02  0.00000000000E+00 0.  1.
</event>
<event>
 7    1  0.1290195E-011  0.5930192E+02  0.7816164E-02  0.1266605E+00
        -11   -1    0    0    0    0  0.00000000000E+00  0.00000000000E+00  0.45593999997E+02  0.45594000000E+02  0.51100000000E-03 0.  1.
         11   -1    0    0    0    0 -0.00000000000E+00 -0.00000000000E+00 -0.45593999997E+02  0.45594000000E+02  0.51100000000E-03 0. -1.
    9900012    2    1    2    0    0 -0.97171253724E+01  0.29792534843E+02 -0.58910663107E+01  0.59301916513E+02  0.49999949819E+02 0.  0.
        -12    1    1    2    0    0  0.97171253724E+01 -0.29792534843E+02  0.58910663107E+01  0.31886083487E+02  0.00000000000E+00 0.  1.
         11    1    3    3    0    0  0.10208842045E+02  0.12912146796E+02 -0.11862857698E+02  0.20289686636E+02  0.51100000000E-03 0. -1.
        -11    1    3    3    0    0 -0.15738537497E+02  0.24254406357E+02  0.49525833428E+00  0.28917521875E+02  0.51100000000E-03 0.  1.
        -12    1    3    3    0    0 -0.41874299198E+01 -0.73740183100E+01  0.54765330527E+01  0.10094708002E+02  0.00000000000E+00 0.  1.
</event>
<event>
 7    1  0.1290195E-011  0.5930195E+02  0.7816164E-02  0.1266605E+00
        -11   -1    0    0    0    0  0.00000000000E+00  0.00000000000E+00  0.45593999997E+02  0.45594000000E+02  0.51100000000E-03 0. -1.
         11   -1    0    0    0    0 -0.00000000000E+00 -0.00000000000E+00 -0.45593999997E+02  0.45594000000E+02  0.51100000000E-03 0.  1.
    9900012    2    1    2    0    0  0.23679358105E+02  0.16895072393E+02  0.13060044684E+02  0.59301949154E+02  0.50000009349E+02 0.  0.
        -12    1    1    2    0    0 -0.23679358105E+02 -0.16895072393E+02 -0.13060044684E+02  0.31886050846E+02  0.00000000000E+00 0.  1.
         11    1    3    3    0    0  0.12016806742E+02  0.62756899544E+01  0.19579669226E+02  0.23814940183E+02  0.51100000000E-03 0. -1.
        -11    1    3    3    0    0  0.21478562867E+02  0.29293988596E+01 -0.60506404432E+00  0.21685851223E+02  0.51100000000E-03 0.  1.
        -12    1    3    3    0    0 -0.98160115047E+01  0.76899835788E+01 -0.59145604970E+01  0.13801157748E+02  0.00000000000E+00 0.  1.
</event>
<event>
 7    1  0.1290195E-011  0.5930195E+02  0.7816164E-02  0.1266605E+00
        -11   -1    0    0    0    0  0.00000000000E+00  0.00000000000E+00  0.45593999997E+02  0.45594000000E+02  0.51100000000E-03 0.  1.
         11   -1    0    0    0    0 -0.00000000000E+00 -0.00000000000E+00 -0.45593999997E+02  0.45594000000E+02  0.51100000000E-03 0. -1.
    9900012    2    1    2    0    0  0.91972375803E+01  0.30346487669E+02 -0.33498994577E+01  0.59301947887E+02  0.50000007039E+02 0.  0.
        -12    1    1    2    0    0 -0.91972375803E+01 -0.30346487669E+02  0.33498994577E+01  0.31886052113E+02  0.00000000000E+00 0.  1.
         11    1    3    3    0    0  0.30417534117E+01  0.69597417948E+01 -0.10815792197E+02  0.13216339538E+02  0.51100000000E-03 0. -1.
        -11    1    3    3    0    0  0.15178883152E+02  0.28466809815E+02 -0.16313151381E+01  0.32301995977E+02  0.51100000000E-03 0.  1.
        -12    1    3    3    0    0 -0.90233989838E+01 -0.50800639401E+01  0.90972078774E+01  0.13783612372E+02  0.00000000000E+00 0.  1.
</event>
<event>
 7    1  0.1290195E-011  0.5930195E+02  0.7816164E-02  0.1266605E+00
        -11   -1    0    0    0    0  0.00000000000E+00  0.00000000000E+00  0.45593999997E+02  0.45594000000E+02  0.51100000000E-03 0. -1.
         11   -1    0    0    0    0 -0.00000000000E+00 -0.00000000000E+00 -0.45593999997E+02  0.45594000000E+02  0.51100000000E-03 0.  1.
    9900012    2    1    2    0    0  0.91774289202E+01 -0.30437553577E+02  0.24597162466E+01  0.59301951744E+02  0.50000014073E+02 0.  0.
        -12    1    1    2    0    0 -0.91774289202E+01  0.30437553577E+02 -0.24597162466E+01  0.31886048256E+02  0.00000000000E+00 0.  1.
         11    1    3    3    0    0  0.14442688009E+02 -0.30221968324E+01  0.49325026478E+01  0.15558100567E+02  0.51100000000E-03 0. -1.
        -11    1    3    3    0    0  0.11579223672E+02 -0.16988404152E+02 -0.96000601872E+01  0.22690206089E+02  0.51100000000E-03 0.  1.
        -12    1    3    3    0    0 -0.16844482761E+02 -0.10426952593E+02  0.71272737860E+01  0.21053645088E+02  0.00000000000E+00 0.  1.
</event>
<event>
 7    1  0.1290195E-011  0.5930193E+02  0.7816164E-02  0.1266605E+00
        -11   -1    0    0    0    0  0.00000000000E+00  0.00000000000E+00  0.45593999997E+02  0.45594000000E+02  0.51100000000E-03 0. -1.
         11   -1    0    0    0    0 -0.00000000000E+00 -0.00000000000E+00 -0.45593999997E+02  0.45594000000E+02  0.51100000000E-03 0.  1.
    9900012    2    1    2    0    0  0.27272522594E+02  0.51438273576E+01  0.15699418312E+02  0.59301934331E+02  0.49999982315E+02 0.  0.
        -12    1    1    2    0    0 -0.27272522594E+02 -0.51438273576E+01 -0.15699418312E+02  0.31886065669E+02  0.00000000000E+00 0.  1.
         11    1    3    3    0    0  0.35999048967E+01  0.20250626960E+02  0.99031336383E+01  0.22828036790E+02  0.51100000000E-03 0. -1.
        -11    1    3    3    0    0 -0.28716633981E+01 -0.53446489636E+01  0.55011304742E+01  0.81898815603E+01  0.51100000000E-03 0.  1.
        -12    1    3    3    0    0  0.26544281096E+02 -0.97621506391E+01  0.29515419946E+00  0.28284015981E+02  0.00000000000E+00 0.  1.
</event>
<event>
 7    1  0.1290195E-011  0.5930193E+02  0.7816164E-02  0.1266605E+00
        -11   -1    0    0    0    0  0.00000000000E+00  0.00000000000E+00  0.45593999997E+02  0.45594000000E+02  0.51100000000E-03 0.  1.
         11   -1    0    0    0    0 -0.00000000000E+00 -0.00000000000E+00 -0.45593999997E+02  0.45594000000E+02  0.51100000000E-03 0. -1.
    9900012    2    1    2    0    0  0.44055164216E+01  0.12243271306E+02 -0.29110394477E+02  0.59301931979E+02  0.49999978026E+02 0.  0.
        -12    1    1    2    0    0 -0.44055164216E+01 -0.12243271306E+02  0.29110394477E+02  0.31886068021E+02  0.00000000000E+00 0.  1.
         11    1    3    3    0    0 -0.13445906198E+01  0.15544231476E+02 -0.57988447279E+01  0.16645049010E+02  0.51100000000E-03 0.  1.
        -11    1    3    3    0    0  0.19309292437E+02 -0.45382505974E+01 -0.61844162569E+01  0.20777186951E+02  0.51100000000E-03 0. -1.
         12    1    3    3    0    0 -0.13559185395E+02  0.12372904277E+01 -0.17127133492E+02  0.21879696018E+02  0.00000000000E+00 0. -1.
</event>
<event>
 7    1  0.1290195E-011  0.5930196E+02  0.7816164E-02  0.1266605E+00
        -11   -1    0    0    0    0  0.00000000000E+00  0.00000000000E+00  0.45593999997E+02  0.45594000000E+02  0.51100000000E-03 0.  1.
         11   -1    0    0    0    0 -0.00000000000E+00 -0.00000000000E+00 -0.45593999997E+02  0.45594000000E+02  0.51100000000E-03 0. -1.
    9900012    2    1    2    0    0  0.15591614923E+02 -0.77705782463E+01 -0.26706541052E+02  0.59301957957E+02  0.50000025404E+02 0.  0.
        -12    1    1    2    0    0 -0.15591614923E+02  0.77705782463E+01  0.26706541052E+02  0.31886042043E+02  0.00000000000E+00 0.  1.
         11    1    3    3    0    0  0.45266836495E+01  0.98106175275E+01 -0.22365101875E+02  0.24838213769E+02  0.51100000000E-03 0. -1.
        -11    1    3    3    0    0  0.99198830382E+00  0.65253632555E+01 -0.50768069518E+01  0.83269667646E+01  0.51100000000E-03 0.  1.
        -12    1    3    3    0    0  0.10072942970E+02 -0.24106559029E+02  0.73536777475E+00  0.26136777423E+02  0.00000000000E+00 0.  1.
</event>
<event>
 7    1  0.1290195E-011  0.5930195E+02  0.7816164E-02  0.1266605E+00
        -11   -1    0    0    0    0  0.00000000000E+00  0.00000000000E+00  0.45593999997E+02  0.45594000000E+02  0.51100000000E-03 0.  1.
         11   -1    0    0    0    0 -0.00000000000E+00 -0.00000000000E+00 -0.45593999997E+02  0.45594000000E+02  0.51100000000E-03 0. -1.
    9900012    2    1    2    0    0  0.68928025714E+01  0.31127557117E+02  0.53381045643E+00  0.59301945164E+02  0.50000002073E+02 0.  0.
        -12    1    1    2    0    0 -0.68928025714E+01 -0.31127557117E+02 -0.53381045643E+00  0.31886054836E+02  0.00000000000E+00 0.  1.
         11    1    3    3    0    0 -0.91424548691E+01  0.31885382304E+02 -0.41891725159E+01  0.33433684397E+02  0.51100000000E-03 0. -1.
        -11    1    3    3    0    0  0.20388397028E+01  0.31338082243E+01 -0.65082495243E+01  0.75056600943E+01  0.51100000000E-03 0.  1.
        -12    1    3    3    0    0  0.13996417738E+02 -0.38916334110E+01  0.11231232497E+02  0.18362600673E+02  0.00000000000E+00 0.  1.
</event>
<event>
 7    1  0.1290195E-011  0.5930195E+02  0.7816164E-02  0.1266605E+00
        -11   -1    0    0    0    0  0.00000000000E+00  0.00000000000E+00  0.45593999997E+02  0.45594000000E+02  0.51100000000E-03 0.  1.
         11   -1    0    0    0    0 -0.00000000000E+00 -0.00000000000E+00 -0.45593999997E+02  0.45594000000E+02  0.51100000000E-03 0. -1.
    9900012    2    1    2    0    0 -0.45144460616E+01  0.18120288444E+01 -0.31512797016E+02  0.59301952149E+02  0.50000014812E+02 0.  0.
        -12    1    1    2    0    0  0.45144460616E+01 -0.18120288444E+01  0.31512797016E+02  0.31886047851E+02  0.00000000000E+00 0.  1.
         11    1    3    3    0    0  0.93392400153E+01 -0.12505366436E+01 -0.20643920978E+02  0.22692657834E+02  0.51100000000E-03 0.  1.
        -11    1    3    3    0    0  0.51784303857E+01 -0.58650765300E+01 -0.13316914560E+02  0.15445241261E+02  0.51100000000E-03 0. -1.
        -12    1    3    3    0    0 -0.19032116463E+02  0.89276420180E+01  0.24480385228E+01  0.21164053054E+02  0.00000000000E+00 0.  1.
</event>
<event>
 7    1  0.1290195E-011  0.5930194E+02  0.7816164E-02  0.1266605E+00
        -11   -1    0    0    0    0  0.00000000000E+00  0.00000000000E+00  0.45593999997E+02  0.45594000000E+02  0.51100000000E-03 0.  1.
         11   -1    0    0    0    0 -0.00000000000E+00 -0.00000000000E+00 -0.45593999997E+02  0.45594000000E+02  0.51100000000E-03 0. -1.
    9900012    2    1    2    0    0  0.11440256318E+02  0.29546178804E+02 -0.35867392978E+01  0.59301939639E+02  0.49999991995E+02 0.  0.
        -12    1    1    2    0    0 -0.11440256318E+02 -0.29546178804E+02  0.35867392978E+01  0.31886060361E+02  0.00000000000E+00 0.  1.
         11    1    3    3    0    0 -0.56264476469E+01 -0.89332851423E+00  0.42314277929E+01  0.70964730948E+01  0.51100000000E-03 0. -1.
        -11    1    3    3    0    0  0.19167066443E+00 -0.70199893258E+01  0.56029354530E+01  0.89838674150E+01  0.51100000000E-03 0.  1.
         12    1    3    3    0    0  0.16875033301E+02  0.37459496645E+02 -0.13421102544E+02  0.43221599129E+02  0.00000000000E+00 0. -1.
</event>
<event>
 7    1  0.1290195E-011  0.5930194E+02  0.7816164E-02  0.1266605E+00
        -11   -1    0    0    0    0  0.00000000000E+00  0.00000000000E+00  0.45593999997E+02  0.45594000000E+02  0.51100000000E-03 0.  1.
         11   -1    0    0    0    0 -0.00000000000E+00 -0.00000000000E+00 -0.45593999997E+02  0.45594000000E+02  0.51100000000E-03 0. -1.
    9900012    2    1    2    0    0 -0.23274795506E+02  0.10827029927E+02 -0.18915074862E+02  0.59301941292E+02  0.49999995011E+02 0.  0.
        -12    1    1    2    0    0  0.23274795506E+02 -0.10827029927E+02  0.18915074862E+02  0.31886058708E+02  0.00000000000E+00 0.  1.
         11    1    3    3    0    0 -0.58892593935E+01  0.37740752759E+00 -0.26384027636E+02  0.27035952493E+02  0.51100000000E-03 0.  1.
        -11    1    3    3    0    0 -0.23902907690E+01 -0.44496723833E+01 -0.54988240233E+01  0.74666016486E+01  0.51100000000E-03 0. -1.
         12    1    3    3    0    0 -0.14995245344E+02  0.14899294783E+02  0.12967776798E+02  0.24799387150E+02  0.00000000000E+00 0. -1.
</event>
<event>
 7    1  0.1290195E-011  0.5930188E+02  0.7816164E-02  0.1266605E+00
        -11   -1    0    0    0    0  0.00000000000E+00  0.00000000000E+00  0.45593999997E+02  0.45594000000E+02  0.51100000000E-03 0. -1.
         11   -1    0    0    0    0 -0.00000000000E+00 -0.00000000000E+00 -0.45593999997E+02  0.45594000000E+02  0.51100000000E-03 0.  1.
    9900012    2    1    2    0    0  0.93078503248E+01 -0.29443329331E+02  0.79485147234E+01  0.59301880667E+02  0.49999884446E+02 0.  0.
        -12    1    1    2    0    0 -0.93078503248E+01  0.29443329331E+02 -0.79485147234E+01  0.31886119333E+02  0.00000000000E+00 0.  1.
         11    1    3    3    0    0  0.18648943936E+02 -0.21277492767E+01 -0.31492232291E+01  0.19032289251E+02  0.51100000000E-03 0. -1.
        -11    1    3    3    0    0 -0.66592034407E+01  0.17504898357E+01 -0.33986880321E+01  0.76785601339E+01  0.51100000000E-03 0.  1.
        -12    1    3    3    0    0 -0.26818901705E+01 -0.29066069890E+02  0.14496425985E+02  0.32591031283E+02  0.00000000000E+00 0.  1.
</event>
<event>
 7    1  0.1290195E-011  0.5930196E+02  0.7816164E-02  0.1266605E+00
        -11   -1    0    0    0    0  0.00000000000E+00  0.00000000000E+00  0.45593999997E+02  0.45594000000E+02  0.51100000000E-03 0.  1.
         11   -1    0    0    0    0 -0.00000000000E+00 -0.00000000000E+00 -0.45593999997E+02  0.45594000000E+02  0.51100000000E-03 0. -1.
    9900012    2    1    2    0    0 -0.65162699479E+01 -0.10087530815E+01 -0.31196797910E+02  0.59301959847E+02  0.50000028851E+02 0.  0.
        -12    1    1    2    0    0  0.65162699479E+01  0.10087530815E+01  0.31196797910E+02  0.31886040153E+02  0.00000000000E+00 0.  1.
         11    1    3    3    0    0 -0.15012075290E+02 -0.42017216102E+01 -0.33815878612E+01  0.15951551828E+02  0.51100000000E-03 0. -1.
        -11    1    3    3    0    0 -0.20944261398E+01 -0.68057357962E+01 -0.27890996464E+02  0.28785627397E+02  0.51100000000E-03 0.  1.
        -12    1    3    3    0    0  0.10590231482E+02  0.99987043249E+01  0.75786415916E-01  0.14564780623E+02  0.00000000000E+00 0.  1.
</event>
<event>
 7    1  0.1290195E-011  0.5930191E+02  0.7816164E-02  0.1266605E+00
        -11   -1    0    0    0    0  0.00000000000E+00  0.00000000000E+00  0.45593999997E+02  0.45594000000E+02  0.51100000000E-03 0.  1.
         11   -1    0    0    0    0 -0.00000000000E+00 -0.00000000000E+00 -0.45593999997E+02  0.45594000000E+02  0.51100000000E-03 0. -1.
    9900012    2    1    2    0    0 -0.35831328612E+01  0.30369614433E+02  0.90316214577E+01  0.59301913566E+02  0.49999944445E+02 0.  0.
        -12    1    1    2    0    0  0.35831328612E+01 -0.30369614433E+02 -0.90316214577E+01  0.31886086434E+02  0.00000000000E+00 0.  1.
         11    1    3    3    0    0  0.11315901660E+01  0.21533595694E+02 -0.62662720176E+01  0.22455342462E+02  0.51100000000E-03 0. -1.
        -11    1    3    3    0    0 -0.58497230268E+01  0.53633674849E+01 -0.91585519353E+01  0.12118747628E+02  0.51100000000E-03 0.  1.
        -12    1    3    3    0    0  0.11349999996E+01  0.34726512538E+01  0.24456445411E+02  0.24727823476E+02  0.00000000000E+00 0.  1.
</event>
<event>
 7    1  0.1290195E-011  0.5930195E+02  0.7816164E-02  0.1266605E+00
        -11   -1    0    0    0    0  0.00000000000E+00  0.00000000000E+00  0.45593999997E+02  0.45594000000E+02  0.51100000000E-03 0. -1.
         11   -1    0    0    0    0 -0.00000000000E+00 -0.00000000000E+00 -0.45593999997E+02  0.45594000000E+02  0.51100000000E-03 0.  1.
    9900012    2    1    2    0    0 -0.74963384142E+00  0.31819574113E+02 -0.19164100198E+01  0.59301954855E+02  0.50000019746E+02 0.  0.
        -12    1    1    2    0    0  0.74963384142E+00 -0.31819574113E+02  0.19164100198E+01  0.31886045145E+02  0.00000000000E+00 0.  1.
         11    1    3    3    0    0 -0.96427807308E+01  0.67407418494E+01 -0.11183745852E+02  0.16232590442E+02  0.51100000000E-03 0.  1.
        -11    1    3    3    0    0  0.10140674496E+02  0.16150548326E+02 -0.10192236059E+02  0.21623023993E+02  0.51100000000E-03 0. -1.
        -12    1    3    3    0    0 -0.12475276063E+01  0.89282839382E+01  0.19459571891E+02  0.21446340420E+02  0.00000000000E+00 0.  1.
</event>
<event>
 7    1  0.1290195E-011  0.5930196E+02  0.7816164E-02  0.1266605E+00
        -11   -1    0    0    0    0  0.00000000000E+00  0.00000000000E+00  0.45593999997E+02  0.45594000000E+02  0.51100000000E-03 0. -1.
         11   -1    0    0    0    0 -0.00000000000E+00 -0.00000000000E+00 -0.45593999997E+02  0.45594000000E+02  0.51100000000E-03 0.  1.
    9900012    2    1    2    0    0 -0.21278549700E+02 -0.16875030803E+02  0.16708564802E+02  0.59301961054E+02  0.50000031053E+02 0.  0.
        -12    1    1    2    0    0  0.21278549700E+02  0.16875030803E+02 -0.16708564802E+02  0.31886038946E+02  0.00000000000E+00 0.  1.
         11    1    3    3    0    0  0.37918833012E+01 -0.96611616913E+01  0.72349947909E+01  0.12651544336E+02  0.51100000000E-03 0. -1.
        -11    1    3    3    0    0  0.61480510786E+01 -0.11552237705E+02  0.74700252697E+01  0.15068311314E+02  0.51100000000E-03 0.  1.
         12    1    3    3    0    0 -0.31218484079E+02  0.43383685936E+01  0.20035447410E+01  0.31582105405E+02  0.00000000000E+00 0. -1.
</event>
<event>
 7    1  0.1290195E-011  0.5930194E+02  0.7816164E-02  0.1266605E+00
        -11   -1    0    0    0    0  0.00000000000E+00  0.00000000000E+00  0.45593999997E+02  0.45594000000E+02  0.51100000000E-03 0.  1.
         11   -1    0    0    0    0 -0.00000000000E+00 -0.00000000000E+00 -0.45593999997E+02  0.45594000000E+02  0.51100000000E-03 0. -1.
    9900012    2    1    2    0    0  0.58302184832E+00 -0.11515697244E+02 -0.29728265539E+02  0.59301937693E+02  0.49999988446E+02 0.  0.
        -12    1    1    2    0    0 -0.58302184832E+00  0.11515697244E+02  0.29728265539E+02  0.31886062307E+02  0.00000000000E+00 0.  1.
         11    1    3    3    0    0 -0.67154171799E+00 -0.68686622179E+01  0.46589785988E+01  0.83267983515E+01  0.51100000000E-03 0. -1.
        -11    1    3    3    0    0 -0.17719937870E+02 -0.30372590903E+01 -0.21278500827E+02  0.27856700066E+02  0.51100000000E-03 0.  1.
         12    1    3    3    0    0  0.18974501436E+02 -0.16097759359E+01 -0.13108743312E+02  0.23118439275E+02  0.00000000000E+00 0. -1.
</event>
<event>
 7    1  0.1290195E-011  0.5930193E+02  0.7816164E-02  0.1266605E+00
        -11   -1    0    0    0    0  0.00000000000E+00  0.00000000000E+00  0.45593999997E+02  0.45594000000E+02  0.51100000000E-03 0. -1.
         11   -1    0    0    0    0 -0.00000000000E+00 -0.00000000000E+00 -0.45593999997E+02  0.45594000000E+02  0.51100000000E-03 0.  1.
    9900012    2    1    2    0    0  0.11177738667E+02 -0.24623237505E+02  0.16896028779E+02  0.59301930072E+02  0.49999974548E+02 0.  0.
        -12    1    1    2    0    0 -0.11177738667E+02  0.24623237505E+02 -0.16896028779E+02  0.31886069928E+02  0.00000000000E+00 0.  1.
         11    1    3    3    0    0  0.52002631478E+01  0.72502041788E+01  0.37455075119E+01  0.96766225628E+01  0.51100000000E-03 0. -1.
        -11    1    3    3    0    0 -0.11667106149E+02 -0.28739373903E+00  0.31331221497E+01  0.12083890752E+02  0.51100000000E-03 0.  1.
        -12    1    3    3    0    0  0.17644581668E+02 -0.31586047945E+02  0.10017399118E+02  0.37541416757E+02  0.00000000000E+00 0.  1.
</event>
<event>
 7    1  0.1290195E-011  0.5930199E+02  0.7816164E-02  0.1266605E+00
        -11   -1    0    0    0    0  0.00000000000E+00  0.00000000000E+00  0.45593999997E+02  0.45594000000E+02  0.51100000000E-03 0.  1.
         11   -1    0    0    0    0 -0.00000000000E+00 -0.00000000000E+00 -0.45593999997E+02  0.45594000000E+02  0.51100000000E-03 0. -1.
    9900012    2    1    2    0    0  0.19676146504E+02 -0.10865719105E+02 -0.22616439907E+02  0.59301985088E+02  0.50000074884E+02 0.  0.
        -12    1    1    2    0    0 -0.19676146504E+02  0.10865719105E+02  0.22616439907E+02  0.31886014912E+02  0.00000000000E+00 0.  1.
         11    1    3    3    0    0  0.78205275395E+00 -0.30918032913E+00  0.11356445563E+02  0.11387539466E+02  0.51100000000E-03 0. -1.
        -11    1    3    3    0    0 -0.29291955129E+01 -0.84797965724E+01 -0.20723705392E+01  0.92077063471E+01  0.51100000000E-03 0.  1.
         12    1    3    3    0    0  0.21823289263E+02 -0.20767422038E+01 -0.31900514931E+02  0.38706739275E+02  0.00000000000E+00 0. -1.
</event>
<event>
 7    1  0.1290195E-011  0.5930218E+02  0.7816164E-02  0.1266604E+00
        -11   -1    0    0    0    0  0.00000000000E+00  0.00000000000E+00  0.45593999997E+02  0.45594000000E+02  0.51100000000E-03 0.  1.
         11   -1    0    0    0    0 -0.00000000000E+00 -0.00000000000E+00 -0.45593999997E+02  0.45594000000E+02  0.51100000000E-03 0. -1.
    9900012    2    1    2    0    0  0.23897615019E+02  0.67011802537E+01 -0.20017583974E+02  0.59302180448E+02  0.50000431171E+02 0.  0.
        -12    1    1    2    0    0 -0.23897615019E+02 -0.67011802537E+01  0.20017583974E+02  0.31885819552E+02  0.00000000000E+00 0.  1.
         11    1    3    3    0    0  0.22092975073E+01  0.86028121160E+01  0.59432188112E+01  0.10686965045E+02  0.51100000000E-03 0. -1.
        -11    1    3    3    0    0  0.58392287121E+01  0.11769762813E+01  0.86044710106E+01  0.10465122396E+02  0.51100000000E-03 0.  1.
         12    1    3    3    0    0  0.15849088800E+02 -0.30786081436E+01 -0.34565273795E+02  0.38150093007E+02  0.00000000000E+00 0. -1.
</event>
<event>
 7    1  0.1290195E-011  0.5930175E+02  0.7816164E-02  0.1266605E+00
        -11   -1    0    0    0    0  0.00000000000E+00  0.00000000000E+00  0.45593999997E+02  0.45594000000E+02  0.51100000000E-03 0.  1.
         11   -1    0    0    0    0 -0.00000000000E+00 -0.00000000000E+00 -0.45593999997E+02  0.45594000000E+02  0.51100000000E-03 0. -1.
    9900012    2    1    2    0    0  0.66972946937E+01  0.25089387058E+02 -0.18504102396E+02  0.59301750540E+02  0.49999647123E+02 0.  0.
        -12    1    1    2    0    0 -0.66972946937E+01 -0.25089387058E+02  0.18504102396E+02  0.31886249460E+02  0.00000000000E+00 0.  1.
         11    1    3    3    0    0 -0.28952550210E+01  0.20034762936E+01 -0.18408229931E+02  0.18741914213E+02  0.51100000000E-03 0. -1.
        -11    1    3    3    0    0  0.18948446231E+02  0.12951257340E+02 -0.84227276050E+01  0.24448333722E+02  0.51100000000E-03 0.  1.
        -12    1    3    3    0    0 -0.93558965158E+01  0.10134653425E+02  0.83268551401E+01  0.16111502604E+02  0.00000000000E+00 0.  1.
</event>
<event>
 7    1  0.1290195E-011  0.5930194E+02  0.7816164E-02  0.1266605E+00
        -11   -1    0    0    0    0  0.00000000000E+00  0.00000000000E+00  0.45593999997E+02  0.45594000000E+02  0.51100000000E-03 0. -1.
         11   -1    0    0    0    0 -0.00000000000E+00 -0.00000000000E+00 -0.45593999997E+02  0.45594000000E+02  0.51100000000E-03 0.  1.
    9900012    2    1    2    0    0 -0.18662401223E+02 -0.68576650172E+01  0.24928053847E+02  0.59301942585E+02  0.49999997369E+02 0.  0.
        -12    1    1    2    0    0  0.18662401223E+02  0.68576650172E+01 -0.24928053847E+02  0.31886057415E+02  0.00000000000E+00 0.  1.
         11    1    3    3    0    0 -0.13758316204E+02 -0.10562032030E+02  0.59040598540E+01  0.18322273560E+02  0.51100000000E-03 0. -1.
        -11    1    3    3    0    0 -0.19074043073E+02  0.89269048349E+01  0.12808558192E+02  0.24648892719E+02  0.51100000000E-03 0.  1.
         12    1    3    3    0    0  0.14169958054E+02 -0.52225378219E+01  0.62154358010E+01  0.16330776306E+02  0.00000000000E+00 0. -1.
</event>
<event>
 7    1  0.1290195E-011  0.5930195E+02  0.7816164E-02  0.1266605E+00
        -11   -1    0    0    0    0  0.00000000000E+00  0.00000000000E+00  0.45593999997E+02  0.45594000000E+02  0.51100000000E-03 0.  1.
         11   -1    0    0    0    0 -0.00000000000E+00 -0.00000000000E+00 -0.45593999997E+02  0.45594000000E+02  0.51100000000E-03 0. -1.
    9900012    2    1    2    0    0  0.10704176090E+02  0.24721087988E+02 -0.17058980542E+02  0.59301946713E+02  0.50000004898E+02 0.  0.
        -12    1    1    2    0    0 -0.10704176090E+02 -0.24721087988E+02  0.17058980542E+02  0.31886053287E+02  0.00000000000E+00 0.  1.
         11    1    3    3    0    0  0.14891550900E+02  0.39466860859E+01 -0.22610871584E+01  0.15570714006E+02  0.51100000000E-03 0.  1.
        -11    1    3    3    0    0 -0.12500190396E+02  0.19306503503E+02  0.37958405533E+01  0.23311032650E+02  0.51100000000E-03 0. -1.
         12    1    3    3    0    0  0.83128155864E+01  0.14678983994E+01 -0.18593733937E+02  0.20420200058E+02  0.00000000000E+00 0. -1.
</event>
<event>
 7    1  0.1290195E-011  0.5930198E+02  0.7816164E-02  0.1266605E+00
        -11   -1    0    0    0    0  0.00000000000E+00  0.00000000000E+00  0.45593999997E+02  0.45594000000E+02  0.51100000000E-03 0.  1.
         11   -1    0    0    0    0 -0.00000000000E+00 -0.00000000000E+00 -0.45593999997E+02  0.45594000000E+02  0.51100000000E-03 0. -1.
    9900012    2    1    2    0    0 -0.68010354411E+01 -0.27986097710E+02 -0.13683664923E+02  0.59301977453E+02  0.50000060960E+02 0.  0.
        -12    1    1    2    0    0  0.68010354411E+01  0.27986097710E+02  0.13683664923E+02  0.31886022547E+02  0.00000000000E+00 0.  1.
         11    1    3    3    0    0 -0.13637865189E+02 -0.36391845562E+01 -0.11976478423E+02  0.18511376687E+02  0.51100000000E-03 0. -1.
        -11    1    3    3    0    0  0.41266617624E+01 -0.44768273590E+01 -0.15365031981E+02  0.16527417480E+02  0.51100000000E-03 0.  1.
        -12    1    3    3    0    0  0.27101679855E+01 -0.19870085795E+02  0.13657845481E+02  0.24263183287E+02  0.00000000000E+00 0.  1.
</event>
<event>
 7    1  0.1290195E-011  0.5930189E+02  0.7816164E-02  0.1266605E+00
        -11   -1    0    0    0    0  0.00000000000E+00  0.00000000000E+00  0.45593999997E+02  0.45594000000E+02  0.51100000000E-03 0. -1.
         11   -1    0    0    0    0 -0.00000000000E+00 -0.00000000000E+00 -0.45593999997E+02  0.45594000000E+02  0.51100000000E-03 0.  1.
    9900012    2    1    2    0    0  0.23110956532E+02  0.60737889593E+01  0.21112008123E+02  0.59301888429E+02  0.49999898601E+02 0.  0.
        -12    1    1    2    0    0 -0.23110956532E+02 -0.60737889593E+01 -0.21112008123E+02  0.31886111571E+02  0.00000000000E+00 0.  1.
         11    1    3    3    0    0 -0.73619905707E+00 -0.89824449363E+01  0.17792499522E+02  0.19944907761E+02  0.51100000000E-03 0. -1.
        -11    1    3    3    0    0  0.79250558602E+00 -0.26162253897E+01  0.93047458728E+01  0.96979892974E+01  0.51100000000E-03 0.  1.
        -12    1    3    3    0    0  0.23054650003E+02  0.17672459285E+02 -0.59852372714E+01  0.29658991371E+02  0.00000000000E+00 0.  1.
</event>
<event>
 7    1  0.1290195E-011  0.5930195E+02  0.7816164E-02  0.1266605E+00
        -11   -1    0    0    0    0  0.00000000000E+00  0.00000000000E+00  0.45593999997E+02  0.45594000000E+02  0.51100000000E-03 0.  1.
         11   -1    0    0    0    0 -0.00000000000E+00 -0.00000000000E+00 -0.45593999997E+02  0.45594000000E+02  0.51100000000E-03 0. -1.
    9900012    2    1    2    0    0 -0.11651345722E+02 -0.22331026561E+02 -0.19552279851E+02  0.59301948947E+02  0.50000008972E+02 0.  0.
        -12    1    1    2    0    0  0.11651345722E+02  0.22331026561E+02  0.19552279851E+02  0.31886051053E+02  0.00000000000E+00 0.  1.
         11    1    3    3    0    0 -0.16649143885E+02 -0.17178388624E+01 -0.21869409338E+02  0.27539354159E+02  0.51100000000E-03 0. -1.
        -11    1    3    3    0    0 -0.98546483790E+00  0.41516048797E+01  0.44883431458E+01  0.61929143769E+01  0.51100000000E-03 0.  1.
        -12    1    3    3    0    0  0.59832630007E+01 -0.24764792578E+02 -0.21712136584E+01  0.25569680411E+02  0.00000000000E+00 0.  1.
</event>
<event>
 7    1  0.1823525E-011  0.5930194E+02  0.7816164E-02  0.1266605E+00
        -11   -1    0    0    0    0  0.00000000000E+00  0.00000000000E+00  0.45593999997E+02  0.45594000000E+02  0.51100000000E-03 0. -1.
         11   -1    0    0    0    0 -0.00000000000E+00 -0.00000000000E+00 -0.45593999997E+02  0.45594000000E+02  0.51100000000E-03 0.  1.
    9900012    2    1    2    0    0 -0.15779565765E+02 -0.17142211096E+02  0.21768569225E+02  0.59301941869E+02  0.49999996064E+02 0.  0.
        -12    1    1    2    0    0  0.15779565765E+02  0.17142211096E+02 -0.21768569225E+02  0.31886058131E+02  0.00000000000E+00 0.  1.
         11    1    3    3    0    0  0.32627387372E+00 -0.98790807756E+01  0.16887029217E+02  0.19567177815E+02  0.51100000000E-03 0. -1.
        -11    1    3    3    0    0  0.82754367903E+01  0.72990980033E+01  0.14303390709E+01  0.11126794500E+02  0.51100000000E-03 0.  1.
        -12    1    3    3    0    0 -0.24381276429E+02 -0.14562228324E+02  0.34512009370E+01  0.28607969554E+02  0.00000000000E+00 0.  1.
</event>
<event>
 7    1  0.1290195E-011  0.5930195E+02  0.7816164E-02  0.1266605E+00
        -11   -1    0    0    0    0  0.00000000000E+00  0.00000000000E+00  0.45593999997E+02  0.45594000000E+02  0.51100000000E-03 0. -1.
         11   -1    0    0    0    0 -0.00000000000E+00 -0.00000000000E+00 -0.45593999997E+02  0.45594000000E+02  0.51100000000E-03 0.  1.
    9900012    2    1    2    0    0 -0.10562081519E+02  0.26558834079E+02  0.14134744863E+02  0.59301949038E+02  0.50000009137E+02 0.  0.
        -12    1    1    2    0    0  0.10562081519E+02 -0.26558834079E+02 -0.14134744863E+02  0.31886050962E+02  0.00000000000E+00 0.  1.
         11    1    3    3    0    0 -0.15438054556E+02  0.21879974902E+02  0.93586077865E+01  0.28366359832E+02  0.51100000000E-03 0. -1.
        -11    1    3    3    0    0  0.49170100633E+01 -0.70809275121E+01  0.13690717577E+02  0.16178759854E+02  0.51100000000E-03 0.  1.
         12    1    3    3    0    0 -0.41037026174E-01  0.11759786689E+02 -0.89145805001E+01  0.14756829351E+02  0.00000000000E+00 0. -1.
</event>
<event>
 7    1  0.1290195E-011  0.5930193E+02  0.7816164E-02  0.1266605E+00
        -11   -1    0    0    0    0  0.00000000000E+00  0.00000000000E+00  0.45593999997E+02  0.45594000000E+02  0.51100000000E-03 0. -1.
         11   -1    0    0    0    0 -0.00000000000E+00 -0.00000000000E+00 -0.45593999997E+02  0.45594000000E+02  0.51100000000E-03 0.  1.
    9900012    2    1    2    0    0 -0.48812623979E+01 -0.27616143045E+02  0.15173767334E+02  0.59301932598E+02  0.49999979155E+02 0.  0.
        -12    1    1    2    0    0  0.48812623979E+01  0.27616143045E+02 -0.15173767334E+02  0.31886067402E+02  0.00000000000E+00 0.  1.
         11    1    3    3    0    0 -0.93571923757E+01  0.44149440383E+01 -0.42103417124E+01  0.11170306961E+02  0.51100000000E-03 0. -1.
        -11    1    3    3    0    0  0.93106061786E+01 -0.24664664768E+01 -0.36939168902E+01  0.10315806636E+02  0.51100000000E-03 0.  1.
         12    1    3    3    0    0 -0.48346762008E+01 -0.29564620606E+02  0.23078025936E+02  0.37815819001E+02  0.00000000000E+00 0. -1.
</event>
<event>
 7    1  0.1290195E-011  0.5930194E+02  0.7816164E-02  0.1266605E+00
        -11   -1    0    0    0    0  0.00000000000E+00  0.00000000000E+00  0.45593999997E+02  0.45594000000E+02  0.51100000000E-03 0.  1.
         11   -1    0    0    0    0 -0.00000000000E+00 -0.00000000000E+00 -0.45593999997E+02  0.45594000000E+02  0.51100000000E-03 0. -1.
    9900012    2    1    2    0    0  0.88356277921E+00 -0.23002915276E+02 -0.22063687114E+02  0.59301935906E+02  0.49999985187E+02 0.  0.
        -12    1    1    2    0    0 -0.88356277921E+00  0.23002915276E+02  0.22063687114E+02  0.31886064094E+02  0.00000000000E+00 0.  1.
         11    1    3    3    0    0  0.14441874855E+02  0.57305198822E+01 -0.13313962002E+02  0.20461382942E+02  0.51100000000E-03 0. -1.
        -11    1    3    3    0    0 -0.41406995647E+00  0.32149605496E+01 -0.13436676829E+01  0.35089697017E+01  0.51100000000E-03 0.  1.
        -12    1    3    3    0    0 -0.13144242119E+02 -0.31948395707E+02 -0.74060574290E+01  0.35331583262E+02  0.00000000000E+00 0.  1.
</event>
<event>
 7    1  0.1290195E-011  0.5930195E+02  0.7816164E-02  0.1266605E+00
        -11   -1    0    0    0    0  0.00000000000E+00  0.00000000000E+00  0.45593999997E+02  0.45594000000E+02  0.51100000000E-03 0. -1.
         11   -1    0    0    0    0 -0.00000000000E+00 -0.00000000000E+00 -0.45593999997E+02  0.45594000000E+02  0.51100000000E-03 0.  1.
    9900012    2    1    2    0    0 -0.27940039644E+02  0.15237753117E+02  0.19710876003E+01  0.59301950986E+02  0.50000012690E+02 0.  0.
        -12    1    1    2    0    0  0.27940039644E+02 -0.15237753117E+02 -0.19710876003E+01  0.31886049014E+02  0.00000000000E+00 0.  1.
         11    1    3    3    0    0 -0.19121947898E+02  0.21618533350E+02 -0.85514006557E+01  0.30102098416E+02  0.51100000000E-03 0. -1.
        -11    1    3    3    0    0  0.63859594014E+01 -0.10912958626E+01 -0.39205701930E+01  0.75724682261E+01  0.51100000000E-03 0.  1.
        -12    1    3    3    0    0 -0.15204051147E+02 -0.52894843699E+01  0.14443058449E+02  0.21627384344E+02  0.00000000000E+00 0.  1.
</event>
<event>
 7    1  0.1290195E-011  0.5930194E+02  0.7816164E-02  0.1266605E+00
        -11   -1    0    0    0    0  0.00000000000E+00  0.00000000000E+00  0.45593999997E+02  0.45594000000E+02  0.51100000000E-03 0.  1.
         11   -1    0    0    0    0 -0.00000000000E+00 -0.00000000000E+00 -0.45593999997E+02  0.45594000000E+02  0.51100000000E-03 0. -1.
    9900012    2    1    2    0    0  0.14129471322E+02  0.22473048279E+01 -0.28496109956E+02  0.59301943150E+02  0.49999998400E+02 0.  0.
        -12    1    1    2    0    0 -0.14129471322E+02 -0.22473048279E+01  0.28496109956E+02  0.31886056850E+02  0.00000000000E+00 0.  1.
         11    1    3    3    0    0 -0.90084447458E+01  0.13591663029E+02 -0.33238700621E+01  0.16641318851E+02  0.51100000000E-03 0. -1.
        -11    1    3    3    0    0  0.44092822570E+01  0.69686205859E+01 -0.58281562685E+01  0.10098061628E+02  0.51100000000E-03 0.  1.
         12    1    3    3    0    0  0.18728633810E+02 -0.18312978787E+02 -0.19344083625E+02  0.32562562672E+02  0.00000000000E+00 0. -1.
</event>
<event>
 7    1  0.1290195E-011  0.5930194E+02  0.7816164E-02  0.1266605E+00
        -11   -1    0    0    0    0  0.00000000000E+00  0.00000000000E+00  0.45593999997E+02  0.45594000000E+02  0.51100000000E-03 0. -1.
         11   -1    0    0    0    0 -0.00000000000E+00 -0.00000000000E+00 -0.45593999997E+02  0.45594000000E+02  0.51100000000E-03 0.  1.
    9900012    2    1    2    0    0 -0.13150578528E+01  0.13170801170E+02  0.29008987348E+02  0.59301941486E+02  0.49999995364E+02 0.  0.
        -12    1    1    2    0    0  0.13150578528E+01 -0.13170801170E+02 -0.29008987348E+02  0.31886058514E+02  0.00000000000E+00 0.  1.
         11    1    3    3    0    0 -0.82196784721E+01 -0.11300561997E+02  0.94769828774E+01  0.16884283235E+02  0.51100000000E-03 0. -1.
        -11    1    3    3    0    0 -0.23718646149E+01 -0.50610315346E+01 -0.39507984713E+00  0.56032017894E+01  0.51100000000E-03 0.  1.
        -12    1    3    3    0    0  0.92764852342E+01  0.29532394702E+02  0.19927084318E+02  0.36814456461E+02  0.00000000000E+00 0.  1.
</event>
<event>
 7    1  0.1290195E-011  0.5930198E+02  0.7816164E-02  0.1266605E+00
        -11   -1    0    0    0    0  0.00000000000E+00  0.00000000000E+00  0.45593999997E+02  0.45594000000E+02  0.51100000000E-03 0.  1.
         11   -1    0    0    0    0 -0.00000000000E+00 -0.00000000000E+00 -0.45593999997E+02  0.45594000000E+02  0.51100000000E-03 0. -1.
    9900012    2    1    2    0    0  0.95345248451E+01 -0.54340059797E+01 -0.29937977777E+02  0.59301982713E+02  0.50000070553E+02 0.  0.
        -12    1    1    2    0    0 -0.95345248451E+01  0.54340059797E+01  0.29937977777E+02  0.31886017287E+02  0.00000000000E+00 0.  1.
         11    1    3    3    0    0  0.10283063321E+02 -0.11502159541E+02 -0.70854839938E+01  0.16977783985E+02  0.51100000000E-03 0. -1.
        -11    1    3    3    0    0 -0.40738397826E+01 -0.91282899512E+01  0.44179529502E+01  0.10928868036E+02  0.51100000000E-03 0.  1.
         12    1    3    3    0    0  0.33253013068E+01  0.15196443513E+02 -0.27270446734E+02  0.31395330692E+02  0.00000000000E+00 0. -1.
</event>
<event>
 7    1  0.1290195E-011  0.5930195E+02  0.7816164E-02  0.1266605E+00
        -11   -1    0    0    0    0  0.00000000000E+00  0.00000000000E+00  0.45593999997E+02  0.45594000000E+02  0.51100000000E-03 0.  1.
         11   -1    0    0    0    0 -0.00000000000E+00 -0.00000000000E+00 -0.45593999997E+02  0.45594000000E+02  0.51100000000E-03 0. -1.
    9900012    2    1    2    0    0 -0.17097859347E+02 -0.24390375766E+02 -0.11379505142E+02  0.59301947226E+02  0.50000005833E+02 0.  0.
        -12    1    1    2    0    0  0.17097859347E+02  0.24390375766E+02  0.11379505142E+02  0.31886052774E+02  0.00000000000E+00 0.  1.
         11    1    3    3    0    0 -0.19452646778E+02 -0.20607951761E+02 -0.11257210980E+02  0.30492916255E+02  0.51100000000E-03 0. -1.
        -11    1    3    3    0    0 -0.11615464679E+02  0.35811044078E+01  0.34151122780E+01  0.12625621594E+02  0.51100000000E-03 0.  1.
        -12    1    3    3    0    0  0.13970252111E+02 -0.73635284133E+01 -0.35374064394E+01  0.16183409377E+02  0.00000000000E+00 0.  1.
</event>
<event>
 7    1  0.1290195E-011  0.5930196E+02  0.7816164E-02  0.1266605E+00
        -11   -1    0    0    0    0  0.00000000000E+00  0.00000000000E+00  0.45593999997E+02  0.45594000000E+02  0.51100000000E-03 0.  1.
         11   -1    0    0    0    0 -0.00000000000E+00 -0.00000000000E+00 -0.45593999997E+02  0.45594000000E+02  0.51100000000E-03 0. -1.
    9900012    2    1    2    0    0  0.17850766341E+02 -0.11376330416E+02 -0.23846358785E+02  0.59301959481E+02  0.50000028183E+02 0.  0.
        -12    1    1    2    0    0 -0.17850766341E+02  0.11376330416E+02  0.23846358785E+02  0.31886040519E+02  0.00000000000E+00 0.  1.
         11    1    3    3    0    0  0.55182086492E+01 -0.81443592125E+01 -0.13577277737E+02  0.16766743413E+02  0.51100000000E-03 0. -1.
        -11    1    3    3    0    0  0.13598427847E+02  0.36187584323E+01 -0.23609681534E+02  0.27485081679E+02  0.51100000000E-03 0.  1.
        -12    1    3    3    0    0 -0.12658701558E+01 -0.68507296361E+01  0.13340600486E+02  0.15050134389E+02  0.00000000000E+00 0.  1.
</event>
<event>
 7    1  0.1290195E-011  0.5930195E+02  0.7816164E-02  0.1266605E+00
        -11   -1    0    0    0    0  0.00000000000E+00  0.00000000000E+00  0.45593999997E+02  0.45594000000E+02  0.51100000000E-03 0.  1.
         11   -1    0    0    0    0 -0.00000000000E+00 -0.00000000000E+00 -0.45593999997E+02  0.45594000000E+02  0.51100000000E-03 0. -1.
    9900012    2    1    2    0    0  0.81087096643E+01 -0.83975913733E+01 -0.29672370777E+02  0.59301948178E+02  0.50000007569E+02 0.  0.
        -12    1    1    2    0    0 -0.81087096643E+01  0.83975913733E+01  0.29672370777E+02  0.31886051822E+02  0.00000000000E+00 0.  1.
         11    1    3    3    0    0 -0.11606409268E+01 -0.11885258995E+02  0.27442608617E+01  0.12253058258E+02  0.51100000000E-03 0. -1.
        -11    1    3    3    0    0  0.75927696378E+01  0.14584090874E+02 -0.31812410439E+02  0.35810268299E+02  0.51100000000E-03 0.  1.
         12    1    3    3    0    0  0.16765809533E+01 -0.11096423252E+02 -0.60422119878E+00  0.11238621621E+02  0.00000000000E+00 0. -1.
</event>
<event>
 7    1  0.1290195E-011  0.5930213E+02  0.7816164E-02  0.1266604E+00
        -11   -1    0    0    0    0  0.00000000000E+00  0.00000000000E+00  0.45593999997E+02  0.45594000000E+02  0.51100000000E-03 0. -1.
         11   -1    0    0    0    0 -0.00000000000E+00 -0.00000000000E+00 -0.45593999997E+02  0.45594000000E+02  0.51100000000E-03 0.  1.
    9900012    2    1    2    0    0  0.19820877461E+02 -0.26086971036E+01  0.24840219997E+02  0.59302125174E+02  0.50000330367E+02 0.  0.
        -12    1    1    2    0    0 -0.19820877461E+02  0.26086971036E+01 -0.24840219997E+02  0.31885874826E+02  0.00000000000E+00 0.  1.
         11    1    3    3    0    0  0.23871164978E+01  0.10821071892E+02 -0.45729822993E+00  0.11090673740E+02  0.51100000000E-03 0. -1.
        -11    1    3    3    0    0 -0.27207491677E+01  0.77864253358E+01 -0.16720579588E+01  0.84158584603E+01  0.51100000000E-03 0.  1.
         12    1    3    3    0    0  0.20154510131E+02 -0.21216194332E+02  0.26969576185E+02  0.39795592974E+02  0.00000000000E+00 0. -1.
</event>
<event>
 7    1  0.1290195E-011  0.5930198E+02  0.7816164E-02  0.1266605E+00
        -11   -1    0    0    0    0  0.00000000000E+00  0.00000000000E+00  0.45593999997E+02  0.45594000000E+02  0.51100000000E-03 0.  1.
         11   -1    0    0    0    0 -0.00000000000E+00 -0.00000000000E+00 -0.45593999997E+02  0.45594000000E+02  0.51100000000E-03 0. -1.
    9900012    2    1    2    0    0  0.30235688832E+00  0.31253707682E+02  0.63113118360E+01  0.59301979228E+02  0.50000064198E+02 0.  0.
        -12    1    1    2    0    0 -0.30235688832E+00 -0.31253707682E+02 -0.63113118360E+01  0.31886020772E+02  0.00000000000E+00 0.  1.
         11    1    3    3    0    0 -0.58153280093E+01  0.13873139926E+02 -0.43796701917E+01  0.15667276806E+02  0.51100000000E-03 0. -1.
        -11    1    3    3    0    0  0.11077867305E+01  0.27693624868E+02 -0.34913108444E+00  0.27717971472E+02  0.51100000000E-03 0.  1.
        -12    1    3    3    0    0  0.50098981671E+01 -0.10313057112E+02  0.11040113112E+02  0.15916730951E+02  0.00000000000E+00 0.  1.
</event>
<event>
 7    1  0.1290195E-011  0.5930203E+02  0.7816164E-02  0.1266604E+00
        -11   -1    0    0    0    0  0.00000000000E+00  0.00000000000E+00  0.45593999997E+02  0.45594000000E+02  0.51100000000E-03 0. -1.
         11   -1    0    0    0    0 -0.00000000000E+00 -0.00000000000E+00 -0.45593999997E+02  0.45594000000E+02  0.51100000000E-03 0.  1.
    9900012    2    1    2    0    0  0.16261590510E+02  0.26605538863E+02 -0.66649050063E+01  0.59302031568E+02  0.50000159651E+02 0.  0.
        -12    1    1    2    0    0 -0.16261590510E+02 -0.26605538863E+02  0.66649050063E+01  0.31885968432E+02  0.00000000000E+00 0.  1.
         11    1    3    3    0    0  0.23469883186E+01  0.20048242616E+02  0.23965801390E+01  0.20326927530E+02  0.51100000000E-03 0. -1.
        -11    1    3    3    0    0  0.12453947477E+01  0.17161502985E+02  0.42897629396E+01  0.17733309311E+02  0.51100000000E-03 0.  1.
        -12    1    3    3    0    0  0.12669207444E+02 -0.10604206738E+02 -0.13351248085E+02  0.21241794727E+02  0.00000000000E+00 0.  1.
</event>
<event>
 7    1  0.1290195E-011  0.5930198E+02  0.7816164E-02  0.1266605E+00
        -11   -1    0    0    0    0  0.00000000000E+00  0.00000000000E+00  0.45593999997E+02  0.45594000000E+02  0.51100000000E-03 0. -1.
         11   -1    0    0    0    0 -0.00000000000E+00 -0.00000000000E+00 -0.45593999997E+02  0.45594000000E+02  0.51100000000E-03 0.  1.
    9900012    2    1    2    0    0  0.92218155502E+01 -0.24993717922E+02  0.17521138603E+02  0.59301982444E+02  0.50000070062E+02 0.  0.
        -12    1    1    2    0    0 -0.92218155502E+01  0.24993717922E+02 -0.17521138603E+02  0.31886017556E+02  0.00000000000E+00 0.  1.
         11    1    3    3    0    0  0.17013491963E+02 -0.30687492599E+02  0.16294841533E+02  0.38687245594E+02  0.51100000000E-03 0. -1.
        -11    1    3    3    0    0  0.11939703682E+01 -0.34828333794E+00  0.78324029706E+01  0.79305361154E+01  0.51100000000E-03 0.  1.
         12    1    3    3    0    0 -0.89856467811E+01  0.60420580141E+01 -0.66061059005E+01  0.12684200735E+02  0.00000000000E+00 0. -1.
</event>
<event>
 7    1  0.1290195E-011  0.5930194E+02  0.7816164E-02  0.1266605E+00
        -11   -1    0    0    0    0  0.00000000000E+00  0.00000000000E+00  0.45593999997E+02  0.45594000000E+02  0.51100000000E-03 0.  1.
         11   -1    0    0    0    0 -0.00000000000E+00 -0.00000000000E+00 -0.45593999997E+02  0.45594000000E+02  0.51100000000E-03 0. -1.
    9900012    2    1    2    0    0 -0.31482447530E+02 -0.44540081569E+01  0.23954363697E+01  0.59301940248E+02  0.49999993106E+02 0.  0.
        -12    1    1    2    0    0  0.31482447530E+02  0.44540081569E+01 -0.23954363697E+01  0.31886059752E+02  0.00000000000E+00 0.  1.
         11    1    3    3    0    0 -0.12855242411E+01 -0.97393527352E+01  0.42741223549E-01  0.98239193476E+01  0.51100000000E-03 0. -1.
        -11    1    3    3    0    0 -0.15755439194E+01 -0.20350711497E+01 -0.14997842018E+02  0.15217066691E+02  0.51100000000E-03 0.  1.
         12    1    3    3    0    0 -0.28621379369E+02  0.73204157280E+01  0.17350537164E+02  0.34260954209E+02  0.00000000000E+00 0. -1.
</event>
<event>
 7    1  0.1290195E-011  0.5930195E+02  0.7816164E-02  0.1266605E+00
        -11   -1    0    0    0    0  0.00000000000E+00  0.00000000000E+00  0.45593999997E+02  0.45594000000E+02  0.51100000000E-03 0.  1.
         11   -1    0    0    0    0 -0.00000000000E+00 -0.00000000000E+00 -0.45593999997E+02  0.45594000000E+02  0.51100000000E-03 0. -1.
    9900012    2    1    2    0    0 -0.80130049825E+01 -0.97431079620E+01 -0.29284535843E+02  0.59301945977E+02  0.50000003554E+02 0.  0.
        -12    1    1    2    0    0  0.80130049825E+01  0.97431079620E+01  0.29284535843E+02  0.31886054023E+02  0.00000000000E+00 0.  1.
         11    1    3    3    0    0  0.13695429735E+02  0.33875187142E+01 -0.10905886533E+02  0.17831949977E+02  0.51100000000E-03 0. -1.
        -11    1    3    3    0    0 -0.10532969350E+02 -0.10069100317E+02 -0.24393747149E+02  0.28414523131E+02  0.51100000000E-03 0.  1.
        -12    1    3    3    0    0 -0.11175465367E+02 -0.30615263593E+01  0.60150978381E+01  0.13055472869E+02  0.00000000000E+00 0.  1.
</event>
<event>
 7    1  0.1290195E-011  0.5930192E+02  0.7816164E-02  0.1266605E+00
        -11   -1    0    0    0    0  0.00000000000E+00  0.00000000000E+00  0.45593999997E+02  0.45594000000E+02  0.51100000000E-03 0. -1.
         11   -1    0    0    0    0 -0.00000000000E+00 -0.00000000000E+00 -0.45593999997E+02  0.45594000000E+02  0.51100000000E-03 0.  1.
    9900012    2    1    2    0    0 -0.18482976183E+02  0.24920612731E+02  0.73528931021E+01  0.59301915505E+02  0.49999947981E+02 0.  0.
        -12    1    1    2    0    0  0.18482976183E+02 -0.24920612731E+02 -0.73528931021E+01  0.31886084495E+02  0.00000000000E+00 0.  1.
         11    1    3    3    0    0 -0.59189770086E+00 -0.13496435645E+01  0.10562273542E+02  0.10664591097E+02  0.51100000000E-03 0. -1.
        -11    1    3    3    0    0 -0.11255622104E+01  0.10924109431E+02  0.15639363241E+02  0.19110016745E+02  0.51100000000E-03 0.  1.
        -12    1    3    3    0    0 -0.16765516272E+02  0.15346146865E+02 -0.18848743681E+02  0.29527307663E+02  0.00000000000E+00 0.  1.
</event>
<event>
 7    1  0.1290195E-011  0.5930198E+02  0.7816164E-02  0.1266605E+00
        -11   -1    0    0    0    0  0.00000000000E+00  0.00000000000E+00  0.45593999997E+02  0.45594000000E+02  0.51100000000E-03 0.  1.
         11   -1    0    0    0    0 -0.00000000000E+00 -0.00000000000E+00 -0.45593999997E+02  0.45594000000E+02  0.51100000000E-03 0. -1.
    9900012    2    1    2    0    0  0.21602695920E+02  0.65394495087E+01 -0.22522820391E+02  0.59301979407E+02  0.50000064523E+02 0.  0.
        -12    1    1    2    0    0 -0.21602695920E+02 -0.65394495087E+01  0.22522820391E+02  0.31886020593E+02  0.00000000000E+00 0.  1.
         11    1    3    3    0    0  0.19052436055E+02 -0.91081072384E+01 -0.27272018801E+02  0.34492259231E+02  0.51100000000E-03 0. -1.
        -11    1    3    3    0    0 -0.28495317517E+01 -0.27471235172E+01 -0.20643004971E+01  0.44640626817E+01  0.51100000000E-03 0.  1.
         12    1    3    3    0    0  0.53997916169E+01  0.18394680264E+02  0.68134989072E+01  0.20345657495E+02  0.00000000000E+00 0. -1.
</event>
<event>
 7    1  0.1290195E-011  0.5930194E+02  0.7816164E-02  0.1266605E+00
        -11   -1    0    0    0    0  0.00000000000E+00  0.00000000000E+00  0.45593999997E+02  0.45594000000E+02  0.51100000000E-03 0.  1.
         11   -1    0    0    0    0 -0.00000000000E+00 -0.00000000000E+00 -0.45593999997E+02  0.45594000000E+02  0.51100000000E-03 0. -1.
    9900012    2    1    2    0    0  0.30627598403E+01 -0.31633263365E+02  0.25840392967E+01  0.59301935520E+02  0.49999984483E+02 0.  0.
        -12    1    1    2    0    0 -0.30627598403E+01  0.31633263365E+02 -0.25840392967E+01  0.31886064480E+02  0.00000000000E+00 0.  1.
         11    1    3    3    0    0  0.18008483138E+02 -0.24703184091E+02  0.56287433031E+01  0.31084329181E+02  0.51100000000E-03 0. -1.
        -11    1    3    3    0    0  0.33492324096E+01 -0.75247034533E+01  0.32593226253E+01  0.88578611431E+01  0.51100000000E-03 0.  1.
        -12    1    3    3    0    0 -0.18294955708E+02  0.59462417959E+00 -0.63040266318E+01  0.19359745196E+02  0.00000000000E+00 0.  1.
</event>
<event>
 7    1  0.1290195E-011  0.5930195E+02  0.7816164E-02  0.1266605E+00
        -11   -1    0    0    0    0  0.00000000000E+00  0.00000000000E+00  0.45593999997E+02  0.45594000000E+02  0.51100000000E-03 0.  1.
         11   -1    0    0    0    0 -0.00000000000E+00 -0.00000000000E+00 -0.45593999997E+02  0.45594000000E+02  0.51100000000E-03 0. -1.
    9900012    2    1    2    0    0  0.11291136445E+02  0.14677159232E+02  0.25957882962E+02  0.59301945788E+02  0.50000003210E+02 0.  0.
        -12    1    1    2    0    0 -0.11291136445E+02 -0.14677159232E+02 -0.25957882962E+02  0.31886054212E+02  0.00000000000E+00 0.  1.
         11    1    3    3    0    0  0.10156566179E+02 -0.37504966901E+00  0.84965470905E+00  0.10198941719E+02  0.51100000000E-03 0. -1.
        -11    1    3    3    0    0  0.19183088635E+02  0.58542246679E+01  0.52421271943E+01  0.20730237187E+02  0.51100000000E-03 0.  1.
        -12    1    3    3    0    0 -0.18048518369E+02  0.91979842330E+01  0.19866101059E+02  0.28372766882E+02  0.00000000000E+00 0.  1.
</event>
<event>
 7    1  0.1290195E-011  0.5930190E+02  0.7816164E-02  0.1266605E+00
        -11   -1    0    0    0    0  0.00000000000E+00  0.00000000000E+00  0.45593999997E+02  0.45594000000E+02  0.51100000000E-03 0. -1.
         11   -1    0    0    0    0 -0.00000000000E+00 -0.00000000000E+00 -0.45593999997E+02  0.45594000000E+02  0.51100000000E-03 0.  1.
    9900012    2    1    2    0    0 -0.95327168699E+01 -0.14758272313E+02  0.26609102690E+02  0.59301895839E+02  0.49999912115E+02 0.  0.
        -12    1    1    2    0    0  0.95327168699E+01  0.14758272313E+02 -0.26609102690E+02  0.31886104161E+02  0.00000000000E+00 0.  1.
         11    1    3    3    0    0 -0.11996898084E+02  0.35894398530E+00  0.10981758214E+01  0.12052402035E+02  0.51100000000E-03 0. -1.
        -11    1    3    3    0    0 -0.13398742052E+02  0.36037603715E+01  0.35558379723E+01  0.14323315306E+02  0.51100000000E-03 0.  1.
        -12    1    3    3    0    0  0.15862923267E+02 -0.18720976670E+02  0.21955088896E+02  0.32926178498E+02  0.00000000000E+00 0.  1.
</event>
<event>
 7    1  0.1290195E-011  0.5930195E+02  0.7816164E-02  0.1266605E+00
        -11   -1    0    0    0    0  0.00000000000E+00  0.00000000000E+00  0.45593999997E+02  0.45594000000E+02  0.51100000000E-03 0.  1.
         11   -1    0    0    0    0 -0.00000000000E+00 -0.00000000000E+00 -0.45593999997E+02  0.45594000000E+02  0.51100000000E-03 0. -1.
    9900012    2    1    2    0    0  0.29757412741E+02  0.11429443894E+02  0.76433174103E+00  0.59301952835E+02  0.50000016063E+02 0.  0.
        -12    1    1    2    0    0 -0.29757412741E+02 -0.11429443894E+02 -0.76433174103E+00  0.31886047165E+02  0.00000000000E+00 0.  1.
         11    1    3    3    0    0  0.23807340555E+02  0.50893419464E+01  0.26145671769E+01  0.24485236930E+02  0.51100000000E-03 0. -1.
        -11    1    3    3    0    0  0.24594716432E+01 -0.13388226609E+02 -0.50682348591E+01  0.14525171852E+02  0.51100000000E-03 0.  1.
        -12    1    3    3    0    0  0.34906005434E+01  0.19728328556E+02  0.32179994233E+01  0.20291544053E+02  0.00000000000E+00 0.  1.
</event>
<event>
 7    1  0.1290195E-011  0.5930194E+02  0.7816164E-02  0.1266605E+00
        -11   -1    0    0    0    0  0.00000000000E+00  0.00000000000E+00  0.45593999997E+02  0.45594000000E+02  0.51100000000E-03 0. -1.
         11   -1    0    0    0    0 -0.00000000000E+00 -0.00000000000E+00 -0.45593999997E+02  0.45594000000E+02  0.51100000000E-03 0.  1.
    9900012    2    1    2    0    0 -0.30106768375E+01  0.31604565865E+02  0.29678086375E+01  0.59301942754E+02  0.49999997678E+02 0.  0.
        -12    1    1    2    0    0  0.30106768375E+01 -0.31604565865E+02 -0.29678086375E+01  0.31886057246E+02  0.00000000000E+00 0.  1.
         11    1    3    3    0    0 -0.13014471902E+02  0.29966980439E+02  0.16476756849E+01  0.32712554638E+02  0.51100000000E-03 0. -1.
        -11    1    3    3    0    0 -0.78427584471E+01  0.11169239981E+01 -0.25469335450E+01  0.83212529117E+01  0.51100000000E-03 0.  1.
        -12    1    3    3    0    0  0.17846553512E+02  0.52066142850E+00  0.38670664976E+01  0.18268135205E+02  0.00000000000E+00 0.  1.
</event>
<event>
 7    1  0.1290195E-011  0.5930194E+02  0.7816164E-02  0.1266605E+00
        -11   -1    0    0    0    0  0.00000000000E+00  0.00000000000E+00  0.45593999997E+02  0.45594000000E+02  0.51100000000E-03 0.  1.
         11   -1    0    0    0    0 -0.00000000000E+00 -0.00000000000E+00 -0.45593999997E+02  0.45594000000E+02  0.51100000000E-03 0. -1.
    9900012    2    1    2    0    0 -0.96128107201E+01 -0.20802441360E+02 -0.22171451100E+02  0.59301938149E+02  0.49999989279E+02 0.  0.
        -12    1    1    2    0    0  0.96128107201E+01  0.20802441360E+02  0.22171451100E+02  0.31886061851E+02  0.00000000000E+00 0.  1.
         11    1    3    3    0    0  0.59524913590E+01 -0.86253767944E+01  0.32448793864E+01  0.10970803103E+02  0.51100000000E-03 0. -1.
        -11    1    3    3    0    0  0.67669715610E+01  0.79108795092E+01 -0.29467593400E+01  0.10819302639E+02  0.51100000000E-03 0.  1.
         12    1    3    3    0    0 -0.22332273640E+02 -0.20087944075E+02 -0.22469571146E+02  0.37511832408E+02  0.00000000000E+00 0. -1.
</event>
<event>
 7    1  0.1290195E-011  0.5930196E+02  0.7816164E-02  0.1266605E+00
        -11   -1    0    0    0    0  0.00000000000E+00  0.00000000000E+00  0.45593999997E+02  0.45594000000E+02  0.51100000000E-03 0.  1.
         11   -1    0    0    0    0 -0.00000000000E+00 -0.00000000000E+00 -0.45593999997E+02  0.45594000000E+02  0.51100000000E-03 0. -1.
    9900012    2    1    2    0    0 -0.82500859133E+01 -0.30254236623E+02 -0.57738185997E+01  0.59301957091E+02  0.50000023824E+02 0.  0.
        -12    1    1    2    0    0  0.82500859133E+01  0.30254236623E+02  0.57738185997E+01  0.31886042909E+02  0.00000000000E+00 0.  1.
         11    1    3    3    0    0  0.53547780715E+01 -0.36540429221E+02  0.33379609112E+01  0.37081243226E+02  0.51100000000E-03 0. -1.
        -11    1    3    3    0    0 -0.53326997493E+01  0.60454620478E+01  0.20573880779E+01  0.83197442239E+01  0.51100000000E-03 0.  1.
        -12    1    3    3    0    0 -0.82721642355E+01  0.24073055074E+00 -0.11169167589E+02  0.13900969641E+02  0.00000000000E+00 0.  1.
</event>
<event>
 7    1  0.1290195E-011  0.5930194E+02  0.7816164E-02  0.1266605E+00
        -11   -1    0    0    0    0  0.00000000000E+00  0.00000000000E+00  0.45593999997E+02  0.45594000000E+02  0.51100000000E-03 0. -1.
         11   -1    0    0    0    0 -0.00000000000E+00 -0.00000000000E+00 -0.45593999997E+02  0.45594000000E+02  0.51100000000E-03 0.  1.
    9900012    2    1    2    0    0  0.31757907865E+02  0.12976076520E+01 -0.25440386155E+01  0.59301943015E+02  0.49999998153E+02 0.  0.
        -12    1    1    2    0    0 -0.31757907865E+02 -0.12976076520E+01  0.25440386155E+01  0.31886056985E+02  0.00000000000E+00 0.  1.
         11    1    3    3    0    0  0.40504449027E+01 -0.10235130709E+02  0.54158002483E+01  0.12267636167E+02  0.51100000000E-03 0. -1.
        -11    1    3    3    0    0  0.15155054648E+01  0.11260952119E+02  0.10112928379E+02  0.15211085434E+02  0.51100000000E-03 0.  1.
         12    1    3    3    0    0  0.26191957497E+02  0.27178624265E+00 -0.18072767243E+02  0.31823221413E+02  0.00000000000E+00 0. -1.
</event>
<event>
 7    1  0.1290195E-011  0.5930194E+02  0.7816164E-02  0.1266605E+00
        -11   -1    0    0    0    0  0.00000000000E+00  0.00000000000E+00  0.45593999997E+02  0.45594000000E+02  0.51100000000E-03 0.  1.
         11   -1    0    0    0    0 -0.00000000000E+00 -0.00000000000E+00 -0.45593999997E+02  0.45594000000E+02  0.51100000000E-03 0. -1.
    9900012    2    1    2    0    0  0.49940164756E+01 -0.49093443550E+01 -0.31107535341E+02  0.59301943211E+02  0.49999998511E+02 0.  0.
        -12    1    1    2    0    0 -0.49940164756E+01  0.49093443550E+01  0.31107535341E+02  0.31886056789E+02  0.00000000000E+00 0.  1.
         11    1    3    3    0    0 -0.59329777063E+01 -0.43079550122E+01 -0.23737284923E+02  0.24843860340E+02  0.51100000000E-03 0. -1.
        -11    1    3    3    0    0 -0.93748591674E+01 -0.36477471834E+01 -0.94777339785E+01  0.13821052259E+02  0.51100000000E-03 0.  1.
        -12    1    3    3    0    0  0.20301853349E+02  0.30463578406E+01  0.21074835605E+01  0.20637030612E+02  0.00000000000E+00 0.  1.
</event>
<event>
 7    1  0.1290195E-011  0.5930175E+02  0.7816164E-02  0.1266605E+00
        -11   -1    0    0    0    0  0.00000000000E+00  0.00000000000E+00  0.45593999997E+02  0.45594000000E+02  0.51100000000E-03 0. -1.
         11   -1    0    0    0    0 -0.00000000000E+00 -0.00000000000E+00 -0.45593999997E+02  0.45594000000E+02  0.51100000000E-03 0.  1.
    9900012    2    1    2    0    0  0.96174360919E+01  0.16181076540E+02  0.25737337064E+02  0.59301751646E+02  0.49999649141E+02 0.  0.
        -12    1    1    2    0    0 -0.96174360919E+01 -0.16181076540E+02 -0.25737337064E+02  0.31886248354E+02  0.00000000000E+00 0.  1.
         11    1    3    3    0    0  0.13164281858E+02 -0.28818559903E+01  0.16399074333E+02  0.21225763827E+02  0.51100000000E-03 0. -1.
        -11    1    3    3    0    0  0.11734086941E+02 -0.37586450698E+00  0.58115247608E+01  0.13099766821E+02  0.51100000000E-03 0.  1.
         12    1    3    3    0    0 -0.15280932707E+02  0.19438797037E+02  0.35267379696E+01  0.24976220998E+02  0.00000000000E+00 0. -1.
</event>
<event>
 7    1  0.1290195E-011  0.5930194E+02  0.7816164E-02  0.1266605E+00
        -11   -1    0    0    0    0  0.00000000000E+00  0.00000000000E+00  0.45593999997E+02  0.45594000000E+02  0.51100000000E-03 0.  1.
         11   -1    0    0    0    0 -0.00000000000E+00 -0.00000000000E+00 -0.45593999997E+02  0.45594000000E+02  0.51100000000E-03 0. -1.
    9900012    2    1    2    0    0  0.92280370229E+00 -0.18669695779E+02 -0.25832381307E+02  0.59301936725E+02  0.49999986682E+02 0.  0.
        -12    1    1    2    0    0 -0.92280370229E+00  0.18669695779E+02  0.25832381307E+02  0.31886063275E+02  0.00000000000E+00 0.  1.
         11    1    3    3    0    0 -0.84453704456E+01 -0.12370580289E+02 -0.54368026054E+00  0.14988366393E+02  0.51100000000E-03 0. -1.
        -11    1    3    3    0    0  0.40241757563E+00  0.22081463764E+01  0.82605745187E+01  0.85600783855E+01  0.51100000000E-03 0.  1.
         12    1    3    3    0    0  0.89657565723E+01 -0.85072618666E+01 -0.33549275566E+02  0.35753491946E+02  0.00000000000E+00 0. -1.
</event>
<event>
 7    1  0.1290195E-011  0.5930195E+02  0.7816164E-02  0.1266605E+00
        -11   -1    0    0    0    0  0.00000000000E+00  0.00000000000E+00  0.45593999997E+02  0.45594000000E+02  0.51100000000E-03 0. -1.
         11   -1    0    0    0    0 -0.00000000000E+00 -0.00000000000E+00 -0.45593999997E+02  0.45594000000E+02  0.51100000000E-03 0.  1.
    9900012    2    1    2    0    0  0.10216868738E+02 -0.96152021153E+01  0.28633610347E+02  0.59301950386E+02  0.50000011595E+02 0.  0.
        -12    1    1    2    0    0 -0.10216868738E+02  0.96152021153E+01 -0.28633610347E+02  0.31886049614E+02  0.00000000000E+00 0.  1.
         11    1    3    3    0    0 -0.86368255879E+00  0.10321776091E+02  0.22271828344E+02  0.24562559868E+02  0.51100000000E-03 0. -1.
        -11    1    3    3    0    0  0.80673516787E+00  0.60264569843E+01 -0.92429941430E-01  0.60809167870E+01  0.51100000000E-03 0.  1.
         12    1    3    3    0    0  0.10273816129E+02 -0.25963435191E+02  0.64542119447E+01  0.28658473731E+02  0.00000000000E+00 0. -1.
</event>
<event>
 7    1  0.1290195E-011  0.5930193E+02  0.7816164E-02  0.1266605E+00
        -11   -1    0    0    0    0  0.00000000000E+00  0.00000000000E+00  0.45593999997E+02  0.45594000000E+02  0.51100000000E-03 0. -1.
         11   -1    0    0    0    0 -0.00000000000E+00 -0.00000000000E+00 -0.45593999997E+02  0.45594000000E+02  0.51100000000E-03 0.  1.
    9900012    2    1    2    0    0  0.58297217784E+01  0.53346896389E+01  0.30891376816E+02  0.59301925749E+02  0.49999966664E+02 0.  0.
        -12    1    1    2    0    0 -0.58297217784E+01 -0.53346896389E+01 -0.30891376816E+02  0.31886074251E+02  0.00000000000E+00 0.  1.
         11    1    3    3    0    0  0.79853709327E+01  0.46898088611E+00 -0.34405982194E-01  0.79992047128E+01  0.51100000000E-03 0. -1.
        -11    1    3    3    0    0  0.16234851987E+02  0.77053716383E+01  0.37359249779E+01  0.18354844233E+02  0.51100000000E-03 0.  1.
         12    1    3    3    0    0 -0.18390501141E+02 -0.28396628855E+01  0.27189857820E+02  0.32947876803E+02  0.00000000000E+00 0. -1.
</event>
<event>
 7    1  0.1290195E-011  0.5930191E+02  0.7816164E-02  0.1266605E+00
        -11   -1    0    0    0    0  0.00000000000E+00  0.00000000000E+00  0.45593999997E+02  0.45594000000E+02  0.51100000000E-03 0.  1.
         11   -1    0    0    0    0 -0.00000000000E+00 -0.00000000000E+00 -0.45593999997E+02  0.45594000000E+02  0.51100000000E-03 0. -1.
    9900012    2    1    2    0    0 -0.33741514499E+01  0.28682339984E+02 -0.13515224934E+02  0.59301908519E+02  0.49999935240E+02 0.  0.
        -12    1    1    2    0    0  0.33741514499E+01 -0.28682339984E+02  0.13515224934E+02  0.31886091481E+02  0.00000000000E+00 0.  1.
         11    1    3    3    0    0  0.78351934185E+00  0.32369992945E+02 -0.20138029296E+02  0.38130966025E+02  0.51100000000E-03 0. -1.
        -11    1    3    3    0    0 -0.97318018299E+01  0.28653237102E+01 -0.26806841408E+00  0.10148394344E+02  0.51100000000E-03 0.  1.
        -12    1    3    3    0    0  0.55741310381E+01 -0.65529766717E+01  0.68908727767E+01  0.11022548150E+02  0.00000000000E+00 0.  1.
</event>
<event>
 7    1  0.1290195E-011  0.5930192E+02  0.7816164E-02  0.1266605E+00
        -11   -1    0    0    0    0  0.00000000000E+00  0.00000000000E+00  0.45593999997E+02  0.45594000000E+02  0.51100000000E-03 0.  1.
         11   -1    0    0    0    0 -0.00000000000E+00 -0.00000000000E+00 -0.45593999997E+02  0.45594000000E+02  0.51100000000E-03 0. -1.
    9900012    2    1    2    0    0  0.17563547703E+02  0.20449378238E+02 -0.17031347354E+02  0.59301920422E+02  0.49999956948E+02 0.  0.
        -12    1    1    2    0    0 -0.17563547703E+02 -0.20449378238E+02  0.17031347354E+02  0.31886079578E+02  0.00000000000E+00 0.  1.
         11    1    3    3    0    0  0.92382534287E+01 -0.27071129764E+01  0.48683036601E+01  0.10787685937E+02  0.51100000000E-03 0. -1.
        -11    1    3    3    0    0 -0.43937398261E+01 -0.53125421686E+01 -0.15101475555E+02  0.16600681255E+02  0.51100000000E-03 0.  1.
         12    1    3    3    0    0  0.12719034100E+02  0.28469033383E+02 -0.67981754591E+01  0.31913553230E+02  0.00000000000E+00 0. -1.
</event>
<event>
 7    1  0.1290195E-011  0.5930210E+02  0.7816164E-02  0.1266604E+00
        -11   -1    0    0    0    0  0.00000000000E+00  0.00000000000E+00  0.45593999997E+02  0.45594000000E+02  0.51100000000E-03 0.  1.
         11   -1    0    0    0    0 -0.00000000000E+00 -0.00000000000E+00 -0.45593999997E+02  0.45594000000E+02  0.51100000000E-03 0. -1.
    9900012    2    1    2    0    0 -0.24522397551E+02 -0.19151871671E+02 -0.69691097824E+01  0.59302099333E+02  0.50000283240E+02 0.  0.
        -12    1    1    2    0    0  0.24522397551E+02  0.19151871671E+02  0.69691097824E+01  0.31885900667E+02  0.00000000000E+00 0.  1.
         11    1    3    3    0    0 -0.27264859899E+02  0.20952686599E+01 -0.19860526575E+01  0.27417278156E+02  0.51100000000E-03 0. -1.
        -11    1    3    3    0    0  0.50110056944E+01  0.34911336825E+01  0.13360276131E+01  0.62516527817E+01  0.51100000000E-03 0.  1.
        -12    1    3    3    0    0 -0.22685433466E+01 -0.24738274013E+02 -0.63190847379E+01  0.25633168396E+02  0.00000000000E+00 0.  1.
</event>
<event>
 7    1  0.1290195E-011  0.5930194E+02  0.7816164E-02  0.1266605E+00
        -11   -1    0    0    0    0  0.00000000000E+00  0.00000000000E+00  0.45593999997E+02  0.45594000000E+02  0.51100000000E-03 0. -1.
         11   -1    0    0    0    0 -0.00000000000E+00 -0.00000000000E+00 -0.45593999997E+02  0.45594000000E+02  0.51100000000E-03 0.  1.
    9900012    2    1    2    0    0  0.66603319014E+01  0.29476738684E+02  0.10172646314E+02  0.59301939135E+02  0.49999991076E+02 0.  0.
        -12    1    1    2    0    0 -0.66603319014E+01 -0.29476738684E+02 -0.10172646314E+02  0.31886060865E+02  0.00000000000E+00 0.  1.
         11    1    3    3    0    0 -0.52961218792E+01 -0.95361124728E+01 -0.49158655509E+01  0.11964617939E+02  0.51100000000E-03 0. -1.
        -11    1    3    3    0    0  0.11623535760E+01  0.15977638597E+02 -0.27676299038E+01  0.16257176155E+02  0.51100000000E-03 0.  1.
        -12    1    3    3    0    0  0.10794100205E+02  0.23035212560E+02  0.17856141769E+02  0.31080145041E+02  0.00000000000E+00 0.  1.
</event>
<event>
 7    1  0.1290195E-011  0.5930194E+02  0.7816164E-02  0.1266605E+00
        -11   -1    0    0    0    0  0.00000000000E+00  0.00000000000E+00  0.45593999997E+02  0.45594000000E+02  0.51100000000E-03 0.  1.
         11   -1    0    0    0    0 -0.00000000000E+00 -0.00000000000E+00 -0.45593999997E+02  0.45594000000E+02  0.51100000000E-03 0. -1.
    9900012    2    1    2    0    0  0.28175274916E+02 -0.12129328799E+02 -0.87036762706E+01  0.59301941694E+02  0.49999995743E+02 0.  0.
        -12    1    1    2    0    0 -0.28175274916E+02  0.12129328799E+02  0.87036762706E+01  0.31886058306E+02  0.00000000000E+00 0.  1.
         11    1    3    3    0    0  0.44206675716E+01 -0.78753981753E+01  0.28708140561E+01  0.94765907268E+01  0.51100000000E-03 0. -1.
        -11    1    3    3    0    0  0.30729262263E+02  0.47592663247E+01  0.30947914508E+01  0.31249254544E+02  0.51100000000E-03 0.  1.
         12    1    3    3    0    0 -0.69746549182E+01 -0.90131969481E+01 -0.14669281777E+02  0.18576096423E+02  0.00000000000E+00 0. -1.
</event>
<event>
 7    1  0.1290195E-011  0.5930195E+02  0.7816164E-02  0.1266605E+00
        -11   -1    0    0    0    0  0.00000000000E+00  0.00000000000E+00  0.45593999997E+02  0.45594000000E+02  0.51100000000E-03 0.  1.
         11   -1    0    0    0    0 -0.00000000000E+00 -0.00000000000E+00 -0.45593999997E+02  0.45594000000E+02  0.51100000000E-03 0. -1.
    9900012    2    1    2    0    0 -0.22139681771E+02 -0.35000514589E+01 -0.22678275387E+02  0.59301952210E+02  0.50000014923E+02 0.  0.
        -12    1    1    2    0    0  0.22139681771E+02  0.35000514589E+01  0.22678275387E+02  0.31886047790E+02  0.00000000000E+00 0.  1.
         11    1    3    3    0    0 -0.30373319490E+02  0.26191717542E+01 -0.18317146146E+02  0.35565663788E+02  0.51100000000E-03 0. -1.
        -11    1    3    3    0    0 -0.85046775592E+00  0.67468639030E+01 -0.41862306827E+01  0.79854865550E+01  0.51100000000E-03 0.  1.
        -12    1    3    3    0    0  0.90841054746E+01 -0.12866087116E+02 -0.17489855785E+00  0.15750801867E+02  0.00000000000E+00 0.  1.
</event>
<event>
 7    1  0.1290195E-011  0.5930192E+02  0.7816164E-02  0.1266605E+00
        -11   -1    0    0    0    0  0.00000000000E+00  0.00000000000E+00  0.45593999997E+02  0.45594000000E+02  0.51100000000E-03 0. -1.
         11   -1    0    0    0    0 -0.00000000000E+00 -0.00000000000E+00 -0.45593999997E+02  0.45594000000E+02  0.51100000000E-03 0.  1.
    9900012    2    1    2    0    0  0.15895309072E+02 -0.15586108642E+02 -0.22828368656E+02  0.59301920772E+02  0.49999957586E+02 0.  0.
        -12    1    1    2    0    0 -0.15895309072E+02  0.15586108642E+02  0.22828368656E+02  0.31886079228E+02  0.00000000000E+00 0.  1.
         11    1    3    3    0    0 -0.37255000093E+01 -0.62227140056E+01 -0.28245737965E+02  0.29162016963E+02  0.51100000000E-03 0. -1.
        -11    1    3    3    0    0 -0.22159868353E+01  0.37335655378E+00 -0.38823016126E+01  0.44857840834E+01  0.51100000000E-03 0.  1.
         12    1    3    3    0    0  0.21836795917E+02 -0.97367511897E+01  0.92996709213E+01  0.25654119725E+02  0.00000000000E+00 0. -1.
</event>
<event>
 7    1  0.1290195E-011  0.5930192E+02  0.7816164E-02  0.1266605E+00
        -11   -1    0    0    0    0  0.00000000000E+00  0.00000000000E+00  0.45593999997E+02  0.45594000000E+02  0.51100000000E-03 0.  1.
         11   -1    0    0    0    0 -0.00000000000E+00 -0.00000000000E+00 -0.45593999997E+02  0.45594000000E+02  0.51100000000E-03 0. -1.
    9900012    2    1    2    0    0 -0.55669288383E+01  0.28891298431E+02 -0.12289185878E+02  0.59301922925E+02  0.49999961513E+02 0.  0.
        -12    1    1    2    0    0  0.55669288383E+01 -0.28891298431E+02  0.12289185878E+02  0.31886077075E+02  0.00000000000E+00 0.  1.
         11    1    3    3    0    0 -0.20595211408E+02  0.60336834959E+01 -0.10266521480E+02  0.23790114187E+02  0.51100000000E-03 0. -1.
        -11    1    3    3    0    0 -0.51319274291E+01  0.10077723937E+02  0.14095702374E+01  0.11396670014E+02  0.51100000000E-03 0.  1.
        -12    1    3    3    0    0  0.20160209998E+02  0.12779890998E+02 -0.34322346349E+01  0.24115138724E+02  0.00000000000E+00 0.  1.
</event>
<event>
 7    1  0.1290195E-011  0.5930195E+02  0.7816164E-02  0.1266605E+00
        -11   -1    0    0    0    0  0.00000000000E+00  0.00000000000E+00  0.45593999997E+02  0.45594000000E+02  0.51100000000E-03 0.  1.
         11   -1    0    0    0    0 -0.00000000000E+00 -0.00000000000E+00 -0.45593999997E+02  0.45594000000E+02  0.51100000000E-03 0. -1.
    9900012    2    1    2    0    0  0.91677301599E+01  0.13944323824E+02 -0.27170361666E+02  0.59301952953E+02  0.50000016278E+02 0.  0.
        -12    1    1    2    0    0 -0.91677301599E+01 -0.13944323824E+02  0.27170361666E+02  0.31886047047E+02  0.00000000000E+00 0.  1.
         11    1    3    3    0    0 -0.25456791686E+00 -0.44222595749E+01 -0.63336389804E+01  0.77289176194E+01  0.51100000000E-03 0. -1.
        -11    1    3    3    0    0  0.13041033008E+02 -0.11097050000E+02 -0.10763859230E+02  0.20225571102E+02  0.51100000000E-03 0.  1.
        -12    1    3    3    0    0 -0.36187349314E+01  0.29463633399E+02 -0.10072863455E+02  0.31347464232E+02  0.00000000000E+00 0.  1.
</event>
<event>
 7    1  0.1290195E-011  0.5930195E+02  0.7816164E-02  0.1266605E+00
        -11   -1    0    0    0    0  0.00000000000E+00  0.00000000000E+00  0.45593999997E+02  0.45594000000E+02  0.51100000000E-03 0.  1.
         11   -1    0    0    0    0 -0.00000000000E+00 -0.00000000000E+00 -0.45593999997E+02  0.45594000000E+02  0.51100000000E-03 0. -1.
    9900012    2    1    2    0    0  0.20258530964E+02  0.16142445046E+02 -0.18593907399E+02  0.59301952875E+02  0.50000016135E+02 0.  0.
        -12    1    1    2    0    0 -0.20258530964E+02 -0.16142445046E+02  0.18593907399E+02  0.31886047125E+02  0.00000000000E+00 0.  1.
         11    1    3    3    0    0  0.25953262890E+02  0.50535744928E+01 -0.17738826386E+02  0.31839856024E+02  0.51100000000E-03 0. -1.
        -11    1    3    3    0    0 -0.64296433469E+01  0.80994085211E+01 -0.12034096148E+02  0.15866953152E+02  0.51100000000E-03 0.  1.
         12    1    3    3    0    0  0.73491142114E+00  0.29894620319E+01  0.11179015135E+02  0.11595143700E+02  0.00000000000E+00 0. -1.
</event>
<event>
 7    1  0.1488345E-011  0.5930194E+02  0.7816164E-02  0.1266605E+00
        -11   -1    0    0    0    0  0.00000000000E+00  0.00000000000E+00  0.45593999997E+02  0.45594000000E+02  0.51100000000E-03 0. -1.
         11   -1    0    0    0    0 -0.00000000000E+00 -0.00000000000E+00 -0.45593999997E+02  0.45594000000E+02  0.51100000000E-03 0.  1.
    9900012    2    1    2    0    0  0.31573838987E+02  0.41741625989E+01  0.15459133374E+01  0.59301940510E+02  0.49999993584E+02 0.  0.
        -12    1    1    2    0    0 -0.31573838987E+02 -0.41741625989E+01 -0.15459133374E+01  0.31886059490E+02  0.00000000000E+00 0.  1.
         11    1    3    3    0    0  0.16816182989E+02  0.85719413978E+01  0.99280577042E+01  0.21326709068E+02  0.51100000000E-03 0. -1.
        -11    1    3    3    0    0  0.21760925991E+02  0.25062280138E+01  0.38914964256E+01  0.22247759967E+02  0.51100000000E-03 0.  1.
        -12    1    3    3    0    0 -0.70032699937E+01 -0.69040068127E+01 -0.12273640792E+02  0.15727471474E+02  0.00000000000E+00 0.  1.
</event>
<event>
 7    1  0.1290195E-011  0.5930199E+02  0.7816164E-02  0.1266605E+00
        -11   -1    0    0    0    0  0.00000000000E+00  0.00000000000E+00  0.45593999997E+02  0.45594000000E+02  0.51100000000E-03 0. -1.
         11   -1    0    0    0    0 -0.00000000000E+00 -0.00000000000E+00 -0.45593999997E+02  0.45594000000E+02  0.51100000000E-03 0.  1.
    9900012    2    1    2    0    0  0.29698272697E+02 -0.93195954747E+01  0.69191874296E+01  0.59301993419E+02  0.50000090077E+02 0.  0.
        -12    1    1    2    0    0 -0.29698272697E+02  0.93195954747E+01 -0.69191874296E+01  0.31886006581E+02  0.00000000000E+00 0.  1.
         11    1    3    3    0    0 -0.60210200677E+01  0.25645337198E+01  0.13213566241E+02  0.14745434850E+02  0.51100000000E-03 0. -1.
        -11    1    3    3    0    0 -0.29174555921E+01  0.14221703192E+01 -0.42622403197E+00  0.32734970193E+01  0.51100000000E-03 0.  1.
        -12    1    3    3    0    0  0.38636748357E+02 -0.13306299514E+02 -0.58681547796E+01  0.41283061549E+02  0.00000000000E+00 0.  1.
</event>
<event>
 7    1  0.1290195E-011  0.5930193E+02  0.7816164E-02  0.1266605E+00
        -11   -1    0    0    0    0  0.00000000000E+00  0.00000000000E+00  0.45593999997E+02  0.45594000000E+02  0.51100000000E-03 0.  1.
         11   -1    0    0    0    0 -0.00000000000E+00 -0.00000000000E+00 -0.45593999997E+02  0.45594000000E+02  0.51100000000E-03 0. -1.
    9900012    2    1    2    0    0  0.12304059154E+02 -0.59644511298E+01 -0.28805496570E+02  0.59301934366E+02  0.49999982380E+02 0.  0.
        -12    1    1    2    0    0 -0.12304059154E+02  0.59644511298E+01  0.28805496570E+02  0.31886065634E+02  0.00000000000E+00 0.  1.
         11    1    3    3    0    0  0.20560404719E+02 -0.75764605464E+00 -0.14388249319E+02  0.25106293802E+02  0.51100000000E-03 0. -1.
        -11    1    3    3    0    0  0.57756876225E+01  0.91730630397E+01 -0.62060830480E+01  0.12490761390E+02  0.51100000000E-03 0.  1.
        -12    1    3    3    0    0 -0.14032033188E+02 -0.14379868115E+02 -0.82111642033E+01  0.21704879174E+02  0.00000000000E+00 0.  1.
</event>
<event>
 7    1  0.1290195E-011  0.5930194E+02  0.7816164E-02  0.1266605E+00
        -11   -1    0    0    0    0  0.00000000000E+00  0.00000000000E+00  0.45593999997E+02  0.45594000000E+02  0.51100000000E-03 0.  1.
         11   -1    0    0    0    0 -0.00000000000E+00 -0.00000000000E+00 -0.45593999997E+02  0.45594000000E+02  0.51100000000E-03 0. -1.
    9900012    2    1    2    0    0  0.85171905825E+00  0.13566830890E+02 -0.28843309533E+02  0.59301939871E+02  0.49999992419E+02 0.  0.
        -12    1    1    2    0    0 -0.85171905825E+00 -0.13566830890E+02  0.28843309533E+02  0.31886060129E+02  0.00000000000E+00 0.  1.
         11    1    3    3    0    0  0.95167851419E+01  0.29435972187E+01 -0.89116193282E+01  0.13366036186E+02  0.51100000000E-03 0. -1.
        -11    1    3    3    0    0 -0.71725684613E+01  0.19124901749E+02 -0.27636662709E+02  0.34365574798E+02  0.51100000000E-03 0.  1.
        -12    1    3    3    0    0 -0.14924976223E+01 -0.85016680768E+01  0.77049725050E+01  0.11570328887E+02  0.00000000000E+00 0.  1.
</event>
<event>
 7    1  0.1290195E-011  0.5930195E+02  0.7816164E-02  0.1266605E+00
        -11   -1    0    0    0    0  0.00000000000E+00  0.00000000000E+00  0.45593999997E+02  0.45594000000E+02  0.51100000000E-03 0. -1.
         11   -1    0    0    0    0 -0.00000000000E+00 -0.00000000000E+00 -0.45593999997E+02  0.45594000000E+02  0.51100000000E-03 0.  1.
    9900012    2    1    2    0    0  0.67349715209E+01 -0.30038554937E+02 -0.83093833584E+01  0.59301945432E+02  0.50000002561E+02 0.  0.
        -12    1    1    2    0    0 -0.67349715209E+01  0.30038554937E+02  0.83093833584E+01  0.31886054568E+02  0.00000000000E+00 0.  1.
         11    1    3    3    0    0  0.63064300397E+01 -0.27839461135E+02 -0.70868064680E+01  0.29411383550E+02  0.51100000000E-03 0. -1.
        -11    1    3    3    0    0 -0.13177981893E+02 -0.14043393382E+01  0.59062063283E+01  0.14509122965E+02  0.51100000000E-03 0.  1.
        -12    1    3    3    0    0  0.13606523374E+02 -0.79475446414E+00 -0.71287832188E+01  0.15381438918E+02  0.00000000000E+00 0.  1.
</event>
<event>
 7    1  0.1290195E-011  0.5930193E+02  0.7816164E-02  0.1266605E+00
        -11   -1    0    0    0    0  0.00000000000E+00  0.00000000000E+00  0.45593999997E+02  0.45594000000E+02  0.51100000000E-03 0.  1.
         11   -1    0    0    0    0 -0.00000000000E+00 -0.00000000000E+00 -0.45593999997E+02  0.45594000000E+02  0.51100000000E-03 0. -1.
    9900012    2    1    2    0    0 -0.26677492219E+02 -0.62393115634E+01 -0.16312684320E+02  0.59301932986E+02  0.49999979863E+02 0.  0.
        -12    1    1    2    0    0  0.26677492219E+02  0.62393115634E+01  0.16312684320E+02  0.31886067014E+02  0.00000000000E+00 0.  1.
         11    1    3    3    0    0 -0.50311137006E+00 -0.10431041642E+02 -0.14082902953E+02  0.17532481474E+02  0.51100000000E-03 0. -1.
        -11    1    3    3    0    0  0.68093121659E+00  0.12651269495E+02  0.32617748971E+01  0.13082716190E+02  0.51100000000E-03 0.  1.
        -12    1    3    3    0    0 -0.26855312065E+02 -0.84595394164E+01 -0.54915562644E+01  0.28686735322E+02  0.00000000000E+00 0.  1.
</event>
<event>
 7    1  0.1290195E-011  0.5930194E+02  0.7816164E-02  0.1266605E+00
        -11   -1    0    0    0    0  0.00000000000E+00  0.00000000000E+00  0.45593999997E+02  0.45594000000E+02  0.51100000000E-03 0.  1.
         11   -1    0    0    0    0 -0.00000000000E+00 -0.00000000000E+00 -0.45593999997E+02  0.45594000000E+02  0.51100000000E-03 0. -1.
    9900012    2    1    2    0    0 -0.29274439167E+02  0.10509021984E+02 -0.70205721498E+01  0.59301940900E+02  0.49999994297E+02 0.  0.
        -12    1    1    2    0    0  0.29274439167E+02 -0.10509021984E+02  0.70205721498E+01  0.31886059100E+02  0.00000000000E+00 0.  1.
         11    1    3    3    0    0  0.14030388730E+01  0.65955787695E+01 -0.30577936792E+01  0.74040718412E+01  0.51100000000E-03 0. -1.
        -11    1    3    3    0    0 -0.55115145103E+01  0.28686691405E+01  0.17648023870E+02  0.18709858407E+02  0.51100000000E-03 0.  1.
         12    1    3    3    0    0 -0.25165963529E+02  0.10447740741E+01 -0.21610802341E+02  0.33188010652E+02  0.00000000000E+00 0. -1.
</event>
<event>
 7    1  0.1290195E-011  0.5930194E+02  0.7816164E-02  0.1266605E+00
        -11   -1    0    0    0    0  0.00000000000E+00  0.00000000000E+00  0.45593999997E+02  0.45594000000E+02  0.51100000000E-03 0.  1.
         11   -1    0    0    0    0 -0.00000000000E+00 -0.00000000000E+00 -0.45593999997E+02  0.45594000000E+02  0.51100000000E-03 0. -1.
    9900012    2    1    2    0    0  0.20049781161E+02  0.21845566152E+02 -0.11725968658E+02  0.59301939941E+02  0.49999992547E+02 0.  0.
        -12    1    1    2    0    0 -0.20049781161E+02 -0.21845566152E+02  0.11725968658E+02  0.31886060059E+02  0.00000000000E+00 0.  1.
         11    1    3    3    0    0  0.17132465265E+02  0.13956828033E+01 -0.57380983492E+01  0.18121674025E+02  0.51100000000E-03 0. -1.
        -11    1    3    3    0    0  0.15881787871E+02  0.74092431368E+00  0.25296033344E+01  0.16099038732E+02  0.51100000000E-03 0.  1.
         12    1    3    3    0    0 -0.12964471974E+02  0.19708959035E+02 -0.85174736430E+01  0.25081227184E+02  0.00000000000E+00 0. -1.
</event>
<event>
 7    1  0.1290195E-011  0.5930195E+02  0.7816164E-02  0.1266605E+00
        -11   -1    0    0    0    0  0.00000000000E+00  0.00000000000E+00  0.45593999997E+02  0.45594000000E+02  0.51100000000E-03 0.  1.
         11   -1    0    0    0    0 -0.00000000000E+00 -0.00000000000E+00 -0.45593999997E+02  0.45594000000E+02  0.51100000000E-03 0. -1.
    9900012    2    1    2    0    0  0.29504469382E+02  0.12091581011E+02  0.14656094768E-01  0.59301948823E+02  0.50000008746E+02 0.  0.
        -12    1    1    2    0    0 -0.29504469382E+02 -0.12091581011E+02 -0.14656094768E-01  0.31886051177E+02  0.00000000000E+00 0.  1.
         11    1    3    3    0    0 -0.33672207965E+01  0.11209531398E+02 -0.96024928057E+01  0.15139340752E+02  0.51100000000E-03 0. -1.
        -11    1    3    3    0    0 -0.33826329653E+01  0.38114689602E+01  0.55957710497E+01  0.75684975599E+01  0.51100000000E-03 0.  1.
         12    1    3    3    0    0  0.36254323143E+02 -0.29294193476E+01  0.40213778508E+01  0.36594110511E+02  0.00000000000E+00 0. -1.
</event>
<event>
 7    1  0.1290195E-011  0.5930195E+02  0.7816164E-02  0.1266605E+00
        -11   -1    0    0    0    0  0.00000000000E+00  0.00000000000E+00  0.45593999997E+02  0.45594000000E+02  0.51100000000E-03 0.  1.
         11   -1    0    0    0    0 -0.00000000000E+00 -0.00000000000E+00 -0.45593999997E+02  0.45594000000E+02  0.51100000000E-03 0. -1.
    9900012    2    1    2    0    0 -0.18826306080E+02  0.81804892335E+01 -0.24400201124E+02  0.59301952588E+02  0.50000015611E+02 0.  0.
        -12    1    1    2    0    0  0.18826306080E+02 -0.81804892335E+01  0.24400201124E+02  0.31886047412E+02  0.00000000000E+00 0.  1.
         11    1    3    3    0    0 -0.45374456201E+01 -0.62179314038E+01 -0.11659919940E+02  0.13971571743E+02  0.51100000000E-03 0. -1.
        -11    1    3    3    0    0 -0.63020493678E+01 -0.73610514629E+01 -0.18993613178E+02  0.21322716682E+02  0.51100000000E-03 0.  1.
        -12    1    3    3    0    0 -0.79868110922E+01  0.21759472100E+02  0.62533319950E+01  0.24007664162E+02  0.00000000000E+00 0.  1.
</event>
<event>
 7    1  0.1290195E-011  0.5930199E+02  0.7816164E-02  0.1266605E+00
        -11   -1    0    0    0    0  0.00000000000E+00  0.00000000000E+00  0.45593999997E+02  0.45594000000E+02  0.51100000000E-03 0.  1.
         11   -1    0    0    0    0 -0.00000000000E+00 -0.00000000000E+00 -0.45593999997E+02  0.45594000000E+02  0.51100000000E-03 0. -1.
    9900012    2    1    2    0    0  0.21876324208E+02  0.60965000246E+01 -0.22382516743E+02  0.59301985367E+02  0.50000075393E+02 0.  0.
        -12    1    1    2    0    0 -0.21876324208E+02 -0.60965000246E+01  0.22382516743E+02  0.31886014633E+02  0.00000000000E+00 0.  1.
         11    1    3    3    0    0  0.11043267535E+02  0.10653325636E+02 -0.18580915028E+02  0.24097666039E+02  0.51100000000E-03 0. -1.
        -11    1    3    3    0    0  0.15088267823E+02 -0.13746963132E+02  0.58302638108E+01  0.21227972056E+02  0.51100000000E-03 0.  1.
         12    1    3    3    0    0 -0.42552111500E+01  0.91901375202E+01 -0.96318655258E+01  0.13976347272E+02  0.00000000000E+00 0. -1.
</event>
<event>
 7    1  0.1290195E-011  0.5930217E+02  0.7816164E-02  0.1266604E+00
        -11   -1    0    0    0    0  0.00000000000E+00  0.00000000000E+00  0.45593999997E+02  0.45594000000E+02  0.51100000000E-03 0.  1.
         11   -1    0    0    0    0 -0.00000000000E+00 -0.00000000000E+00 -0.45593999997E+02  0.45594000000E+02  0.51100000000E-03 0. -1.
    9900012    2    1    2    0    0 -0.13256655002E+02  0.11858573989E+02 -0.26463968836E+02  0.59302167324E+02  0.50000407237E+02 0.  0.
        -12    1    1    2    0    0  0.13256655002E+02 -0.11858573989E+02  0.26463968836E+02  0.31885832676E+02  0.00000000000E+00 0.  1.
         11    1    3    3    0    0 -0.23763012854E+01  0.10456201740E+02 -0.12112616427E+02  0.16176972510E+02  0.51100000000E-03 0. -1.
        -11    1    3    3    0    0 -0.24987225386E+02  0.36941325718E+01 -0.13889782529E+02  0.28825927685E+02  0.51100000000E-03 0.  1.
         12    1    3    3    0    0  0.14106871669E+02 -0.22917603234E+01 -0.46156988101E+00  0.14299267129E+02  0.00000000000E+00 0. -1.
</event>
<event>
 7    1  0.1290195E-011  0.5930194E+02  0.7816164E-02  0.1266605E+00
        -11   -1    0    0    0    0  0.00000000000E+00  0.00000000000E+00  0.45593999997E+02  0.45594000000E+02  0.51100000000E-03 0. -1.
         11   -1    0    0    0    0 -0.00000000000E+00 -0.00000000000E+00 -0.45593999997E+02  0.45594000000E+02  0.51100000000E-03 0.  1.
    9900012    2    1    2    0    0 -0.13167231955E+01 -0.10926928522E+02  0.29926393236E+02  0.59301944443E+02  0.50000000757E+02 0.  0.
        -12    1    1    2    0    0  0.13167231955E+01  0.10926928522E+02 -0.29926393236E+02  0.31886055557E+02  0.00000000000E+00 0.  1.
         11    1    3    3    0    0 -0.15720457292E+02  0.11434038461E+01 -0.37684369162E+00  0.15766488551E+02  0.51100000000E-03 0. -1.
        -11    1    3    3    0    0  0.64581052677E+01 -0.61755682491E+00 -0.32104971616E+01  0.72384937913E+01  0.51100000000E-03 0.  1.
         12    1    3    3    0    0  0.79456288283E+01 -0.11452775544E+02  0.33513734089E+02  0.36296962100E+02  0.00000000000E+00 0. -1.
</event>
<event>
 7    1  0.1290195E-011  0.5930197E+02  0.7816164E-02  0.1266605E+00
        -11   -1    0    0    0    0  0.00000000000E+00  0.00000000000E+00  0.45593999997E+02  0.45594000000E+02  0.51100000000E-03 0. -1.
         11   -1    0    0    0    0 -0.00000000000E+00 -0.00000000000E+00 -0.45593999997E+02  0.45594000000E+02  0.51100000000E-03 0.  1.
    9900012    2    1    2    0    0  0.31319169242E+02 -0.43839917636E+01 -0.40754191241E+01  0.59301971919E+02  0.50000050866E+02 0.  0.
        -12    1    1    2    0    0 -0.31319169242E+02  0.43839917636E+01  0.40754191241E+01  0.31886028081E+02  0.00000000000E+00 0.  1.
         11    1    3    3    0    0  0.78422407811E+01 -0.14943935742E+02 -0.22623928035E+01  0.17027635695E+02  0.51100000000E-03 0. -1.
        -11    1    3    3    0    0  0.30600124580E+02  0.23920735366E+01  0.20672408548E+01  0.30763015540E+02  0.51100000000E-03 0.  1.
        -12    1    3    3    0    0 -0.71231961197E+01  0.81678704414E+01 -0.38802671754E+01  0.11511320683E+02  0.00000000000E+00 0.  1.
</event>
<event>
 7    1  0.1290195E-011  0.5930191E+02  0.7816164E-02  0.1266605E+00
        -11   -1    0    0    0    0  0.00000000000E+00  0.00000000000E+00  0.45593999997E+02  0.45594000000E+02  0.51100000000E-03 0.  1.
         11   -1    0    0    0    0 -0.00000000000E+00 -0.00000000000E+00 -0.45593999997E+02  0.45594000000E+02  0.51100000000E-03 0. -1.
    9900012    2    1    2    0    0 -0.66032015604E+01 -0.12172214305E+01 -0.31171123929E+02  0.59301907956E+02  0.49999934213E+02 0.  0.
        -12    1    1    2    0    0  0.66032015604E+01  0.12172214305E+01  0.31171123929E+02  0.31886092044E+02  0.00000000000E+00 0.  1.
         11    1    3    3    0    0 -0.91128003872E+01 -0.40411271313E+01  0.17696379054E+01  0.10124497912E+02  0.51100000000E-03 0. -1.
        -11    1    3    3    0    0  0.94678805776E+01 -0.14154200651E+02 -0.98089193241E+01  0.19651897040E+02  0.51100000000E-03 0.  1.
         12    1    3    3    0    0 -0.69582817508E+01  0.16978106352E+02 -0.23131842510E+02  0.29525513004E+02  0.00000000000E+00 0. -1.
</event>
<event>
 7    1  0.1290195E-011  0.5930196E+02  0.7816164E-02  0.1266605E+00
        -11   -1    0    0    0    0  0.00000000000E+00  0.00000000000E+00  0.45593999997E+02  0.45594000000E+02  0.51100000000E-03 0. -1.
         11   -1    0    0    0    0 -0.00000000000E+00 -0.00000000000E+00 -0.45593999997E+02  0.45594000000E+02  0.51100000000E-03 0.  1.
    9900012    2    1    2    0    0  0.17756474094E+02  0.26451076485E+02 -0.13296743153E+01  0.59301955196E+02  0.50000020369E+02 0.  0.
        -12    1    1    2    0    0 -0.17756474094E+02 -0.26451076485E+02  0.13296743153E+01  0.31886044804E+02  0.00000000000E+00 0.  1.
         11    1    3    3    0    0  0.34984384254E+01  0.96187110062E+01  0.71978267173E+01  0.12512688862E+02  0.51100000000E-03 0. -1.
        -11    1    3    3    0    0  0.20967495277E+02  0.26713297127E+02 -0.49278602849E+01  0.34315009964E+02  0.51100000000E-03 0.  1.
        -12    1    3    3    0    0 -0.67094596088E+01 -0.98809316483E+01 -0.35996407478E+01  0.12474256370E+02  0.00000000000E+00 0.  1.
</event>
<event>
 7    1  0.1290195E-011  0.5930198E+02  0.7816164E-02  0.1266605E+00
        -11   -1    0    0    0    0  0.00000000000E+00  0.00000000000E+00  0.45593999997E+02  0.45594000000E+02  0.51100000000E-03 0. -1.
         11   -1    0    0    0    0 -0.00000000000E+00 -0.00000000000E+00 -0.45593999997E+02  0.45594000000E+02  0.51100000000E-03 0.  1.
    9900012    2    1    2    0    0 -0.12853447919E+02 -0.26789562160E+02  0.11568329521E+02  0.59301984068E+02  0.50000073024E+02 0.  0.
        -12    1    1    2    0    0  0.12853447919E+02  0.26789562160E+02 -0.11568329521E+02  0.31886015932E+02  0.00000000000E+00 0.  1.
         11    1    3    3    0    0  0.58269962448E+01 -0.25632247977E+02  0.13770644097E+02  0.29674848959E+02  0.51100000000E-03 0. -1.
        -11    1    3    3    0    0 -0.24837219963E+01  0.94171694493E+01  0.17213537560E+01  0.98901473400E+01  0.51100000000E-03 0.  1.
        -12    1    3    3    0    0 -0.16196722167E+02 -0.10574483631E+02 -0.39236683317E+01  0.19736987769E+02  0.00000000000E+00 0.  1.
</event>
<event>
 7    1  0.1290195E-011  0.5930193E+02  0.7816164E-02  0.1266605E+00
        -11   -1    0    0    0    0  0.00000000000E+00  0.00000000000E+00  0.45593999997E+02  0.45594000000E+02  0.51100000000E-03 0.  1.
         11   -1    0    0    0    0 -0.00000000000E+00 -0.00000000000E+00 -0.45593999997E+02  0.45594000000E+02  0.51100000000E-03 0. -1.
    9900012    2    1    2    0    0  0.31709596876E+02 -0.26023857299E+01  0.21095898803E+01  0.59301932275E+02  0.49999978566E+02 0.  0.
        -12    1    1    2    0    0 -0.31709596876E+02  0.26023857299E+01 -0.21095898803E+01  0.31886067725E+02  0.00000000000E+00 0.  1.
         11    1    3    3    0    0  0.95113327908E+01 -0.10590081591E+00  0.20107273492E+02  0.22243630864E+02  0.51100000000E-03 0. -1.
        -11    1    3    3    0    0  0.22453412662E+02  0.50249182922E+01 -0.76174118561E+01  0.24236965728E+02  0.51100000000E-03 0.  1.
        -12    1    3    3    0    0 -0.25514857762E+00 -0.75214032062E+01 -0.10380271756E+02  0.12821335684E+02  0.00000000000E+00 0.  1.
</event>
<event>
 7    1  0.1290195E-011  0.5930199E+02  0.7816164E-02  0.1266605E+00
        -11   -1    0    0    0    0  0.00000000000E+00  0.00000000000E+00  0.45593999997E+02  0.45594000000E+02  0.51100000000E-03 0. -1.
         11   -1    0    0    0    0 -0.00000000000E+00 -0.00000000000E+00 -0.45593999997E+02  0.45594000000E+02  0.51100000000E-03 0.  1.
    9900012    2    1    2    0    0 -0.16282338525E+02 -0.23170286075E+02  0.14654049360E+02  0.59301986337E+02  0.50000077162E+02 0.  0.
        -12    1    1    2    0    0  0.16282338525E+02  0.23170286075E+02 -0.14654049360E+02  0.31886013663E+02  0.00000000000E+00 0.  1.
         11    1    3    3    0    0  0.22679470747E+01 -0.69855844728E+01  0.13504620043E+02  0.15372596954E+02  0.51100000000E-03 0. -1.
        -11    1    3    3    0    0  0.89272989820E+01 -0.74518654852E+01 -0.74885330506E+01  0.13831308464E+02  0.51100000000E-03 0.  1.
         12    1    3    3    0    0 -0.27477584582E+02 -0.87328361170E+01  0.86379623681E+01  0.30098080918E+02  0.00000000000E+00 0. -1.
</event>
<event>
 7    1  0.1290195E-011  0.5930194E+02  0.7816164E-02  0.1266605E+00
        -11   -1    0    0    0    0  0.00000000000E+00  0.00000000000E+00  0.45593999997E+02  0.45594000000E+02  0.51100000000E-03 0.  1.
         11   -1    0    0    0    0 -0.00000000000E+00 -0.00000000000E+00 -0.45593999997E+02  0.45594000000E+02  0.51100000000E-03 0. -1.
    9900012    2    1    2    0    0  0.24446024488E+02 -0.15897362822E+02 -0.12899095778E+02  0.59301938314E+02  0.49999989579E+02 0.  0.
        -12    1    1    2    0    0 -0.24446024488E+02  0.15897362822E+02  0.12899095778E+02  0.31886061686E+02  0.00000000000E+00 0.  1.
         11    1    3    3    0    0  0.16393272576E+02 -0.44424430695E+01  0.89781080096E+01  0.19211483802E+02  0.51100000000E-03 0. -1.
        -11    1    3    3    0    0 -0.30821660963E+01  0.80995165286E+01  0.57097762937E-01  0.86663242645E+01  0.51100000000E-03 0.  1.
         12    1    3    3    0    0  0.11134918009E+02 -0.19554436281E+02 -0.21934301551E+02  0.31424130248E+02  0.00000000000E+00 0. -1.
</event>
<event>
 7    1  0.1290195E-011  0.5930189E+02  0.7816164E-02  0.1266605E+00
        -11   -1    0    0    0    0  0.00000000000E+00  0.00000000000E+00  0.45593999997E+02  0.45594000000E+02  0.51100000000E-03 0. -1.
         11   -1    0    0    0    0 -0.00000000000E+00 -0.00000000000E+00 -0.45593999997E+02  0.45594000000E+02  0.51100000000E-03 0.  1.
    9900012    2    1    2    0    0 -0.11024850842E+02 -0.29261243030E+02  0.62415236275E+01  0.59301885515E+02  0.49999893287E+02 0.  0.
        -12    1    1    2    0    0  0.11024850842E+02  0.29261243030E+02 -0.62415236275E+01  0.31886114485E+02  0.00000000000E+00 0.  1.
         11    1    3    3    0    0 -0.91650639645E+01 -0.19224437577E+02  0.21353376644E+02  0.30158648710E+02  0.51100000000E-03 0. -1.
        -11    1    3    3    0    0  0.36918260449E+01  0.59406028341E+01 -0.90223348820E+00  0.70522597164E+01  0.51100000000E-03 0.  1.
         12    1    3    3    0    0 -0.55516129225E+01 -0.15977408287E+02 -0.14209619529E+02  0.22090977089E+02  0.00000000000E+00 0. -1.
</event>
<event>
 7    1  0.1290195E-011  0.5930192E+02  0.7816164E-02  0.1266605E+00
        -11   -1    0    0    0    0  0.00000000000E+00  0.00000000000E+00  0.45593999997E+02  0.45594000000E+02  0.51100000000E-03 0. -1.
         11   -1    0    0    0    0 -0.00000000000E+00 -0.00000000000E+00 -0.45593999997E+02  0.45594000000E+02  0.51100000000E-03 0.  1.
    9900012    2    1    2    0    0  0.10118649579E+02  0.10694643964E+02  0.28283560641E+02  0.59301917121E+02  0.49999950929E+02 0.  0.
        -12    1    1    2    0    0 -0.10118649579E+02 -0.10694643964E+02 -0.28283560641E+02  0.31886082879E+02  0.00000000000E+00 0.  1.
         11    1    3    3    0    0  0.10168849314E+02  0.66881856205E+00  0.39634870366E+02  0.40924024287E+02  0.51100000000E-03 0. -1.
        -11    1    3    3    0    0 -0.46411474987E+01  0.71730239991E+01 -0.45158720135E+01  0.96636237354E+01  0.51100000000E-03 0.  1.
        -12    1    3    3    0    0  0.45909477633E+01  0.28528014029E+01 -0.68354377119E+01  0.87142690986E+01  0.00000000000E+00 0.  1.
</event>
<event>
 7    1  0.1290195E-011  0.5930193E+02  0.7816164E-02  0.1266605E+00
        -11   -1    0    0    0    0  0.00000000000E+00  0.00000000000E+00  0.45593999997E+02  0.45594000000E+02  0.51100000000E-03 0.  1.
         11   -1    0    0    0    0 -0.00000000000E+00 -0.00000000000E+00 -0.45593999997E+02  0.45594000000E+02  0.51100000000E-03 0. -1.
    9900012    2    1    2    0    0 -0.26747293819E+02 -0.73954016031E+01 -0.15703877723E+02  0.59301929890E+02  0.49999974217E+02 0.  0.
        -12    1    1    2    0    0  0.26747293819E+02  0.73954016031E+01  0.15703877723E+02  0.31886070110E+02  0.00000000000E+00 0.  1.
         11    1    3    3    0    0 -0.11721156173E+02  0.83890128778E+00 -0.40469198883E+01  0.12428468057E+02  0.51100000000E-03 0. -1.
        -11    1    3    3    0    0 -0.22241653883E+02 -0.37724354907E+01 -0.23323456360E+02  0.32448513892E+02  0.51100000000E-03 0.  1.
        -12    1    3    3    0    0  0.72155162370E+01 -0.44618674002E+01  0.11666498525E+02  0.14424947941E+02  0.00000000000E+00 0.  1.
</event>
<event>
 7    1  0.1290195E-011  0.5930196E+02  0.7816164E-02  0.1266605E+00
        -11   -1    0    0    0    0  0.00000000000E+00  0.00000000000E+00  0.45593999997E+02  0.45594000000E+02  0.51100000000E-03 0.  1.
         11   -1    0    0    0    0 -0.00000000000E+00 -0.00000000000E+00 -0.45593999997E+02  0.45594000000E+02  0.51100000000E-03 0. -1.
    9900012    2    1    2    0    0 -0.22349609331E+02 -0.18364737423E+02 -0.13414567642E+02  0.59301964767E+02  0.50000037824E+02 0.  0.
        -12    1    1    2    0    0  0.22349609331E+02  0.18364737423E+02  0.13414567642E+02  0.31886035233E+02  0.00000000000E+00 0.  1.
         11    1    3    3    0    0 -0.21860465672E+02  0.12731598666E+01 -0.44243080110E+01  0.22339995458E+02  0.51100000000E-03 0. -1.
        -11    1    3    3    0    0  0.51749846951E+01  0.64603363901E+01  0.12279574897E+01  0.83680519074E+01  0.51100000000E-03 0.  1.
         12    1    3    3    0    0 -0.56641283535E+01 -0.26098233680E+02 -0.10218217121E+02  0.28593917401E+02  0.00000000000E+00 0. -1.
</event>
<event>
 7    1  0.1290195E-011  0.5930195E+02  0.7816164E-02  0.1266605E+00
        -11   -1    0    0    0    0  0.00000000000E+00  0.00000000000E+00  0.45593999997E+02  0.45594000000E+02  0.51100000000E-03 0. -1.
         11   -1    0    0    0    0 -0.00000000000E+00 -0.00000000000E+00 -0.45593999997E+02  0.45594000000E+02  0.51100000000E-03 0.  1.
    9900012    2    1    2    0    0 -0.21623649696E+02  0.19640719901E+02 -0.12782028940E+02  0.59301947120E+02  0.50000005640E+02 0.  0.
        -12    1    1    2    0    0  0.21623649696E+02 -0.19640719901E+02  0.12782028940E+02  0.31886052880E+02  0.00000000000E+00 0.  1.
         11    1    3    3    0    0 -0.11569809053E+02  0.15047159132E+02 -0.88027685980E+01  0.20922863444E+02  0.51100000000E-03 0. -1.
        -11    1    3    3    0    0 -0.10951364614E+02  0.12789193679E+02  0.11810407547E+02  0.20566516199E+02  0.51100000000E-03 0.  1.
        -12    1    3    3    0    0  0.89752397056E+00 -0.81956329100E+01 -0.15789667889E+02  0.17812567477E+02  0.00000000000E+00 0.  1.
</event>
<event>
 7    1  0.1290195E-011  0.5930189E+02  0.7816164E-02  0.1266605E+00
        -11   -1    0    0    0    0  0.00000000000E+00  0.00000000000E+00  0.45593999997E+02  0.45594000000E+02  0.51100000000E-03 0. -1.
         11   -1    0    0    0    0 -0.00000000000E+00 -0.00000000000E+00 -0.45593999997E+02  0.45594000000E+02  0.51100000000E-03 0.  1.
    9900012    2    1    2    0    0  0.29078796340E+02  0.12967530810E+02  0.17293734870E+01  0.59301890414E+02  0.49999902222E+02 0.  0.
        -12    1    1    2    0    0 -0.29078796340E+02 -0.12967530810E+02 -0.17293734870E+01  0.31886109586E+02  0.00000000000E+00 0.  1.
         11    1    3    3    0    0  0.19822772097E+02  0.12902853105E+02  0.12959184102E+02  0.26969730527E+02  0.51100000000E-03 0. -1.
        -11    1    3    3    0    0  0.13404008838E+02  0.36201325453E+01  0.53470050439E+01  0.14878282017E+02  0.51100000000E-03 0.  1.
        -12    1    3    3    0    0 -0.41479845949E+01 -0.35554548406E+01 -0.16576815659E+02  0.17453877870E+02  0.00000000000E+00 0.  1.
</event>
<event>
 7    1  0.1290195E-011  0.5930195E+02  0.7816164E-02  0.1266605E+00
        -11   -1    0    0    0    0  0.00000000000E+00  0.00000000000E+00  0.45593999997E+02  0.45594000000E+02  0.51100000000E-03 0.  1.
         11   -1    0    0    0    0 -0.00000000000E+00 -0.00000000000E+00 -0.45593999997E+02  0.45594000000E+02  0.51100000000E-03 0. -1.
    9900012    2    1    2    0    0 -0.27254976572E+02  0.19761057128E+01 -0.16431105730E+02  0.59301953251E+02  0.50000016821E+02 0.  0.
        -12    1    1    2    0    0  0.27254976572E+02 -0.19761057128E+01  0.16431105730E+02  0.31886046749E+02  0.00000000000E+00 0.  1.
         11    1    3    3    0    0 -0.23930965699E+02  0.14996543107E+02 -0.15886256848E+02  0.32403095243E+02  0.51100000000E-03 0. -1.
        -11    1    3    3    0    0  0.64619254754E+00 -0.50248337211E+00 -0.10429810196E+02  0.10461882973E+02  0.51100000000E-03 0.  1.
        -12    1    3    3    0    0 -0.39702034212E+01 -0.12517954023E+02  0.98849613139E+01  0.16436975035E+02  0.00000000000E+00 0.  1.
</event>
<event>
 7    1  0.1290195E-011  0.5930193E+02  0.7816164E-02  0.1266605E+00
        -11   -1    0    0    0    0  0.00000000000E+00  0.00000000000E+00  0.45593999997E+02  0.45594000000E+02  0.51100000000E-03 0.  1.
         11   -1    0    0    0    0 -0.00000000000E+00 -0.00000000000E+00 -0.45593999997E+02  0.45594000000E+02  0.51100000000E-03 0. -1.
    9900012    2    1    2    0    0 -0.17995655784E+02 -0.25182905158E+02  0.76615243701E+01  0.59301932589E+02  0.49999979138E+02 0.  0.
        -12    1    1    2    0    0  0.17995655784E+02  0.25182905158E+02 -0.76615243701E+01  0.31886067411E+02  0.00000000000E+00 0.  1.
         11    1    3    3    0    0 -0.18730012230E+02  0.35345857227E+00 -0.45453534650E+01  0.19276891074E+02  0.51100000000E-03 0. -1.
        -11    1    3    3    0    0 -0.48569099634E+01  0.57669903563E+00  0.12388953555E+02  0.13319471710E+02  0.51100000000E-03 0.  1.
         12    1    3    3    0    0  0.55912664089E+01 -0.26113062766E+02 -0.18207572038E+00  0.26705569805E+02  0.00000000000E+00 0. -1.
</event>
<event>
 7    1  0.1290195E-011  0.5930191E+02  0.7816164E-02  0.1266605E+00
        -11   -1    0    0    0    0  0.00000000000E+00  0.00000000000E+00  0.45593999997E+02  0.45594000000E+02  0.51100000000E-03 0. -1.
         11   -1    0    0    0    0 -0.00000000000E+00 -0.00000000000E+00 -0.45593999997E+02  0.45594000000E+02  0.51100000000E-03 0.  1.
    9900012    2    1    2    0    0 -0.75860785539E+01  0.30532608661E+02 -0.51898124805E+01  0.59301906902E+02  0.49999932291E+02 0.  0.
        -12    1    1    2    0    0  0.75860785539E+01 -0.30532608661E+02  0.51898124805E+01  0.31886093098E+02  0.00000000000E+00 0.  1.
         11    1    3    3    0    0 -0.67752856159E+01  0.16060518164E+02  0.15391975951E+02  0.23254196670E+02  0.51100000000E-03 0. -1.
        -11    1    3    3    0    0 -0.53864096308E+01  0.27483540650E-01  0.43156633861E+01  0.69021094442E+01  0.51100000000E-03 0.  1.
        -12    1    3    3    0    0  0.45756166928E+01  0.14444606957E+02 -0.24897451817E+02  0.29145600787E+02  0.00000000000E+00 0.  1.
</event>
<event>
 7    1  0.1290195E-011  0.5930199E+02  0.7816164E-02  0.1266605E+00
        -11   -1    0    0    0    0  0.00000000000E+00  0.00000000000E+00  0.45593999997E+02  0.45594000000E+02  0.51100000000E-03 0. -1.
         11   -1    0    0    0    0 -0.00000000000E+00 -0.00000000000E+00 -0.45593999997E+02  0.45594000000E+02  0.51100000000E-03 0.  1.
    9900012    2    1    2    0    0  0.42482201173E+01  0.42547141570E+01  0.31314015948E+02  0.59301991132E+02  0.50000085907E+02 0.  0.
        -12    1    1    2    0    0 -0.42482201173E+01 -0.42547141570E+01 -0.31314015948E+02  0.31886008868E+02  0.00000000000E+00 0.  1.
         11    1    3    3    0    0 -0.20684202069E+01  0.31894997779E+01 -0.92867240486E+01  0.10034665655E+02  0.51100000000E-03 0. -1.
        -11    1    3    3    0    0  0.10326923564E+01 -0.38212110719E+01 -0.30688891476E+01  0.50086114263E+01  0.51100000000E-03 0.  1.
         12    1    3    3    0    0  0.52839479678E+01  0.48864254510E+01  0.43669629145E+02  0.44258714051E+02  0.00000000000E+00 0. -1.
</event>
<event>
 7    1  0.1290195E-011  0.5930194E+02  0.7816164E-02  0.1266605E+00
        -11   -1    0    0    0    0  0.00000000000E+00  0.00000000000E+00  0.45593999997E+02  0.45594000000E+02  0.51100000000E-03 0.  1.
         11   -1    0    0    0    0 -0.00000000000E+00 -0.00000000000E+00 -0.45593999997E+02  0.45594000000E+02  0.51100000000E-03 0. -1.
    9900012    2    1    2    0    0  0.24407669075E+01 -0.18561222429E+02 -0.25811710118E+02  0.59301941912E+02  0.49999996142E+02 0.  0.
        -12    1    1    2    0    0 -0.24407669075E+01  0.18561222429E+02  0.25811710118E+02  0.31886058088E+02  0.00000000000E+00 0.  1.
         11    1    3    3    0    0  0.58275539591E+01 -0.24299678532E+02 -0.31759244342E+02  0.40411438521E+02  0.51100000000E-03 0. -1.
        -11    1    3    3    0    0 -0.25108011699E+01 -0.40166819773E+01 -0.30144480727E+01  0.56146909145E+01  0.51100000000E-03 0.  1.
        -12    1    3    3    0    0 -0.87598588178E+00  0.97551380808E+01  0.89619822961E+01  0.13275812477E+02  0.00000000000E+00 0.  1.
</event>
<event>
 7    1  0.1290195E-011  0.5930194E+02  0.7816164E-02  0.1266605E+00
        -11   -1    0    0    0    0  0.00000000000E+00  0.00000000000E+00  0.45593999997E+02  0.45594000000E+02  0.51100000000E-03 0. -1.
         11   -1    0    0    0    0 -0.00000000000E+00 -0.00000000000E+00 -0.45593999997E+02  0.45594000000E+02  0.51100000000E-03 0.  1.
    9900012    2    1    2    0    0 -0.11216899025E+02 -0.10755923693E+02  0.27842625700E+02  0.59301944677E+02  0.50000001183E+02 0.  0.
        -12    1    1    2    0    0  0.11216899025E+02  0.10755923693E+02 -0.27842625700E+02  0.31886055323E+02  0.00000000000E+00 0.  1.
         11    1    3    3    0    0 -0.20614751175E+01  0.64158880897E+01  0.14883104676E+02  0.16337689699E+02  0.51100000000E-03 0. -1.
        -11    1    3    3    0    0  0.10318108244E+02 -0.37631402098E+01  0.15702477754E+02  0.19162264737E+02  0.51100000000E-03 0.  1.
         12    1    3    3    0    0 -0.19473532152E+02 -0.13408671572E+02 -0.27429567301E+01  0.23801990241E+02  0.00000000000E+00 0. -1.
</event>
<event>
 7    1  0.1290195E-011  0.5930193E+02  0.7816164E-02  0.1266605E+00
        -11   -1    0    0    0    0  0.00000000000E+00  0.00000000000E+00  0.45593999997E+02  0.45594000000E+02  0.51100000000E-03 0.  1.
         11   -1    0    0    0    0 -0.00000000000E+00 -0.00000000000E+00 -0.45593999997E+02  0.45594000000E+02  0.51100000000E-03 0. -1.
    9900012    2    1    2    0    0  0.95665187773E+01 -0.17339407006E+02  0.24990966089E+02  0.59301926192E+02  0.49999967472E+02 0.  0.
        -12    1    1    2    0    0 -0.95665187773E+01  0.17339407006E+02 -0.24990966089E+02  0.31886073808E+02  0.00000000000E+00 0.  1.
         11    1    3    3    0    0 -0.14356191306E+02  0.58407774482E+01 -0.15281292573E+00  0.15499621352E+02  0.51100000000E-03 0.  1.
        -11    1    3    3    0    0  0.41817884100E+01 -0.96214651880E+01  0.23727272858E+01  0.10755918450E+02  0.51100000000E-03 0. -1.
        -12    1    3    3    0    0  0.19740921673E+02 -0.13558719266E+02  0.22771051729E+02  0.33046386390E+02  0.00000000000E+00 0.  1.
</event>
<event>
 7    1  0.1290195E-011  0.5930194E+02  0.7816164E-02  0.1266605E+00
        -11   -1    0    0    0    0  0.00000000000E+00  0.00000000000E+00  0.45593999997E+02  0.45594000000E+02  0.51100000000E-03 0. -1.
         11   -1    0    0    0    0 -0.00000000000E+00 -0.00000000000E+00 -0.45593999997E+02  0.45594000000E+02  0.51100000000E-03 0.  1.
    9900012    2    1    2    0    0  0.23869589495E+02 -0.17256504684E+02  0.12213791195E+02  0.59301937968E+02  0.49999988948E+02 0.  0.
        -12    1    1    2    0    0 -0.23869589495E+02  0.17256504684E+02 -0.12213791195E+02  0.31886062032E+02  0.00000000000E+00 0.  1.
         11    1    3    3    0    0  0.16047312694E+02 -0.10943616938E+02  0.20497042640E+02  0.28238409191E+02  0.51100000000E-03 0. -1.
        -11    1    3    3    0    0  0.14764030574E+02  0.57101474938E+01 -0.63090622546E+01  0.17040735019E+02  0.51100000000E-03 0.  1.
         12    1    3    3    0    0 -0.69417537724E+01 -0.12023035240E+02 -0.19741891905E+01  0.14022793758E+02  0.00000000000E+00 0. -1.
</event>
<event>
 7    1  0.1290195E-011  0.5930205E+02  0.7816164E-02  0.1266604E+00
        -11   -1    0    0    0    0  0.00000000000E+00  0.00000000000E+00  0.45593999997E+02  0.45594000000E+02  0.51100000000E-03 0. -1.
         11   -1    0    0    0    0 -0.00000000000E+00 -0.00000000000E+00 -0.45593999997E+02  0.45594000000E+02  0.51100000000E-03 0.  1.
    9900012    2    1    2    0    0 -0.13013014756E+02  0.16863716972E+02 -0.23727416001E+02  0.59302050536E+02  0.50000194245E+02 0.  0.
        -12    1    1    2    0    0  0.13013014756E+02 -0.16863716972E+02  0.23727416001E+02  0.31885949464E+02  0.00000000000E+00 0.  1.
         11    1    3    3    0    0  0.41073079198E+01  0.25269499254E+01 -0.32575727657E+01  0.58195562424E+01  0.51100000000E-03 0. -1.
        -11    1    3    3    0    0 -0.37672710459E+01  0.18538670242E+02 -0.30757976285E+02  0.36109939503E+02  0.51100000000E-03 0.  1.
         12    1    3    3    0    0 -0.13353051630E+02 -0.42019031952E+01  0.10288133050E+02  0.17372554791E+02  0.00000000000E+00 0. -1.
</event>
<event>
 7    1  0.1290195E-011  0.5930196E+02  0.7816164E-02  0.1266605E+00
        -11   -1    0    0    0    0  0.00000000000E+00  0.00000000000E+00  0.45593999997E+02  0.45594000000E+02  0.51100000000E-03 0.  1.
         11   -1    0    0    0    0 -0.00000000000E+00 -0.00000000000E+00 -0.45593999997E+02  0.45594000000E+02  0.51100000000E-03 0. -1.
    9900012    2    1    2    0    0  0.13648222294E+02 -0.10901603300E+02 -0.26675839843E+02  0.59301962968E+02  0.50000034542E+02 0.  0.
        -12    1    1    2    0    0 -0.13648222294E+02  0.10901603300E+02  0.26675839843E+02  0.31886037032E+02  0.00000000000E+00 0.  1.
         11    1    3    3    0    0 -0.40455575098E+01  0.92914598165E+01 -0.13852697442E+02  0.17163769626E+02  0.51100000000E-03 0. -1.
        -11    1    3    3    0    0  0.13843988229E+02 -0.48624331128E+01 -0.19978135885E+02  0.24787601328E+02  0.51100000000E-03 0.  1.
        -12    1    3    3    0    0  0.38497915747E+01 -0.15330630004E+02  0.71549934846E+01  0.17350592014E+02  0.00000000000E+00 0.  1.
</event>
<event>
 7    1  0.1290195E-011  0.5930191E+02  0.7816164E-02  0.1266605E+00
        -11   -1    0    0    0    0  0.00000000000E+00  0.00000000000E+00  0.45593999997E+02  0.45594000000E+02  0.51100000000E-03 0.  1.
         11   -1    0    0    0    0 -0.00000000000E+00 -0.00000000000E+00 -0.45593999997E+02  0.45594000000E+02  0.51100000000E-03 0. -1.
    9900012    2    1    2    0    0  0.53936528859E+01  0.43538059410E+01 -0.31123551243E+02  0.59301912758E+02  0.49999942972E+02 0.  0.
        -12    1    1    2    0    0 -0.53936528859E+01 -0.43538059410E+01  0.31123551243E+02  0.31886087242E+02  0.00000000000E+00 0.  1.
         11    1    3    3    0    0 -0.30218863562E+01  0.17897884953E+02 -0.32350275805E+01  0.18437230992E+02  0.51100000000E-03 0.  1.
        -11    1    3    3    0    0 -0.88386341644E+01 -0.61915305542E+01 -0.13150099586E+02  0.17011220529E+02  0.51100000000E-03 0. -1.
        -12    1    3    3    0    0  0.17254173407E+02 -0.73525484578E+01 -0.14738424076E+02  0.23853461238E+02  0.00000000000E+00 0.  1.
</event>
<event>
 7    1  0.1290195E-011  0.5930196E+02  0.7816164E-02  0.1266605E+00
        -11   -1    0    0    0    0  0.00000000000E+00  0.00000000000E+00  0.45593999997E+02  0.45594000000E+02  0.51100000000E-03 0. -1.
         11   -1    0    0    0    0 -0.00000000000E+00 -0.00000000000E+00 -0.45593999997E+02  0.45594000000E+02  0.51100000000E-03 0.  1.
    9900012    2    1    2    0    0 -0.10640702882E+02 -0.26118618946E+02  0.14876585137E+02  0.59301959186E+02  0.50000027644E+02 0.  0.
        -12    1    1    2    0    0  0.10640702882E+02  0.26118618946E+02 -0.14876585137E+02  0.31886040814E+02  0.00000000000E+00 0.  1.
         11    1    3    3    0    0  0.70653024178E+00  0.10034236523E+02  0.12130879198E+02  0.15758912334E+02  0.51100000000E-03 0. -1.
        -11    1    3    3    0    0  0.33805231238E+01  0.84479057878E+00  0.12223499087E+01  0.36926612724E+01  0.51100000000E-03 0.  1.
         12    1    3    3    0    0 -0.14727756247E+02 -0.36997646048E+02  0.15233560296E+01  0.39850385579E+02  0.00000000000E+00 0. -1.
</event>
<event>
 7    1  0.1290195E-011  0.5930197E+02  0.7816164E-02  0.1266605E+00
        -11   -1    0    0    0    0  0.00000000000E+00  0.00000000000E+00  0.45593999997E+02  0.45594000000E+02  0.51100000000E-03 0. -1.
         11   -1    0    0    0    0 -0.00000000000E+00 -0.00000000000E+00 -0.45593999997E+02  0.45594000000E+02  0.51100000000E-03 0.  1.
    9900012    2    1    2    0    0  0.96269405564E+01 -0.29963695172E+02 -0.51203299715E+01  0.59301971840E+02  0.50000050722E+02 0.  0.
        -12    1    1    2    0    0 -0.96269405564E+01  0.29963695172E+02  0.51203299715E+01  0.31886028160E+02  0.00000000000E+00 0.  1.
         11    1    3    3    0    0 -0.17935168831E+01 -0.31674792459E+02 -0.12098329331E+01  0.31748588569E+02  0.51100000000E-03 0. -1.
        -11    1    3    3    0    0 -0.66819024261E+01 -0.45022934464E+01 -0.21013230251E+00  0.80599393395E+01  0.51100000000E-03 0.  1.
         12    1    3    3    0    0  0.18102359866E+02  0.62133907337E+01 -0.37003647358E+01  0.19493443931E+02  0.00000000000E+00 0. -1.
</event>
<event>
 7    1  0.1290195E-011  0.5930191E+02  0.7816164E-02  0.1266605E+00
        -11   -1    0    0    0    0  0.00000000000E+00  0.00000000000E+00  0.45593999997E+02  0.45594000000E+02  0.51100000000E-03 0. -1.
         11   -1    0    0    0    0 -0.00000000000E+00 -0.00000000000E+00 -0.45593999997E+02  0.45594000000E+02  0.51100000000E-03 0.  1.
    9900012    2    1    2    0    0 -0.86891389548E+01  0.29631464826E+02  0.79497051968E+01  0.59301911243E+02  0.49999940209E+02 0.  0.
        -12    1    1    2    0    0  0.86891389548E+01 -0.29631464826E+02 -0.79497051968E+01  0.31886088757E+02  0.00000000000E+00 0.  1.
         11    1    3    3    0    0  0.57218924363E+01  0.86361624762E+01  0.93154578979E+01  0.13932017495E+02  0.51100000000E-03 0. -1.
        -11    1    3    3    0    0  0.12362124494E+02  0.99307722360E+01 -0.37762700398E+01  0.16300385728E+02  0.51100000000E-03 0.  1.
        -12    1    3    3    0    0 -0.26773155885E+02  0.11064530113E+02  0.24105173387E+01  0.29069508020E+02  0.00000000000E+00 0.  1.
</event>
<event>
 7    1  0.1290195E-011  0.5930195E+02  0.7816164E-02  0.1266605E+00
        -11   -1    0    0    0    0  0.00000000000E+00  0.00000000000E+00  0.45593999997E+02  0.45594000000E+02  0.51100000000E-03 0.  1.
         11   -1    0    0    0    0 -0.00000000000E+00 -0.00000000000E+00 -0.45593999997E+02  0.45594000000E+02  0.51100000000E-03 0. -1.
    9900012    2    1    2    0    0  0.88475685580E+01  0.18438099794E+02 -0.24463799875E+02  0.59301945090E+02  0.50000001937E+02 0.  0.
        -12    1    1    2    0    0 -0.88475685580E+01 -0.18438099794E+02  0.24463799875E+02  0.31886054910E+02  0.00000000000E+00 0.  1.
         11    1    3    3    0    0  0.77199680340E+01 -0.86779471678E+01 -0.79524004023E+01  0.14076410974E+02  0.51100000000E-03 0. -1.
        -11    1    3    3    0    0 -0.13258102135E+02  0.21313122086E+02 -0.42607643896E+01  0.25459390383E+02  0.51100000000E-03 0.  1.
         12    1    3    3    0    0  0.14385702659E+02  0.58029248758E+01 -0.12250635083E+02  0.19766143732E+02  0.00000000000E+00 0. -1.
</event>
<event>
 7    1  0.1290195E-011  0.5930199E+02  0.7816164E-02  0.1266605E+00
        -11   -1    0    0    0    0  0.00000000000E+00  0.00000000000E+00  0.45593999997E+02  0.45594000000E+02  0.51100000000E-03 0.  1.
         11   -1    0    0    0    0 -0.00000000000E+00 -0.00000000000E+00 -0.45593999997E+02  0.45594000000E+02  0.51100000000E-03 0. -1.
    9900012    2    1    2    0    0  0.31494707761E+02 -0.43707466005E+01  0.23869306051E+01  0.59301992402E+02  0.50000088224E+02 0.  0.
        -12    1    1    2    0    0 -0.31494707761E+02  0.43707466005E+01 -0.23869306051E+01  0.31886007598E+02  0.00000000000E+00 0.  1.
         11    1    3    3    0    0 -0.18930437989E+01 -0.62202826757E+01 -0.10564552591E+02  0.12405051515E+02  0.51100000000E-03 0. -1.
        -11    1    3    3    0    0  0.10979595314E+02  0.95755642811E+01  0.17490948419E+02  0.22763484387E+02  0.51100000000E-03 0.  1.
         12    1    3    3    0    0  0.22408156246E+02 -0.77260282059E+01 -0.45394652228E+01  0.24133456501E+02  0.00000000000E+00 0. -1.
</event>
<event>
 7    1  0.1290195E-011  0.5930213E+02  0.7816164E-02  0.1266604E+00
        -11   -1    0    0    0    0  0.00000000000E+00  0.00000000000E+00  0.45593999997E+02  0.45594000000E+02  0.51100000000E-03 0. -1.
         11   -1    0    0    0    0 -0.00000000000E+00 -0.00000000000E+00 -0.45593999997E+02  0.45594000000E+02  0.51100000000E-03 0.  1.
    9900012    2    1    2    0    0  0.24956435098E+02 -0.19832896939E+02 -0.73590666556E+00  0.59302125190E+02  0.50000330395E+02 0.  0.
        -12    1    1    2    0    0 -0.24956435098E+02  0.19832896939E+02  0.73590666556E+00  0.31885874810E+02  0.00000000000E+00 0.  1.
         11    1    3    3    0    0  0.25587888500E+02 -0.46605548214E+01  0.13260235257E+02  0.29194085847E+02  0.51100000000E-03 0. -1.
        -11    1    3    3    0    0  0.47946927055E+01  0.30723801273E+01  0.11172207161E+01  0.58031698387E+01  0.51100000000E-03 0.  1.
         12    1    3    3    0    0 -0.54261461069E+01 -0.18244722244E+02 -0.15113362639E+02  0.24304869504E+02  0.00000000000E+00 0. -1.
</event>
<event>
 7    1  0.1290195E-011  0.5930194E+02  0.7816164E-02  0.1266605E+00
        -11   -1    0    0    0    0  0.00000000000E+00  0.00000000000E+00  0.45593999997E+02  0.45594000000E+02  0.51100000000E-03 0.  1.
         11   -1    0    0    0    0 -0.00000000000E+00 -0.00000000000E+00 -0.45593999997E+02  0.45594000000E+02  0.51100000000E-03 0. -1.
    9900012    2    1    2    0    0  0.85197131625E+01  0.17552772993E+02 -0.25219738429E+02  0.59301944136E+02  0.50000000197E+02 0.  0.
        -12    1    1    2    0    0 -0.85197131625E+01 -0.17552772993E+02  0.25219738429E+02  0.31886055864E+02  0.00000000000E+00 0.  1.
         11    1    3    3    0    0  0.28980123722E+01 -0.11566870471E+01  0.33795234204E+01  0.45997368886E+01  0.51100000000E-03 0. -1.
        -11    1    3    3    0    0 -0.10912191913E+02 -0.48783131213E+01 -0.22171584969E+02  0.25188351506E+02  0.51100000000E-03 0.  1.
         12    1    3    3    0    0  0.16533892704E+02  0.23587773162E+02 -0.64276768803E+01  0.29513855742E+02  0.00000000000E+00 0. -1.
</event>
<event>
 7    1  0.1290195E-011  0.5930195E+02  0.7816164E-02  0.1266605E+00
        -11   -1    0    0    0    0  0.00000000000E+00  0.00000000000E+00  0.45593999997E+02  0.45594000000E+02  0.51100000000E-03 0. -1.
         11   -1    0    0    0    0 -0.00000000000E+00 -0.00000000000E+00 -0.45593999997E+02  0.45594000000E+02  0.51100000000E-03 0.  1.
    9900012    2    1    2    0    0 -0.37732733264E+01  0.28601633521E+02  0.13580476110E+02  0.59301947202E+02  0.50000005789E+02 0.  0.
        -12    1    1    2    0    0  0.37732733264E+01 -0.28601633521E+02 -0.13580476110E+02  0.31886052798E+02  0.00000000000E+00 0.  1.
         11    1    3    3    0    0  0.18231260380E+02  0.11631404734E+02  0.41852663633E+00  0.21629692460E+02  0.51100000000E-03 0. -1.
        -11    1    3    3    0    0 -0.26012684888E+01 -0.45284954851E+01 -0.11821068143E+01  0.53545537527E+01  0.51100000000E-03 0.  1.
         12    1    3    3    0    0 -0.19403265217E+02  0.21498724273E+02  0.14344056288E+02  0.32317700989E+02  0.00000000000E+00 0. -1.
</event>
<event>
 7    1  0.1290195E-011  0.5930195E+02  0.7816164E-02  0.1266605E+00
        -11   -1    0    0    0    0  0.00000000000E+00  0.00000000000E+00  0.45593999997E+02  0.45594000000E+02  0.51100000000E-03 0. -1.
         11   -1    0    0    0    0 -0.00000000000E+00 -0.00000000000E+00 -0.45593999997E+02  0.45594000000E+02  0.51100000000E-03 0.  1.
    9900012    2    1    2    0    0  0.20000347216E+02  0.21457566904E+02  0.12501172434E+02  0.59301946961E+02  0.50000005349E+02 0.  0.
        -12    1    1    2    0    0 -0.20000347216E+02 -0.21457566904E+02 -0.12501172434E+02  0.31886053039E+02  0.00000000000E+00 0.  1.
         11    1    3    3    0    0  0.14811593487E+01  0.64293721695E+01  0.11726025673E+02  0.13454751497E+02  0.51100000000E-03 0.  1.
        -11    1    3    3    0    0 -0.89743422658E+01 -0.44320794645E+01 -0.57413671197E+01  0.11538866675E+02  0.51100000000E-03 0. -1.
        -12    1    3    3    0    0  0.27493530133E+02  0.19460274199E+02  0.65165138804E+01  0.34308328788E+02  0.00000000000E+00 0.  1.
</event>
<event>
 7    1  0.1290195E-011  0.5930195E+02  0.7816164E-02  0.1266605E+00
        -11   -1    0    0    0    0  0.00000000000E+00  0.00000000000E+00  0.45593999997E+02  0.45594000000E+02  0.51100000000E-03 0. -1.
         11   -1    0    0    0    0 -0.00000000000E+00 -0.00000000000E+00 -0.45593999997E+02  0.45594000000E+02  0.51100000000E-03 0.  1.
    9900012    2    1    2    0    0 -0.76123434732E+01 -0.28345849368E+02  0.12461361217E+02  0.59301945478E+02  0.50000002646E+02 0.  0.
        -12    1    1    2    0    0  0.76123434732E+01  0.28345849368E+02 -0.12461361217E+02  0.31886054522E+02  0.00000000000E+00 0.  1.
         11    1    3    3    0    0  0.57478783309E+01 -0.21109847529E+02  0.16071632039E+02  0.27147027916E+02  0.51100000000E-03 0. -1.
        -11    1    3    3    0    0 -0.89990952862E+01 -0.16349072132E+02 -0.89837710253E+01  0.20711929356E+02  0.51100000000E-03 0.  1.
         12    1    3    3    0    0 -0.43611265179E+01  0.91130702926E+01  0.53735002030E+01  0.11442988207E+02  0.00000000000E+00 0. -1.
</event>
<event>
 7    1  0.1290195E-011  0.5930194E+02  0.7816164E-02  0.1266605E+00
        -11   -1    0    0    0    0  0.00000000000E+00  0.00000000000E+00  0.45593999997E+02  0.45594000000E+02  0.51100000000E-03 0.  1.
         11   -1    0    0    0    0 -0.00000000000E+00 -0.00000000000E+00 -0.45593999997E+02  0.45594000000E+02  0.51100000000E-03 0. -1.
    9900012    2    1    2    0    0  0.79557919500E+00  0.25928731302E+02 -0.18541545459E+02  0.59301937822E+02  0.49999988683E+02 0.  0.
        -12    1    1    2    0    0 -0.79557919500E+00 -0.25928731302E+02  0.18541545459E+02  0.31886062178E+02  0.00000000000E+00 0.  1.
         11    1    3    3    0    0 -0.18853375143E+01  0.84137945992E+01 -0.12469341216E+02  0.15160175056E+02  0.51100000000E-03 0. -1.
        -11    1    3    3    0    0  0.56900178813E+01 -0.11487047253E+02  0.37796730425E+01  0.13364673084E+02  0.51100000000E-03 0.  1.
         12    1    3    3    0    0 -0.30091011720E+01  0.29001983956E+02 -0.98518772851E+01  0.30777089682E+02  0.00000000000E+00 0. -1.
</event>
<event>
 7    1  0.1290195E-011  0.5930193E+02  0.7816164E-02  0.1266605E+00
        -11   -1    0    0    0    0  0.00000000000E+00  0.00000000000E+00  0.45593999997E+02  0.45594000000E+02  0.51100000000E-03 0.  1.
         11   -1    0    0    0    0 -0.00000000000E+00 -0.00000000000E+00 -0.45593999997E+02  0.45594000000E+02  0.51100000000E-03 0. -1.
    9900012    2    1    2    0    0  0.55629392753E+01 -0.23303515948E+02 -0.21040940334E+02  0.59301932211E+02  0.49999978448E+02 0.  0.
        -12    1    1    2    0    0 -0.55629392753E+01  0.23303515948E+02  0.21040940334E+02  0.31886067789E+02  0.00000000000E+00 0.  1.
         11    1    3    3    0    0  0.27662038776E+01 -0.10848804742E+02 -0.16282621231E+02  0.19760369497E+02  0.51100000000E-03 0. -1.
        -11    1    3    3    0    0 -0.13286575094E+02 -0.16358766214E+02 -0.82411341628E+01  0.22628711901E+02  0.51100000000E-03 0.  1.
         12    1    3    3    0    0  0.16083310492E+02  0.39040550079E+01  0.34828150594E+01  0.16912850813E+02  0.00000000000E+00 0. -1.
</event>
<event>
 7    1  0.1290195E-011  0.5930195E+02  0.7816164E-02  0.1266605E+00
        -11   -1    0    0    0    0  0.00000000000E+00  0.00000000000E+00  0.45593999997E+02  0.45594000000E+02  0.51100000000E-03 0.  1.
         11   -1    0    0    0    0 -0.00000000000E+00 -0.00000000000E+00 -0.45593999997E+02  0.45594000000E+02  0.51100000000E-03 0. -1.
    9900012    2    1    2    0    0  0.38771077990E+01  0.28275491835E+02 -0.14219167400E+02  0.59301950936E+02  0.50000012599E+02 0.  0.
        -12    1    1    2    0    0 -0.38771077990E+01 -0.28275491835E+02  0.14219167400E+02  0.31886049064E+02  0.00000000000E+00 0.  1.
         11    1    3    3    0    0 -0.15631079763E+02  0.16603669334E+02 -0.51824806322E+01  0.23385264499E+02  0.51100000000E-03 0. -1.
        -11    1    3    3    0    0 -0.32521713539E+01 -0.16379653671E+00  0.55287198919E+01  0.64164002155E+01  0.51100000000E-03 0.  1.
        -12    1    3    3    0    0  0.22760358916E+02  0.11835619037E+02 -0.14565406659E+02  0.29500286221E+02  0.00000000000E+00 0.  1.
</event>
<event>
 7    1  0.1290195E-011  0.5930192E+02  0.7816164E-02  0.1266605E+00
        -11   -1    0    0    0    0  0.00000000000E+00  0.00000000000E+00  0.45593999997E+02  0.45594000000E+02  0.51100000000E-03 0.  1.
         11   -1    0    0    0    0 -0.00000000000E+00 -0.00000000000E+00 -0.45593999997E+02  0.45594000000E+02  0.51100000000E-03 0. -1.
    9900012    2    1    2    0    0 -0.18388153638E+02  0.87819287362E+01 -0.24524996611E+02  0.59301922704E+02  0.49999961111E+02 0.  0.
        -12    1    1    2    0    0  0.18388153638E+02 -0.87819287362E+01  0.24524996611E+02  0.31886077296E+02  0.00000000000E+00 0.  1.
         11    1    3    3    0    0 -0.27370725994E+02  0.26752358185E+00 -0.38166443153E+01  0.27636841071E+02  0.51100000000E-03 0. -1.
        -11    1    3    3    0    0  0.14179883066E+01  0.21535975024E+01  0.41658416042E+01  0.48992764335E+01  0.51100000000E-03 0.  1.
        -12    1    3    3    0    0  0.75645840492E+01  0.63608076519E+01 -0.24874193900E+02  0.26765805200E+02  0.00000000000E+00 0.  1.
</event>
<event>
 7    1  0.1290195E-011  0.5930194E+02  0.7816164E-02  0.1266605E+00
        -11   -1    0    0    0    0  0.00000000000E+00  0.00000000000E+00  0.45593999997E+02  0.45594000000E+02  0.51100000000E-03 0.  1.
         11   -1    0    0    0    0 -0.00000000000E+00 -0.00000000000E+00 -0.45593999997E+02  0.45594000000E+02  0.51100000000E-03 0. -1.
    9900012    2    1    2    0    0 -0.17894049811E+02  0.15363683648E+02 -0.21458818476E+02  0.59301942165E+02  0.49999996602E+02 0.  0.
        -12    1    1    2    0    0  0.17894049811E+02 -0.15363683648E+02  0.21458818476E+02  0.31886057835E+02  0.00000000000E+00 0.  1.
         11    1    3    3    0    0  0.62324945504E-01  0.11110892093E+02  0.51411743200E+01  0.12242854289E+02  0.51100000000E-03 0. -1.
        -11    1    3    3    0    0  0.28327060325E+00  0.13782764436E+02 -0.46389213202E+00  0.13793477948E+02  0.51100000000E-03 0.  1.
         12    1    3    3    0    0 -0.18239645360E+02 -0.95299728800E+01 -0.26136100664E+02  0.33265609928E+02  0.00000000000E+00 0. -1.
</event>
<event>
 7    1  0.1290195E-011  0.5930195E+02  0.7816164E-02  0.1266605E+00
        -11   -1    0    0    0    0  0.00000000000E+00  0.00000000000E+00  0.45593999997E+02  0.45594000000E+02  0.51100000000E-03 0.  1.
         11   -1    0    0    0    0 -0.00000000000E+00 -0.00000000000E+00 -0.45593999997E+02  0.45594000000E+02  0.51100000000E-03 0. -1.
    9900012    2    1    2    0    0  0.11872126827E+02  0.29029824051E+02 -0.57482152703E+01  0.59301951975E+02  0.50000014494E+02 0.  0.
        -12    1    1    2    0    0 -0.11872126827E+02 -0.29029824051E+02  0.57482152703E+01  0.31886048025E+02  0.00000000000E+00 0.  1.
         11    1    3    3    0    0 -0.88090892608E+01  0.35560457473E+01  0.28388321882E+00  0.95040046772E+01  0.51100000000E-03 0. -1.
        -11    1    3    3    0    0  0.47456615580E+01 -0.77370088237E+01  0.61909719679E+01  0.10986844102E+02  0.51100000000E-03 0.  1.
        -12    1    3    3    0    0  0.15935554530E+02  0.33210787128E+02 -0.12223070457E+02  0.38811103195E+02  0.00000000000E+00 0.  1.
</event>
<event>
 7    1  0.1290195E-011  0.5930192E+02  0.7816164E-02  0.1266605E+00
        -11   -1    0    0    0    0  0.00000000000E+00  0.00000000000E+00  0.45593999997E+02  0.45594000000E+02  0.51100000000E-03 0.  1.
         11   -1    0    0    0    0 -0.00000000000E+00 -0.00000000000E+00 -0.45593999997E+02  0.45594000000E+02  0.51100000000E-03 0. -1.
    9900012    2    1    2    0    0  0.71871761543E-01  0.14394371693E+02 -0.28452048988E+02  0.59301918497E+02  0.49999953438E+02 0.  0.
        -12    1    1    2    0    0 -0.71871761543E-01 -0.14394371693E+02  0.28452048988E+02  0.31886081503E+02  0.00000000000E+00 0.  1.
         11    1    3    3    0    0 -0.11048277446E+02  0.15649467142E+02 -0.11695711897E+02  0.22444596975E+02  0.51100000000E-03 0. -1.
        -11    1    3    3    0    0  0.62623638715E+00 -0.18893273368E+01  0.89056427561E+01  0.91253604289E+01  0.51100000000E-03 0.  1.
         12    1    3    3    0    0  0.10493912820E+02  0.63423188832E+00 -0.25661979847E+02  0.27731961093E+02  0.00000000000E+00 0. -1.
</event>
<event>
 7    1  0.1290195E-011  0.5930192E+02  0.7816164E-02  0.1266605E+00
        -11   -1    0    0    0    0  0.00000000000E+00  0.00000000000E+00  0.45593999997E+02  0.45594000000E+02  0.51100000000E-03 0.  1.
         11   -1    0    0    0    0 -0.00000000000E+00 -0.00000000000E+00 -0.45593999997E+02  0.45594000000E+02  0.51100000000E-03 0. -1.
    9900012    2    1    2    0    0 -0.22881333906E+02  0.74533614568E+01 -0.20919227983E+02  0.59301919373E+02  0.49999955036E+02 0.  0.
        -12    1    1    2    0    0  0.22881333906E+02 -0.74533614568E+01  0.20919227983E+02  0.31886080627E+02  0.00000000000E+00 0.  1.
         11    1    3    3    0    0 -0.14971670076E+01 -0.13686101314E+01  0.28599148920E+01  0.35062396083E+01  0.51100000000E-03 0. -1.
        -11    1    3    3    0    0  0.50719781286E+01 -0.19342068496E+01  0.10111478301E+02  0.11476415467E+02  0.51100000000E-03 0.  1.
         12    1    3    3    0    0 -0.26456145027E+02  0.10756178438E+02 -0.33890621176E+02  0.44319264298E+02  0.00000000000E+00 0. -1.
</event>
<event>
 7    1  0.1290195E-011  0.5930193E+02  0.7816164E-02  0.1266605E+00
        -11   -1    0    0    0    0  0.00000000000E+00  0.00000000000E+00  0.45593999997E+02  0.45594000000E+02  0.51100000000E-03 0.  1.
         11   -1    0    0    0    0 -0.00000000000E+00 -0.00000000000E+00 -0.45593999997E+02  0.45594000000E+02  0.51100000000E-03 0. -1.
    9900012    2    1    2    0    0  0.10648069926E+02  0.13985119279E+02 -0.26603689215E+02  0.59301933541E+02  0.49999980874E+02 0.  0.
        -12    1    1    2    0    0 -0.10648069926E+02 -0.13985119279E+02  0.26603689215E+02  0.31886066459E+02  0.00000000000E+00 0.  1.
         11    1    3    3    0    0  0.12122315675E+02  0.60234267330E+01 -0.10561339152E+02  0.17168986338E+02  0.51100000000E-03 0. -1.
        -11    1    3    3    0    0 -0.12816029766E+01 -0.54097869166E+01 -0.25277157027E+02  0.25881324701E+02  0.51100000000E-03 0.  1.
         12    1    3    3    0    0 -0.19264277232E+00  0.13371479463E+02  0.92348069641E+01  0.16251622501E+02  0.00000000000E+00 0. -1.
</event>
<event>
 7    1  0.1290195E-011  0.5930191E+02  0.7816164E-02  0.1266605E+00
        -11   -1    0    0    0    0  0.00000000000E+00  0.00000000000E+00  0.45593999997E+02  0.45594000000E+02  0.51100000000E-03 0.  1.
         11   -1    0    0    0    0 -0.00000000000E+00 -0.00000000000E+00 -0.45593999997E+02  0.45594000000E+02  0.51100000000E-03 0. -1.
    9900012    2    1    2    0    0  0.12781475762E+02 -0.24407024306E+02 -0.16051601193E+02  0.59301908063E+02  0.49999934409E+02 0.  0.
        -12    1    1    2    0    0 -0.12781475762E+02  0.24407024306E+02  0.16051601193E+02  0.31886091937E+02  0.00000000000E+00 0.  1.
         11    1    3    3    0    0  0.15067782666E+02 -0.28477799065E+02 -0.44485212523E+01  0.32524028896E+02  0.51100000000E-03 0. -1.
        -11    1    3    3    0    0 -0.33926981213E+01  0.25093335449E+01  0.69476104883E+01  0.81287420392E+01  0.51100000000E-03 0.  1.
         12    1    3    3    0    0  0.11063912180E+01  0.15614412141E+01 -0.18550690429E+02  0.18649137128E+02  0.00000000000E+00 0. -1.
</event>
<event>
 7    1  0.1290195E-011  0.5930194E+02  0.7816164E-02  0.1266605E+00
        -11   -1    0    0    0    0  0.00000000000E+00  0.00000000000E+00  0.45593999997E+02  0.45594000000E+02  0.51100000000E-03 0. -1.
         11   -1    0    0    0    0 -0.00000000000E+00 -0.00000000000E+00 -0.45593999997E+02  0.45594000000E+02  0.51100000000E-03 0.  1.
    9900012    2    1    2    0    0 -0.30244780608E+02 -0.89527229637E+01  0.46714647962E+01  0.59301943708E+02  0.49999999417E+02 0.  0.
        -12    1    1    2    0    0  0.30244780608E+02  0.89527229637E+01 -0.46714647962E+01  0.31886056292E+02  0.00000000000E+00 0.  1.
         11    1    3    3    0    0  0.82165633559E+01  0.66877974772E+01  0.10734177172E+00  0.10594813401E+02  0.51100000000E-03 0. -1.
        -11    1    3    3    0    0 -0.20666642036E+02 -0.87249708182E+01  0.14965113658E+02  0.26966457608E+02  0.51100000000E-03 0.  1.
        -12    1    3    3    0    0 -0.17794701928E+02 -0.69155496227E+01 -0.10400990633E+02  0.21740672700E+02  0.00000000000E+00 0.  1.
</event>
<event>
 7    1  0.1290195E-011  0.5930182E+02  0.7816164E-02  0.1266605E+00
        -11   -1    0    0    0    0  0.00000000000E+00  0.00000000000E+00  0.45593999997E+02  0.45594000000E+02  0.51100000000E-03 0.  1.
         11   -1    0    0    0    0 -0.00000000000E+00 -0.00000000000E+00 -0.45593999997E+02  0.45594000000E+02  0.51100000000E-03 0. -1.
    9900012    2    1    2    0    0  0.28754522841E+02 -0.40713057026E+01 -0.13165487358E+02  0.59301824761E+02  0.49999782487E+02 0.  0.
        -12    1    1    2    0    0 -0.28754522841E+02  0.40713057026E+01  0.13165487358E+02  0.31886175239E+02  0.00000000000E+00 0.  1.
         11    1    3    3    0    0 -0.95007768335E+01  0.64119976737E+01 -0.13888474328E+01  0.11545881173E+02  0.51100000000E-03 0. -1.
        -11    1    3    3    0    0  0.48600283424E+01 -0.38927138718E+01 -0.12218514607E+02  0.13713686457E+02  0.51100000000E-03 0.  1.
        -12    1    3    3    0    0  0.33395271332E+02 -0.65905895044E+01  0.44187468123E+00  0.34042257132E+02  0.00000000000E+00 0.  1.
</event>
<event>
 7    1  0.1290195E-011  0.5930201E+02  0.7816164E-02  0.1266605E+00
        -11   -1    0    0    0    0  0.00000000000E+00  0.00000000000E+00  0.45593999997E+02  0.45594000000E+02  0.51100000000E-03 0.  1.
         11   -1    0    0    0    0 -0.00000000000E+00 -0.00000000000E+00 -0.45593999997E+02  0.45594000000E+02  0.51100000000E-03 0. -1.
    9900012    2    1    2    0    0 -0.62660791882E+01 -0.17300256428E+02 -0.26041387350E+02  0.59302008155E+02  0.50000116952E+02 0.  0.
        -12    1    1    2    0    0  0.62660791882E+01  0.17300256428E+02  0.26041387350E+02  0.31885991845E+02  0.00000000000E+00 0.  1.
         11    1    3    3    0    0 -0.21889070140E+01 -0.19096541356E+02 -0.19995918351E+02  0.27736365239E+02  0.51100000000E-03 0. -1.
        -11    1    3    3    0    0 -0.64269475351E+01  0.82767857819E+01 -0.16199149913E+02  0.19293089324E+02  0.51100000000E-03 0.  1.
        -12    1    3    3    0    0  0.23497753609E+01 -0.64805008540E+01  0.10153680915E+02  0.12272553593E+02  0.00000000000E+00 0.  1.
</event>
<event>
 7    1  0.1290195E-011  0.5930195E+02  0.7816164E-02  0.1266605E+00
        -11   -1    0    0    0    0  0.00000000000E+00  0.00000000000E+00  0.45593999997E+02  0.45594000000E+02  0.51100000000E-03 0.  1.
         11   -1    0    0    0    0 -0.00000000000E+00 -0.00000000000E+00 -0.45593999997E+02  0.45594000000E+02  0.51100000000E-03 0. -1.
    9900012    2    1    2    0    0  0.30491346106E+02  0.24046177282E+01 -0.90119875516E+01  0.59301948294E+02  0.50000007780E+02 0.  0.
        -12    1    1    2    0    0 -0.30491346106E+02 -0.24046177282E+01  0.90119875516E+01  0.31886051706E+02  0.00000000000E+00 0.  1.
         11    1    3    3    0    0  0.38943813825E+01 -0.10616249536E+02 -0.18008820131E+01  0.11450508149E+02  0.51100000000E-03 0. -1.
        -11    1    3    3    0    0  0.29134823194E+02 -0.44251735977E+00  0.49217202450E+01  0.29550923413E+02  0.51100000000E-03 0.  1.
        -12    1    3    3    0    0 -0.25378584703E+01  0.13463384624E+02 -0.12132825784E+02  0.18300516732E+02  0.00000000000E+00 0.  1.
</event>
<event>
 7    1  0.1290195E-011  0.5930194E+02  0.7816164E-02  0.1266605E+00
        -11   -1    0    0    0    0  0.00000000000E+00  0.00000000000E+00  0.45593999997E+02  0.45594000000E+02  0.51100000000E-03 0. -1.
         11   -1    0    0    0    0 -0.00000000000E+00 -0.00000000000E+00 -0.45593999997E+02  0.45594000000E+02  0.51100000000E-03 0.  1.
    9900012    2    1    2    0    0 -0.42378741673E+01  0.42049238254E+01  0.31322197064E+02  0.59301937359E+02  0.49999987838E+02 0.  0.
        -12    1    1    2    0    0  0.42378741673E+01 -0.42049238254E+01 -0.31322197064E+02  0.31886062641E+02  0.00000000000E+00 0.  1.
         11    1    3    3    0    0  0.10545780535E+02  0.19621084153E+01  0.80506372576E+01  0.13411790225E+02  0.51100000000E-03 0. -1.
        -11    1    3    3    0    0  0.32117467143E+01 -0.54021154870E+01 -0.72802300719E+01  0.96176878121E+01  0.51100000000E-03 0.  1.
         12    1    3    3    0    0 -0.17995401416E+02  0.76449308970E+01  0.30551789878E+02  0.36272459322E+02  0.00000000000E+00 0. -1.
</event>
<event>
 7    1  0.1290195E-011  0.5930195E+02  0.7816164E-02  0.1266605E+00
        -11   -1    0    0    0    0  0.00000000000E+00  0.00000000000E+00  0.45593999997E+02  0.45594000000E+02  0.51100000000E-03 0.  1.
         11   -1    0    0    0    0 -0.00000000000E+00 -0.00000000000E+00 -0.45593999997E+02  0.45594000000E+02  0.51100000000E-03 0. -1.
    9900012    2    1    2    0    0  0.21076898425E+02  0.11061207108E+02 -0.21216359740E+02  0.59301954925E+02  0.50000019874E+02 0.  0.
        -12    1    1    2    0    0 -0.21076898425E+02 -0.11061207108E+02  0.21216359740E+02  0.31886045075E+02  0.00000000000E+00 0.  1.
         11    1    3    3    0    0  0.98663346269E+01 -0.38779231060E+01 -0.37754539728E+01  0.11253306161E+02  0.51100000000E-03 0. -1.
        -11    1    3    3    0    0  0.13369964806E+02 -0.97095801188E+01 -0.16404415134E+02  0.23283830036E+02  0.51100000000E-03 0.  1.
         12    1    3    3    0    0 -0.21594010081E+01  0.24648710333E+02 -0.10364906337E+01  0.24764818728E+02  0.00000000000E+00 0. -1.
</event>
<event>
 7    1  0.1290195E-011  0.5930183E+02  0.7816164E-02  0.1266605E+00
        -11   -1    0    0    0    0  0.00000000000E+00  0.00000000000E+00  0.45593999997E+02  0.45594000000E+02  0.51100000000E-03 0.  1.
         11   -1    0    0    0    0 -0.00000000000E+00 -0.00000000000E+00 -0.45593999997E+02  0.45594000000E+02  0.51100000000E-03 0. -1.
    9900012    2    1    2    0    0 -0.21928037143E+01 -0.30424533614E+02  0.92880019894E+01  0.59301833490E+02  0.49999798406E+02 0.  0.
        -12    1    1    2    0    0  0.21928037143E+01  0.30424533614E+02 -0.92880019894E+01  0.31886166510E+02  0.00000000000E+00 0.  1.
         11    1    3    3    0    0 -0.61857686645E+00 -0.12950893752E+01  0.12791909119E+01  0.19225564959E+01  0.51100000000E-03 0. -1.
        -11    1    3    3    0    0 -0.29952157315E+01  0.10066583017E+02  0.14210240008E+02  0.17670266899E+02  0.51100000000E-03 0.  1.
         12    1    3    3    0    0  0.14209888836E+01 -0.39196027255E+02 -0.62014289309E+01  0.39709010096E+02  0.00000000000E+00 0. -1.
</event>
<event>
 7    1  0.1290195E-011  0.5930179E+02  0.7816164E-02  0.1266605E+00
        -11   -1    0    0    0    0  0.00000000000E+00  0.00000000000E+00  0.45593999997E+02  0.45594000000E+02  0.51100000000E-03 0.  1.
         11   -1    0    0    0    0 -0.00000000000E+00 -0.00000000000E+00 -0.45593999997E+02  0.45594000000E+02  0.51100000000E-03 0. -1.
    9900012    2    1    2    0    0 -0.29784520562E+02  0.10214280574E+02  0.50280223698E+01  0.59301792924E+02  0.49999724422E+02 0.  0.
        -12    1    1    2    0    0  0.29784520562E+02 -0.10214280574E+02 -0.50280223698E+01  0.31886207076E+02  0.00000000000E+00 0.  1.
         11    1    3    3    0    0 -0.12779563206E+02  0.17400233251E+02 -0.31530637906E+01  0.21818046761E+02  0.51100000000E-03 0. -1.
        -11    1    3    3    0    0  0.51451320098E+01 -0.85803579966E+01 -0.54950266502E+01  0.11414475235E+02  0.51100000000E-03 0.  1.
         12    1    3    3    0    0 -0.22150089365E+02  0.13944053189E+01  0.13676112811E+02  0.26069270928E+02  0.00000000000E+00 0. -1.
</event>
<event>
 7    1  0.1290195E-011  0.5930195E+02  0.7816164E-02  0.1266605E+00
        -11   -1    0    0    0    0  0.00000000000E+00  0.00000000000E+00  0.45593999997E+02  0.45594000000E+02  0.51100000000E-03 0. -1.
         11   -1    0    0    0    0 -0.00000000000E+00 -0.00000000000E+00 -0.45593999997E+02  0.45594000000E+02  0.51100000000E-03 0.  1.
    9900012    2    1    2    0    0  0.25879456345E+02  0.51239082476E+01 -0.17908640986E+02  0.59301951038E+02  0.50000012786E+02 0.  0.
        -12    1    1    2    0    0 -0.25879456345E+02 -0.51239082476E+01  0.17908640986E+02  0.31886048962E+02  0.00000000000E+00 0.  1.
         11    1    3    3    0    0  0.93552175866E+01  0.68921254598E+01 -0.35359107801E+01  0.12145952196E+02  0.51100000000E-03 0. -1.
        -11    1    3    3    0    0  0.27826465108E+02  0.88858319976E+01 -0.74186977389E+01  0.30138136092E+02  0.51100000000E-03 0.  1.
         12    1    3    3    0    0 -0.11302226350E+02 -0.10654049210E+02 -0.69540324666E+01  0.17017862750E+02  0.00000000000E+00 0. -1.
</event>
<event>
 7    1  0.1290195E-011  0.5930195E+02  0.7816164E-02  0.1266605E+00
        -11   -1    0    0    0    0  0.00000000000E+00  0.00000000000E+00  0.45593999997E+02  0.45594000000E+02  0.51100000000E-03 0. -1.
         11   -1    0    0    0    0 -0.00000000000E+00 -0.00000000000E+00 -0.45593999997E+02  0.45594000000E+02  0.51100000000E-03 0.  1.
    9900012    2    1    2    0    0 -0.28766100298E+02 -0.13135443904E+02  0.40855887579E+01  0.59301945863E+02  0.50000003347E+02 0.  0.
        -12    1    1    2    0    0  0.28766100298E+02  0.13135443904E+02 -0.40855887579E+01  0.31886054137E+02  0.00000000000E+00 0.  1.
         11    1    3    3    0    0 -0.21288909146E+02 -0.24593275388E+02  0.30573189065E+01  0.32670997017E+02  0.51100000000E-03 0. -1.
        -11    1    3    3    0    0 -0.79898626420E+01 -0.32322185861E+01 -0.58353130638E+01  0.10408459100E+02  0.51100000000E-03 0.  1.
        -12    1    3    3    0    0  0.51267148956E+00  0.14690050070E+02  0.68635829153E+01  0.16222489746E+02  0.00000000000E+00 0.  1.
</event>
<event>
 7    1  0.1290195E-011  0.5930195E+02  0.7816164E-02  0.1266605E+00
        -11   -1    0    0    0    0  0.00000000000E+00  0.00000000000E+00  0.45593999997E+02  0.45594000000E+02  0.51100000000E-03 0.  1.
         11   -1    0    0    0    0 -0.00000000000E+00 -0.00000000000E+00 -0.45593999997E+02  0.45594000000E+02  0.51100000000E-03 0. -1.
    9900012    2    1    2    0    0  0.19221317154E+02 -0.25308542720E+02  0.25958681154E+01  0.59301954478E+02  0.50000019059E+02 0.  0.
        -12    1    1    2    0    0 -0.19221317154E+02  0.25308542720E+02 -0.25958681154E+01  0.31886045522E+02  0.00000000000E+00 0.  1.
         11    1    3    3    0    0  0.12122315896E+02 -0.17947137774E+02  0.14211792385E+02  0.25904156810E+02  0.51100000000E-03 0. -1.
        -11    1    3    3    0    0 -0.15072611388E+01 -0.17010278872E+02 -0.18141400984E+01  0.17173017440E+02  0.51100000000E-03 0.  1.
         12    1    3    3    0    0  0.86062623974E+01  0.96488739265E+01 -0.98017841713E+01  0.16224780228E+02  0.00000000000E+00 0. -1.
</event>
<event>
 7    1  0.1290195E-011  0.5930192E+02  0.7816164E-02  0.1266605E+00
        -11   -1    0    0    0    0  0.00000000000E+00  0.00000000000E+00  0.45593999997E+02  0.45594000000E+02  0.51100000000E-03 0. -1.
         11   -1    0    0    0    0 -0.00000000000E+00 -0.00000000000E+00 -0.45593999997E+02  0.45594000000E+02  0.51100000000E-03 0.  1.
    9900012    2    1    2    0    0 -0.25181264047E+02  0.15702640429E+02  0.11664185832E+02  0.59301918294E+02  0.49999953067E+02 0.  0.
        -12    1    1    2    0    0  0.25181264047E+02 -0.15702640429E+02 -0.11664185832E+02  0.31886081706E+02  0.00000000000E+00 0.  1.
         11    1    3    3    0    0  0.81325169570E+00  0.10251741878E+02  0.15679731489E+02  0.18751361809E+02  0.51100000000E-03 0. -1.
        -11    1    3    3    0    0 -0.32463637215E+01  0.11286381339E+02 -0.10956802621E+02  0.16061531841E+02  0.51100000000E-03 0.  1.
         12    1    3    3    0    0 -0.22748152021E+02 -0.58354827875E+01  0.69412569637E+01  0.24489024643E+02  0.00000000000E+00 0. -1.
</event>
<event>
 7    1  0.1290195E-011  0.5930195E+02  0.7816164E-02  0.1266605E+00
        -11   -1    0    0    0    0  0.00000000000E+00  0.00000000000E+00  0.45593999997E+02  0.45594000000E+02  0.51100000000E-03 0. -1.
         11   -1    0    0    0    0 -0.00000000000E+00 -0.00000000000E+00 -0.45593999997E+02  0.45594000000E+02  0.51100000000E-03 0.  1.
    9900012    2    1    2    0    0  0.29091445314E+02  0.89703287016E+01  0.94837477135E+01  0.59301945710E+02  0.50000003068E+02 0.  0.
        -12    1    1    2    0    0 -0.29091445314E+02 -0.89703287016E+01 -0.94837477135E+01  0.31886054290E+02  0.00000000000E+00 0.  1.
         11    1    3    3    0    0  0.30739774632E+02  0.13385502202E+02  0.35927328732E+01  0.33719625493E+02  0.51100000000E-03 0. -1.
        -11    1    3    3    0    0 -0.27836316768E+01 -0.61604376488E+01 -0.86020246604E+01  0.10940494772E+02  0.51100000000E-03 0.  1.
         12    1    3    3    0    0  0.11353023591E+01  0.17452641486E+01  0.14493039501E+02  0.14641825445E+02  0.00000000000E+00 0. -1.
</event>
<event>
 7    1  0.1290195E-011  0.5930201E+02  0.7816164E-02  0.1266605E+00
        -11   -1    0    0    0    0  0.00000000000E+00  0.00000000000E+00  0.45593999997E+02  0.45594000000E+02  0.51100000000E-03 0. -1.
         11   -1    0    0    0    0 -0.00000000000E+00 -0.00000000000E+00 -0.45593999997E+02  0.45594000000E+02  0.51100000000E-03 0.  1.
    9900012    2    1    2    0    0 -0.10460840246E+02  0.27937416680E+02 -0.11260015385E+02  0.59302009724E+02  0.50000119814E+02 0.  0.
        -12    1    1    2    0    0  0.10460840246E+02 -0.27937416680E+02  0.11260015385E+02  0.31885990276E+02  0.00000000000E+00 0.  1.
         11    1    3    3    0    0 -0.10678632540E+02 -0.55630023227E+00 -0.21071349887E+02  0.23629313346E+02  0.51100000000E-03 0. -1.
        -11    1    3    3    0    0  0.51164190160E+01  0.12726579304E+01 -0.19448151630E+01  0.56195825498E+01  0.51100000000E-03 0.  1.
         12    1    3    3    0    0 -0.48986267216E+01  0.27221058982E+02  0.11756149665E+02  0.30053113829E+02  0.00000000000E+00 0. -1.
</event>
<event>
 7    1  0.1290195E-011  0.5930192E+02  0.7816164E-02  0.1266605E+00
        -11   -1    0    0    0    0  0.00000000000E+00  0.00000000000E+00  0.45593999997E+02  0.45594000000E+02  0.51100000000E-03 0.  1.
         11   -1    0    0    0    0 -0.00000000000E+00 -0.00000000000E+00 -0.45593999997E+02  0.45594000000E+02  0.51100000000E-03 0. -1.
    9900012    2    1    2    0    0 -0.21514112273E+02 -0.61840613086E+01 -0.22707314964E+02  0.59301924763E+02  0.49999964866E+02 0.  0.
        -12    1    1    2    0    0  0.21514112273E+02  0.61840613086E+01  0.22707314964E+02  0.31886075237E+02  0.00000000000E+00 0.  1.
         11    1    3    3    0    0 -0.94232042128E+01 -0.60681061785E+01 -0.55079713910E+00  0.11221500255E+02  0.51100000000E-03 0. -1.
        -11    1    3    3    0    0 -0.22396249951E+02 -0.50358682103E+01  0.22216574352E+00  0.22956509717E+02  0.51100000000E-03 0.  1.
         12    1    3    3    0    0  0.10305341891E+02  0.49199130803E+01 -0.22378683568E+02  0.25123914791E+02  0.00000000000E+00 0. -1.
</event>
<event>
 7    1  0.1290195E-011  0.5930187E+02  0.7816164E-02  0.1266605E+00
        -11   -1    0    0    0    0  0.00000000000E+00  0.00000000000E+00  0.45593999997E+02  0.45594000000E+02  0.51100000000E-03 0. -1.
         11   -1    0    0    0    0 -0.00000000000E+00 -0.00000000000E+00 -0.45593999997E+02  0.45594000000E+02  0.51100000000E-03 0.  1.
    9900012    2    1    2    0    0 -0.24718383106E+02  0.19986998502E+02  0.24993185409E+01  0.59301871893E+02  0.49999868443E+02 0.  0.
        -12    1    1    2    0    0  0.24718383106E+02 -0.19986998502E+02 -0.24993185409E+01  0.31886128107E+02  0.00000000000E+00 0.  1.
         11    1    3    3    0    0 -0.12802112773E+02  0.57773673511E+01 -0.40805093347E+01  0.14626093862E+02  0.51100000000E-03 0. -1.
        -11    1    3    3    0    0 -0.51779647629E+01 -0.99462263600E+01 -0.96584742476E+01  0.14799488604E+02  0.51100000000E-03 0.  1.
         12    1    3    3    0    0 -0.67383055702E+01  0.24155857511E+02  0.16238302123E+02  0.29876289427E+02  0.00000000000E+00 0. -1.
</event>
<event>
 7    1  0.1290195E-011  0.5930196E+02  0.7816164E-02  0.1266605E+00
        -11   -1    0    0    0    0  0.00000000000E+00  0.00000000000E+00  0.45593999997E+02  0.45594000000E+02  0.51100000000E-03 0.  1.
         11   -1    0    0    0    0 -0.00000000000E+00 -0.00000000000E+00 -0.45593999997E+02  0.45594000000E+02  0.51100000000E-03 0. -1.
    9900012    2    1    2    0    0  0.22132040808E+02  0.12514886312E+02 -0.19242393827E+02  0.59301963402E+02  0.50000035333E+02 0.  0.
        -12    1    1    2    0    0 -0.22132040808E+02 -0.12514886312E+02  0.19242393827E+02  0.31886036598E+02  0.00000000000E+00 0.  1.
         11    1    3    3    0    0  0.10403891917E+02  0.18976049070E+02  0.65090116914E+01  0.22598642411E+02  0.51100000000E-03 0. -1.
        -11    1    3    3    0    0  0.40115121184E+01  0.21702912097E+01  0.31674243378E+01  0.55529245094E+01  0.51100000000E-03 0.  1.
         12    1    3    3    0    0  0.77166367732E+01 -0.86314539679E+01 -0.28918829857E+02  0.31150396482E+02  0.00000000000E+00 0. -1.
</event>
<event>
 7    1  0.1290195E-011  0.5930195E+02  0.7816164E-02  0.1266605E+00
        -11   -1    0    0    0    0  0.00000000000E+00  0.00000000000E+00  0.45593999997E+02  0.45594000000E+02  0.51100000000E-03 0.  1.
         11   -1    0    0    0    0 -0.00000000000E+00 -0.00000000000E+00 -0.45593999997E+02  0.45594000000E+02  0.51100000000E-03 0. -1.
    9900012    2    1    2    0    0  0.24711909324E+01 -0.16110272573E+02 -0.27405701445E+02  0.59301950720E+02  0.50000012206E+02 0.  0.
        -12    1    1    2    0    0 -0.24711909324E+01  0.16110272573E+02  0.27405701445E+02  0.31886049280E+02  0.00000000000E+00 0.  1.
         11    1    3    3    0    0  0.16164006040E+01 -0.16910947658E+02 -0.28173412934E+02  0.32898846457E+02  0.51100000000E-03 0. -1.
        -11    1    3    3    0    0 -0.27189078152E+01 -0.33071763824E+01 -0.11882839600E+02  0.12630587973E+02  0.51100000000E-03 0.  1.
        -12    1    3    3    0    0  0.35736981435E+01  0.41078514674E+01  0.12650551089E+02  0.13772516290E+02  0.00000000000E+00 0.  1.
</event>
<event>
 7    1  0.1290195E-011  0.5930195E+02  0.7816164E-02  0.1266605E+00
        -11   -1    0    0    0    0  0.00000000000E+00  0.00000000000E+00  0.45593999997E+02  0.45594000000E+02  0.51100000000E-03 0. -1.
         11   -1    0    0    0    0 -0.00000000000E+00 -0.00000000000E+00 -0.45593999997E+02  0.45594000000E+02  0.51100000000E-03 0.  1.
    9900012    2    1    2    0    0  0.23179639303E+02 -0.21394123274E+02  0.46600635347E+01  0.59301946920E+02  0.50000005275E+02 0.  0.
        -12    1    1    2    0    0 -0.23179639303E+02  0.21394123274E+02 -0.46600635347E+01  0.31886053080E+02  0.00000000000E+00 0.  1.
         11    1    3    3    0    0  0.13689172903E+02 -0.22214245543E+01 -0.75820329868E+01  0.15805549858E+02  0.51100000000E-03 0.  1.
        -11    1    3    3    0    0  0.11742958243E+02  0.80152763273E+01  0.20075240028E+01  0.14358686423E+02  0.51100000000E-03 0. -1.
         12    1    3    3    0    0 -0.22524918439E+01 -0.27187975047E+02  0.10234572519E+02  0.29137710640E+02  0.00000000000E+00 0. -1.
</event>
<event>
 7    1  0.1290195E-011  0.5930198E+02  0.7816164E-02  0.1266605E+00
        -11   -1    0    0    0    0  0.00000000000E+00  0.00000000000E+00  0.45593999997E+02  0.45594000000E+02  0.51100000000E-03 0.  1.
         11   -1    0    0    0    0 -0.00000000000E+00 -0.00000000000E+00 -0.45593999997E+02  0.45594000000E+02  0.51100000000E-03 0. -1.
    9900012    2    1    2    0    0  0.28815327649E+02 -0.39734904880E+01 -0.13061650767E+02  0.59301977122E+02  0.50000060357E+02 0.  0.
        -12    1    1    2    0    0 -0.28815327649E+02  0.39734904880E+01  0.13061650767E+02  0.31886022878E+02  0.00000000000E+00 0.  1.
         11    1    3    3    0    0  0.14823886722E+02 -0.54449392735E+01 -0.16712141684E+02  0.22993274259E+02  0.51100000000E-03 0. -1.
        -11    1    3    3    0    0 -0.28282285721E+01  0.14400887067E+02 -0.53127535058E+00  0.14685594265E+02  0.51100000000E-03 0.  1.
         12    1    3    3    0    0  0.16819669500E+02 -0.12929438281E+02  0.41817662674E+01  0.21623108598E+02  0.00000000000E+00 0. -1.
</event>
<event>
 7    1  0.1290195E-011  0.5930197E+02  0.7816164E-02  0.1266605E+00
        -11   -1    0    0    0    0  0.00000000000E+00  0.00000000000E+00  0.45593999997E+02  0.45594000000E+02  0.51100000000E-03 0.  1.
         11   -1    0    0    0    0 -0.00000000000E+00 -0.00000000000E+00 -0.45593999997E+02  0.45594000000E+02  0.51100000000E-03 0. -1.
    9900012    2    1    2    0    0  0.97254042324E+01  0.29842123357E+02  0.56198834871E+01  0.59301970075E+02  0.50000047505E+02 0.  0.
        -12    1    1    2    0    0 -0.97254042324E+01 -0.29842123357E+02 -0.56198834871E+01  0.31886029925E+02  0.00000000000E+00 0.  1.
         11    1    3    3    0    0  0.21299100049E+01 -0.10002182484E+02  0.43103001111E+01  0.11097696085E+02  0.51100000000E-03 0. -1.
        -11    1    3    3    0    0  0.46335884832E+01  0.15145663223E+02  0.13213963619E+02  0.20626926370E+02  0.51100000000E-03 0.  1.
        -12    1    3    3    0    0  0.29619057443E+01  0.24698642619E+02 -0.11904380243E+02  0.27577347621E+02  0.00000000000E+00 0.  1.
</event>
<event>
 7    1  0.1290195E-011  0.5930186E+02  0.7816164E-02  0.1266605E+00
        -11   -1    0    0    0    0  0.00000000000E+00  0.00000000000E+00  0.45593999997E+02  0.45594000000E+02  0.51100000000E-03 0. -1.
         11   -1    0    0    0    0 -0.00000000000E+00 -0.00000000000E+00 -0.45593999997E+02  0.45594000000E+02  0.51100000000E-03 0.  1.
    9900012    2    1    2    0    0 -0.26626970568E+02 -0.16710824166E+02 -0.53365349710E+01  0.59301861767E+02  0.49999849976E+02 0.  0.
        -12    1    1    2    0    0  0.26626970568E+02  0.16710824166E+02  0.53365349710E+01  0.31886138233E+02  0.00000000000E+00 0.  1.
         11    1    3    3    0    0  0.43293483159E+01 -0.17521494223E+02 -0.14369768529E+01  0.18105549408E+02  0.51100000000E-03 0. -1.
        -11    1    3    3    0    0  0.36036794590E+01  0.23359518676E+01 -0.49924427859E+01  0.65854128194E+01  0.51100000000E-03 0.  1.
         12    1    3    3    0    0 -0.34559998342E+02 -0.15252818103E+01  0.10928846678E+01  0.34610899539E+02  0.00000000000E+00 0. -1.
</event>
<event>
 7    1  0.1290195E-011  0.5930192E+02  0.7816164E-02  0.1266605E+00
        -11   -1    0    0    0    0  0.00000000000E+00  0.00000000000E+00  0.45593999997E+02  0.45594000000E+02  0.51100000000E-03 0.  1.
         11   -1    0    0    0    0 -0.00000000000E+00 -0.00000000000E+00 -0.45593999997E+02  0.45594000000E+02  0.51100000000E-03 0. -1.
    9900012    2    1    2    0    0 -0.64144202758E+01 -0.31075661840E+02 -0.31432921416E+01  0.59301924171E+02  0.49999963786E+02 0.  0.
        -12    1    1    2    0    0  0.64144202758E+01  0.31075661840E+02  0.31432921416E+01  0.31886075829E+02  0.00000000000E+00 0.  1.
         11    1    3    3    0    0  0.33885555329E+01  0.10074079621E+01 -0.20392011662E+01  0.40811176237E+01  0.51100000000E-03 0. -1.
        -11    1    3    3    0    0  0.19518115887E+01 -0.67027260427E+01 -0.20187563679E+02  0.21360567231E+02  0.51100000000E-03 0.  1.
        -12    1    3    3    0    0 -0.11754787397E+02 -0.25380343760E+02  0.19083472704E+02  0.33860239316E+02  0.00000000000E+00 0.  1.
</event>
<event>
 7    1  0.1290195E-011  0.5930193E+02  0.7816164E-02  0.1266605E+00
        -11   -1    0    0    0    0  0.00000000000E+00  0.00000000000E+00  0.45593999997E+02  0.45594000000E+02  0.51100000000E-03 0.  1.
         11   -1    0    0    0    0 -0.00000000000E+00 -0.00000000000E+00 -0.45593999997E+02  0.45594000000E+02  0.51100000000E-03 0. -1.
    9900012    2    1    2    0    0 -0.62251761845E+01  0.31160125761E+02 -0.26486650156E+01  0.59301926515E+02  0.49999968060E+02 0.  0.
        -12    1    1    2    0    0  0.62251761845E+01 -0.31160125761E+02  0.26486650156E+01  0.31886073485E+02  0.00000000000E+00 0.  1.
         11    1    3    3    0    0  0.37739311168E+01 -0.83414117742E+01 -0.44559278177E+01  0.10182190307E+02  0.51100000000E-03 0. -1.
        -11    1    3    3    0    0  0.41255373357E+01  0.20521015264E+02  0.11109792020E+02  0.23697248886E+02  0.51100000000E-03 0.  1.
         12    1    3    3    0    0 -0.14124644637E+02  0.18980522271E+02 -0.93025292178E+01  0.25422487322E+02  0.00000000000E+00 0. -1.
</event>
<event>
 7    1  0.1290195E-011  0.5930194E+02  0.7816164E-02  0.1266605E+00
        -11   -1    0    0    0    0  0.00000000000E+00  0.00000000000E+00  0.45593999997E+02  0.45594000000E+02  0.51100000000E-03 0.  1.
         11   -1    0    0    0    0 -0.00000000000E+00 -0.00000000000E+00 -0.45593999997E+02  0.45594000000E+02  0.51100000000E-03 0. -1.
    9900012    2    1    2    0    0  0.85411605482E+01  0.15981602175E+02 -0.26236568046E+02  0.59301944515E+02  0.50000000888E+02 0.  0.
        -12    1    1    2    0    0 -0.85411605482E+01 -0.15981602175E+02  0.26236568046E+02  0.31886055485E+02  0.00000000000E+00 0.  1.
         11    1    3    3    0    0  0.10445357591E+02  0.11280841220E+02  0.30018967054E+01  0.15664426511E+02  0.51100000000E-03 0.  1.
        -11    1    3    3    0    0  0.80130875300E+01  0.12028248205E+02 -0.27657188825E+02  0.31205903617E+02  0.51100000000E-03 0. -1.
         12    1    3    3    0    0 -0.99172845726E+01 -0.73274872497E+01 -0.15812759269E+01  0.12431614386E+02  0.00000000000E+00 0. -1.
</event>
<event>
 7    1  0.1290195E-011  0.5930210E+02  0.7816164E-02  0.1266604E+00
        -11   -1    0    0    0    0  0.00000000000E+00  0.00000000000E+00  0.45593999997E+02  0.45594000000E+02  0.51100000000E-03 0. -1.
         11   -1    0    0    0    0 -0.00000000000E+00 -0.00000000000E+00 -0.45593999997E+02  0.45594000000E+02  0.51100000000E-03 0.  1.
    9900012    2    1    2    0    0 -0.14606626354E+02  0.23683381370E+02  0.15570958424E+02  0.59302096644E+02  0.50000278335E+02 0.  0.
        -12    1    1    2    0    0  0.14606626354E+02 -0.23683381370E+02 -0.15570958424E+02  0.31885903356E+02  0.00000000000E+00 0.  1.
         11    1    3    3    0    0 -0.12502126553E+02  0.23827523206E+02  0.21534121426E+02  0.34464074285E+02  0.51100000000E-03 0. -1.
        -11    1    3    3    0    0 -0.22491523191E+01  0.92838089243E+01 -0.10651736158E+02  0.14307595107E+02  0.51100000000E-03 0.  1.
        -12    1    3    3    0    0  0.14465251782E+00 -0.94279507602E+01  0.46885731561E+01  0.10530427253E+02  0.00000000000E+00 0.  1.
</event>
<event>
 7    1  0.1290195E-011  0.5930192E+02  0.7816164E-02  0.1266605E+00
        -11   -1    0    0    0    0  0.00000000000E+00  0.00000000000E+00  0.45593999997E+02  0.45594000000E+02  0.51100000000E-03 0.  1.
         11   -1    0    0    0    0 -0.00000000000E+00 -0.00000000000E+00 -0.45593999997E+02  0.45594000000E+02  0.51100000000E-03 0. -1.
    9900012    2    1    2    0    0 -0.14461829016E+02  0.18965569655E+02 -0.21163292821E+02  0.59301916925E+02  0.49999950572E+02 0.  0.
        -12    1    1    2    0    0  0.14461829016E+02 -0.18965569655E+02  0.21163292821E+02  0.31886083075E+02  0.00000000000E+00 0.  1.
         11    1    3    3    0    0  0.71708441276E+01 -0.26618332005E+01 -0.14443551363E+02  0.16343883801E+02  0.51100000000E-03 0. -1.
        -11    1    3    3    0    0 -0.19185099800E+02  0.88287839102E+01  0.86378359391E+01  0.22817267357E+02  0.51100000000E-03 0.  1.
         12    1    3    3    0    0 -0.24475733441E+01  0.12798618945E+02 -0.15357577397E+02  0.20140765767E+02  0.00000000000E+00 0. -1.
</event>
<event>
 7    1  0.1290195E-011  0.5930196E+02  0.7816164E-02  0.1266605E+00
        -11   -1    0    0    0    0  0.00000000000E+00  0.00000000000E+00  0.45593999997E+02  0.45594000000E+02  0.51100000000E-03 0.  1.
         11   -1    0    0    0    0 -0.00000000000E+00 -0.00000000000E+00 -0.45593999997E+02  0.45594000000E+02  0.51100000000E-03 0. -1.
    9900012    2    1    2    0    0  0.22844074185E+02  0.71162460153E+01 -0.21076695132E+02  0.59301956652E+02  0.50000023023E+02 0.  0.
        -12    1    1    2    0    0 -0.22844074185E+02 -0.71162460153E+01  0.21076695132E+02  0.31886043348E+02  0.00000000000E+00 0.  1.
         11    1    3    3    0    0  0.11224788911E+02  0.41199699054E+01 -0.12410239608E+02  0.17233226207E+02  0.51100000000E-03 0. -1.
        -11    1    3    3    0    0  0.16415840076E+02 -0.14887061573E+02 -0.14890737895E+01  0.22210847545E+02  0.51100000000E-03 0.  1.
         12    1    3    3    0    0 -0.47965548019E+01  0.17883337683E+02 -0.71773817352E+01  0.19857882899E+02  0.00000000000E+00 0. -1.
</event>
<event>
 7    1  0.1290195E-011  0.5930195E+02  0.7816164E-02  0.1266605E+00
        -11   -1    0    0    0    0  0.00000000000E+00  0.00000000000E+00  0.45593999997E+02  0.45594000000E+02  0.51100000000E-03 0.  1.
         11   -1    0    0    0    0 -0.00000000000E+00 -0.00000000000E+00 -0.45593999997E+02  0.45594000000E+02  0.51100000000E-03 0. -1.
    9900012    2    1    2    0    0 -0.12316817523E+02 -0.19460750144E+02 -0.22052107018E+02  0.59301949539E+02  0.50000010052E+02 0.  0.
        -12    1    1    2    0    0  0.12316817523E+02  0.19460750144E+02  0.22052107018E+02  0.31886050461E+02  0.00000000000E+00 0.  1.
         11    1    3    3    0    0 -0.63606380567E+01  0.52199673673E+01 -0.20424710683E+02  0.22019867905E+02  0.51100000000E-03 0. -1.
        -11    1    3    3    0    0  0.20782959962E+01  0.47759120370E+01  0.35640340027E+01  0.63111796573E+01  0.51100000000E-03 0.  1.
         12    1    3    3    0    0 -0.80344754623E+01 -0.29456629548E+02 -0.51914303374E+01  0.30970901977E+02  0.00000000000E+00 0. -1.
</event>
<event>
 7    1  0.1290195E-011  0.5930192E+02  0.7816164E-02  0.1266605E+00
        -11   -1    0    0    0    0  0.00000000000E+00  0.00000000000E+00  0.45593999997E+02  0.45594000000E+02  0.51100000000E-03 0. -1.
         11   -1    0    0    0    0 -0.00000000000E+00 -0.00000000000E+00 -0.45593999997E+02  0.45594000000E+02  0.51100000000E-03 0.  1.
    9900012    2    1    2    0    0 -0.85423482727E+01 -0.29734492197E+02 -0.77207787067E+01  0.59301918960E+02  0.49999954283E+02 0.  0.
        -12    1    1    2    0    0  0.85423482727E+01  0.29734492197E+02  0.77207787067E+01  0.31886081040E+02  0.00000000000E+00 0.  1.
         11    1    3    3    0    0 -0.53293387859E+01 -0.60054754835E+00 -0.15748686896E+01  0.55895188437E+01  0.51100000000E-03 0. -1.
        -11    1    3    3    0    0 -0.19500672916E+02 -0.60983769301E+01 -0.13584849343E+02  0.24535985354E+02  0.51100000000E-03 0.  1.
         12    1    3    3    0    0  0.16287663429E+02 -0.23035567719E+02  0.74389393260E+01  0.29176414763E+02  0.00000000000E+00 0. -1.
</event>
<event>
 7    1  0.1290195E-011  0.5930204E+02  0.7816164E-02  0.1266604E+00
        -11   -1    0    0    0    0  0.00000000000E+00  0.00000000000E+00  0.45593999997E+02  0.45594000000E+02  0.51100000000E-03 0.  1.
         11   -1    0    0    0    0 -0.00000000000E+00 -0.00000000000E+00 -0.45593999997E+02  0.45594000000E+02  0.51100000000E-03 0. -1.
    9900012    2    1    2    0    0  0.23239216694E+02  0.92708335388E+01  0.19766260609E+02  0.59302037485E+02  0.50000170443E+02 0.  0.
        -12    1    1    2    0    0 -0.23239216694E+02 -0.92708335388E+01 -0.19766260609E+02  0.31885962515E+02  0.00000000000E+00 0.  1.
         11    1    3    3    0    0 -0.32314042818E+01 -0.74014583553E+01  0.43885416571E+01  0.91914556820E+01  0.51100000000E-03 0. -1.
        -11    1    3    3    0    0  0.21828077909E+01 -0.87335013500E+01  0.11712642143E+02  0.14772429790E+02  0.51100000000E-03 0.  1.
         12    1    3    3    0    0  0.24287813185E+02  0.25405793244E+02  0.36650768090E+01  0.35338152013E+02  0.00000000000E+00 0. -1.
</event>
<event>
 7    1  0.1979215E-011  0.5930192E+02  0.7816164E-02  0.1266605E+00
        -11   -1    0    0    0    0  0.00000000000E+00  0.00000000000E+00  0.45593999997E+02  0.45594000000E+02  0.51100000000E-03 0. -1.
         11   -1    0    0    0    0 -0.00000000000E+00 -0.00000000000E+00 -0.45593999997E+02  0.45594000000E+02  0.51100000000E-03 0.  1.
    9900012    2    1    2    0    0  0.80934904593E+01  0.16311681341E+01  0.30798645535E+02  0.59301923664E+02  0.49999962861E+02 0.  0.
        -12    1    1    2    0    0 -0.80934904593E+01 -0.16311681341E+01 -0.30798645535E+02  0.31886076336E+02  0.00000000000E+00 0.  1.
         11    1    3    3    0    0  0.50229143757E+01  0.15653044148E+02  0.68344740997E+01  0.17803300155E+02  0.51100000000E-03 0. -1.
        -11    1    3    3    0    0  0.46770044863E+01 -0.36800880803E+01 -0.67802919004E+01  0.90216283319E+01  0.51100000000E-03 0.  1.
         12    1    3    3    0    0 -0.16064284028E+01 -0.10341787934E+02  0.30744463336E+02  0.32476995177E+02  0.00000000000E+00 0. -1.
</event>
<event>
 7    1  0.1290195E-011  0.5930195E+02  0.7816164E-02  0.1266605E+00
        -11   -1    0    0    0    0  0.00000000000E+00  0.00000000000E+00  0.45593999997E+02  0.45594000000E+02  0.51100000000E-03 0.  1.
         11   -1    0    0    0    0 -0.00000000000E+00 -0.00000000000E+00 -0.45593999997E+02  0.45594000000E+02  0.51100000000E-03 0. -1.
    9900012    2    1    2    0    0 -0.25832424507E+02  0.89432938982E+01 -0.16414117965E+02  0.59301953989E+02  0.50000018167E+02 0.  0.
        -12    1    1    2    0    0  0.25832424507E+02 -0.89432938982E+01  0.16414117965E+02  0.31886046011E+02  0.00000000000E+00 0.  1.
         11    1    3    3    0    0 -0.12818936927E+02 -0.54504717079E+00 -0.67731063992E+01  0.14508521320E+02  0.51100000000E-03 0. -1.
        -11    1    3    3    0    0 -0.23596173178E+02  0.11099579243E+02 -0.17594876189E+02  0.31457268101E+02  0.51100000000E-03 0.  1.
        -12    1    3    3    0    0  0.10582685598E+02 -0.16112381745E+01  0.79538646233E+01  0.13336164567E+02  0.00000000000E+00 0.  1.
</event>
<event>
 7    1  0.1290195E-011  0.5930195E+02  0.7816164E-02  0.1266605E+00
        -11   -1    0    0    0    0  0.00000000000E+00  0.00000000000E+00  0.45593999997E+02  0.45594000000E+02  0.51100000000E-03 0.  1.
         11   -1    0    0    0    0 -0.00000000000E+00 -0.00000000000E+00 -0.45593999997E+02  0.45594000000E+02  0.51100000000E-03 0. -1.
    9900012    2    1    2    0    0 -0.17170026422E+01  0.75659032895E+01 -0.30927811073E+02  0.59301945236E+02  0.50000002203E+02 0.  0.
        -12    1    1    2    0    0  0.17170026422E+01 -0.75659032895E+01  0.30927811073E+02  0.31886054764E+02  0.00000000000E+00 0.  1.
         11    1    3    3    0    0  0.34561937641E+01  0.20783685639E+01 -0.33050318215E+01  0.52142235111E+01  0.51100000000E-03 0. -1.
        -11    1    3    3    0    0 -0.16855821204E+01 -0.14401832587E+02  0.53228317228E+01  0.15446245718E+02  0.51100000000E-03 0.  1.
         12    1    3    3    0    0 -0.34876142859E+01  0.19889367313E+02 -0.32945610974E+02  0.38641476007E+02  0.00000000000E+00 0. -1.
</event>
<event>
 7    1  0.1290195E-011  0.5930196E+02  0.7816164E-02  0.1266605E+00
        -11   -1    0    0    0    0  0.00000000000E+00  0.00000000000E+00  0.45593999997E+02  0.45594000000E+02  0.51100000000E-03 0.  1.
         11   -1    0    0    0    0 -0.00000000000E+00 -0.00000000000E+00 -0.45593999997E+02  0.45594000000E+02  0.51100000000E-03 0. -1.
    9900012    2    1    2    0    0 -0.82077038017E+01  0.12534237293E+01 -0.30786064736E+02  0.59301964582E+02  0.50000037486E+02 0.  0.
        -12    1    1    2    0    0  0.82077038017E+01 -0.12534237293E+01  0.30786064736E+02  0.31886035418E+02  0.00000000000E+00 0.  1.
         11    1    3    3    0    0  0.90809672309E+01 -0.53157321402E+01 -0.90330549970E+01  0.13867842546E+02  0.51100000000E-03 0. -1.
        -11    1    3    3    0    0 -0.88554260297E+01  0.10026023894E+02  0.71221426051E+01  0.15154690391E+02  0.51100000000E-03 0.  1.
         12    1    3    3    0    0 -0.84332450030E+01 -0.34568680250E+01 -0.28875152344E+02  0.30279431645E+02  0.00000000000E+00 0. -1.
</event>
<event>
 7    1  0.1290195E-011  0.5930188E+02  0.7816164E-02  0.1266605E+00
        -11   -1    0    0    0    0  0.00000000000E+00  0.00000000000E+00  0.45593999997E+02  0.45594000000E+02  0.51100000000E-03 0.  1.
         11   -1    0    0    0    0 -0.00000000000E+00 -0.00000000000E+00 -0.45593999997E+02  0.45594000000E+02  0.51100000000E-03 0. -1.
    9900012    2    1    2    0    0  0.16276923663E+02  0.83204185153E+01 -0.26125791472E+02  0.59301880947E+02  0.49999884956E+02 0.  0.
        -12    1    1    2    0    0 -0.16276923663E+02 -0.83204185153E+01  0.26125791472E+02  0.31886119053E+02  0.00000000000E+00 0.  1.
         11    1    3    3    0    0  0.28836219189E+01 -0.12546212782E+01 -0.56532643128E+00  0.31951438400E+01  0.51100000000E-03 0. -1.
        -11    1    3    3    0    0  0.12931143775E+02 -0.18341292170E+01  0.11453657793E+02  0.17371378368E+02  0.51100000000E-03 0.  1.
         12    1    3    3    0    0  0.46215796900E+00  0.11409169011E+02 -0.37014122834E+02  0.38735358739E+02  0.00000000000E+00 0. -1.
</event>
<event>
 7    1  0.1290195E-011  0.5930193E+02  0.7816164E-02  0.1266605E+00
        -11   -1    0    0    0    0  0.00000000000E+00  0.00000000000E+00  0.45593999997E+02  0.45594000000E+02  0.51100000000E-03 0.  1.
         11   -1    0    0    0    0 -0.00000000000E+00 -0.00000000000E+00 -0.45593999997E+02  0.45594000000E+02  0.51100000000E-03 0. -1.
    9900012    2    1    2    0    0 -0.24209009406E+02  0.17131166714E+02  0.11711902705E+02  0.59301926639E+02  0.49999968288E+02 0.  0.
        -12    1    1    2    0    0  0.24209009406E+02 -0.17131166714E+02 -0.11711902705E+02  0.31886073361E+02  0.00000000000E+00 0.  1.
         11    1    3    3    0    0 -0.99753375104E+01  0.14967978989E+02  0.12795565418E+02  0.22074289299E+02  0.51100000000E-03 0. -1.
        -11    1    3    3    0    0 -0.95185074647E+01 -0.12890913329E+02  0.91221786873E+01  0.18438865884E+02  0.51100000000E-03 0.  1.
         12    1    3    3    0    0 -0.47151644307E+01  0.15054101054E+02 -0.10205841400E+02  0.18788771456E+02  0.00000000000E+00 0. -1.
</event>
<event>
 7    1  0.1290195E-011  0.5930215E+02  0.7816164E-02  0.1266604E+00
        -11   -1    0    0    0    0  0.00000000000E+00  0.00000000000E+00  0.45593999997E+02  0.45594000000E+02  0.51100000000E-03 0. -1.
         11   -1    0    0    0    0 -0.00000000000E+00 -0.00000000000E+00 -0.45593999997E+02  0.45594000000E+02  0.51100000000E-03 0.  1.
    9900012    2    1    2    0    0  0.25153330151E+02  0.83004165147E+00  0.19578782268E+02  0.59302145739E+02  0.50000367872E+02 0.  0.
        -12    1    1    2    0    0 -0.25153330151E+02 -0.83004165147E+00 -0.19578782268E+02  0.31885854261E+02  0.00000000000E+00 0.  1.
         11    1    3    3    0    0  0.83969545573E+01  0.10282082473E+02  0.30372020011E+02  0.33146487983E+02  0.51100000000E-03 0. -1.
        -11    1    3    3    0    0  0.45738973219E+01  0.70933628855E+00 -0.90898875029E+01  0.10200477918E+02  0.51100000000E-03 0.  1.
        -12    1    3    3    0    0  0.12182478272E+02 -0.10161377110E+02 -0.17033502398E+01  0.15955179838E+02  0.00000000000E+00 0.  1.
</event>
<event>
 7    1  0.1290195E-011  0.5930195E+02  0.7816164E-02  0.1266605E+00
        -11   -1    0    0    0    0  0.00000000000E+00  0.00000000000E+00  0.45593999997E+02  0.45594000000E+02  0.51100000000E-03 0. -1.
         11   -1    0    0    0    0 -0.00000000000E+00 -0.00000000000E+00 -0.45593999997E+02  0.45594000000E+02  0.51100000000E-03 0.  1.
    9900012    2    1    2    0    0 -0.25637405172E+02  0.16904033332E+02  0.85846985801E+01  0.59301953890E+02  0.50000017986E+02 0.  0.
        -12    1    1    2    0    0  0.25637405172E+02 -0.16904033332E+02 -0.85846985801E+01  0.31886046110E+02  0.00000000000E+00 0.  1.
         11    1    3    3    0    0 -0.26618339123E+02  0.31211522200E+00  0.54242730053E+00  0.26625694755E+02  0.51100000000E-03 0. -1.
        -11    1    3    3    0    0 -0.74168611207E+01  0.16384902398E-01 -0.58741044021E+01  0.94612472823E+01  0.51100000000E-03 0.  1.
        -12    1    3    3    0    0  0.83977950713E+01  0.16575533208E+02  0.13916375682E+02  0.23215011852E+02  0.00000000000E+00 0.  1.
</event>
<event>
 7    1  0.1290195E-011  0.5930195E+02  0.7816164E-02  0.1266605E+00
        -11   -1    0    0    0    0  0.00000000000E+00  0.00000000000E+00  0.45593999997E+02  0.45594000000E+02  0.51100000000E-03 0.  1.
         11   -1    0    0    0    0 -0.00000000000E+00 -0.00000000000E+00 -0.45593999997E+02  0.45594000000E+02  0.51100000000E-03 0. -1.
    9900012    2    1    2    0    0 -0.14763478542E+02 -0.29481907702E+01 -0.28108154186E+02  0.59301945694E+02  0.50000003039E+02 0.  0.
        -12    1    1    2    0    0  0.14763478542E+02  0.29481907702E+01  0.28108154186E+02  0.31886054306E+02  0.00000000000E+00 0.  1.
         11    1    3    3    0    0 -0.22179707954E+02  0.14017619349E+02 -0.16121466971E+02  0.30795044970E+02  0.51100000000E-03 0. -1.
        -11    1    3    3    0    0  0.62066919229E+01 -0.39740022465E+01 -0.13490683285E+02  0.15372516197E+02  0.51100000000E-03 0.  1.
        -12    1    3    3    0    0  0.12095374889E+01 -0.12991807872E+02  0.15039960703E+01  0.13134384527E+02  0.00000000000E+00 0.  1.
</event>
<event>
 7    1  0.1290195E-011  0.5930192E+02  0.7816164E-02  0.1266605E+00
        -11   -1    0    0    0    0  0.00000000000E+00  0.00000000000E+00  0.45593999997E+02  0.45594000000E+02  0.51100000000E-03 0. -1.
         11   -1    0    0    0    0 -0.00000000000E+00 -0.00000000000E+00 -0.45593999997E+02  0.45594000000E+02  0.51100000000E-03 0.  1.
    9900012    2    1    2    0    0  0.15469441385E+02  0.11332399650E+02  0.25475387497E+02  0.59301917351E+02  0.49999951347E+02 0.  0.
        -12    1    1    2    0    0 -0.15469441385E+02 -0.11332399650E+02 -0.25475387497E+02  0.31886082649E+02  0.00000000000E+00 0.  1.
         11    1    3    3    0    0  0.50149316731E+01 -0.26951645293E+00  0.99273179124E+01  0.11125368308E+02  0.51100000000E-03 0. -1.
        -11    1    3    3    0    0 -0.15300378283E+01 -0.15693550835E+02  0.60613009133E+01  0.16892836428E+02  0.51100000000E-03 0.  1.
         12    1    3    3    0    0  0.11984547540E+02  0.27295466938E+02  0.94867686716E+01  0.31283712614E+02  0.00000000000E+00 0. -1.
</event>
<event>
 7    1  0.1290195E-011  0.5930196E+02  0.7816164E-02  0.1266605E+00
        -11   -1    0    0    0    0  0.00000000000E+00  0.00000000000E+00  0.45593999997E+02  0.45594000000E+02  0.51100000000E-03 0.  1.
         11   -1    0    0    0    0 -0.00000000000E+00 -0.00000000000E+00 -0.45593999997E+02  0.45594000000E+02  0.51100000000E-03 0. -1.
    9900012    2    1    2    0    0 -0.36322911604E+01 -0.27544916176E+02 -0.15646204702E+02  0.59301958104E+02  0.50000025672E+02 0.  0.
        -12    1    1    2    0    0  0.36322911604E+01  0.27544916176E+02  0.15646204702E+02  0.31886041896E+02  0.00000000000E+00 0.  1.
         11    1    3    3    0    0  0.61789371912E+00 -0.10872254199E+02  0.77178049243E+01  0.13347367423E+02  0.51100000000E-03 0. -1.
        -11    1    3    3    0    0 -0.67302620893E+01  0.48793257588E+01  0.54103390995E+01  0.99184684849E+01  0.51100000000E-03 0.  1.
         12    1    3    3    0    0  0.24800772099E+01 -0.21551987737E+02 -0.28774348726E+02  0.36036122196E+02  0.00000000000E+00 0. -1.
</event>
<event>
 7    1  0.1290195E-011  0.5930180E+02  0.7816164E-02  0.1266605E+00
        -11   -1    0    0    0    0  0.00000000000E+00  0.00000000000E+00  0.45593999997E+02  0.45594000000E+02  0.51100000000E-03 0. -1.
         11   -1    0    0    0    0 -0.00000000000E+00 -0.00000000000E+00 -0.45593999997E+02  0.45594000000E+02  0.51100000000E-03 0.  1.
    9900012    2    1    2    0    0 -0.11102502801E+02  0.35774662164E+01  0.29676019719E+02  0.59301796411E+02  0.49999730782E+02 0.  0.
        -12    1    1    2    0    0  0.11102502801E+02 -0.35774662164E+01 -0.29676019719E+02  0.31886203589E+02  0.00000000000E+00 0.  1.
         11    1    3    3    0    0 -0.11360883676E+02 -0.20839279249E+01  0.12943890287E+02  0.17348104494E+02  0.51100000000E-03 0. -1.
        -11    1    3    3    0    0 -0.15642547333E+02 -0.58646010702E+01  0.14623235661E+02  0.22201843487E+02  0.51100000000E-03 0.  1.
        -12    1    3    3    0    0  0.15900928208E+02  0.11525995211E+02  0.21088937709E+01  0.19751848431E+02  0.00000000000E+00 0.  1.
</event>
<event>
 7    1  0.1290195E-011  0.5930205E+02  0.7816164E-02  0.1266604E+00
        -11   -1    0    0    0    0  0.00000000000E+00  0.00000000000E+00  0.45593999997E+02  0.45594000000E+02  0.51100000000E-03 0. -1.
         11   -1    0    0    0    0 -0.00000000000E+00 -0.00000000000E+00 -0.45593999997E+02  0.45594000000E+02  0.51100000000E-03 0.  1.
    9900012    2    1    2    0    0 -0.21320787877E+02  0.23367921221E+02 -0.40097143370E+01  0.59302054084E+02  0.50000200717E+02 0.  0.
        -12    1    1    2    0    0  0.21320787877E+02 -0.23367921221E+02  0.40097143370E+01  0.31885945916E+02  0.00000000000E+00 0.  1.
         11    1    3    3    0    0 -0.17548911240E+02  0.17498910385E+02 -0.16649760364E+01  0.24838443909E+02  0.51100000000E-03 0. -1.
        -11    1    3    3    0    0 -0.17834084549E+02  0.80771692536E+01 -0.44417072871E+01  0.20075457622E+02  0.51100000000E-03 0.  1.
        -12    1    3    3    0    0  0.14062207912E+02 -0.22081584179E+01  0.20969689865E+01  0.14388152553E+02  0.00000000000E+00 0.  1.
</event>
<event>
 7    1  0.1290195E-011  0.5930196E+02  0.7816164E-02  0.1266605E+00
        -11   -1    0    0    0    0  0.00000000000E+00  0.00000000000E+00  0.45593999997E+02  0.45594000000E+02  0.51100000000E-03 0.  1.
         11   -1    0    0    0    0 -0.00000000000E+00 -0.00000000000E+00 -0.45593999997E+02  0.45594000000E+02  0.51100000000E-03 0. -1.
    9900012    2    1    2    0    0  0.63579222260E+01  0.10927704377E+02 -0.29272545264E+02  0.59301955965E+02  0.50000021770E+02 0.  0.
        -12    1    1    2    0    0 -0.63579222260E+01 -0.10927704377E+02  0.29272545264E+02  0.31886044035E+02  0.00000000000E+00 0.  1.
         11    1    3    3    0    0  0.88385384849E+01 -0.12523922955E+02 -0.24937363877E+02  0.29271838448E+02  0.51100000000E-03 0. -1.
        -11    1    3    3    0    0 -0.67218468901E+00 -0.30461098481E+01 -0.91893501810E+00  0.32519316247E+01  0.51100000000E-03 0.  1.
        -12    1    3    3    0    0 -0.18084315699E+01  0.26497737180E+02 -0.34162463686E+01  0.26778185892E+02  0.00000000000E+00 0.  1.
</event>
<event>
 7    1  0.1366162E-011  0.5930194E+02  0.7816164E-02  0.1266605E+00
        -11   -1    0    0    0    0  0.00000000000E+00  0.00000000000E+00  0.45593999997E+02  0.45594000000E+02  0.51100000000E-03 0. -1.
         11   -1    0    0    0    0 -0.00000000000E+00 -0.00000000000E+00 -0.45593999997E+02  0.45594000000E+02  0.51100000000E-03 0.  1.
    9900012    2    1    2    0    0  0.21061004615E+02  0.14834187674E+02  0.18790994776E+02  0.59301944677E+02  0.50000001184E+02 0.  0.
        -12    1    1    2    0    0 -0.21061004615E+02 -0.14834187674E+02 -0.18790994776E+02  0.31886055323E+02  0.00000000000E+00 0.  1.
         11    1    3    3    0    0  0.88800562091E+01  0.29414432742E+02  0.10680478313E+02  0.32529015802E+02  0.51100000000E-03 0. -1.
        -11    1    3    3    0    0  0.11010279609E+02 -0.89088057426E+00  0.67993838215E+01  0.12971181360E+02  0.51100000000E-03 0.  1.
        -12    1    3    3    0    0  0.11706687978E+01 -0.13689364493E+02  0.13111326418E+01  0.13801747515E+02  0.00000000000E+00 0.  1.
</event>
<event>
 7    1  0.1290195E-011  0.5930194E+02  0.7816164E-02  0.1266605E+00
        -11   -1    0    0    0    0  0.00000000000E+00  0.00000000000E+00  0.45593999997E+02  0.45594000000E+02  0.51100000000E-03 0. -1.
         11   -1    0    0    0    0 -0.00000000000E+00 -0.00000000000E+00 -0.45593999997E+02  0.45594000000E+02  0.51100000000E-03 0.  1.
    9900012    2    1    2    0    0 -0.22502818252E+02 -0.42268785511E+01 -0.22191831119E+02  0.59301941918E+02  0.49999996153E+02 0.  0.
        -12    1    1    2    0    0  0.22502818252E+02  0.42268785511E+01  0.22191831119E+02  0.31886058082E+02  0.00000000000E+00 0.  1.
         11    1    3    3    0    0 -0.17983671925E+02  0.46749004744E+01 -0.89631597722E+01  0.20630205615E+02  0.51100000000E-03 0. -1.
        -11    1    3    3    0    0  0.46038469869E+01 -0.75207984767E+01 -0.23359716626E+02  0.24968663920E+02  0.51100000000E-03 0.  1.
         12    1    3    3    0    0 -0.91229933148E+01 -0.13809805488E+01  0.10131045280E+02  0.13703072384E+02  0.00000000000E+00 0. -1.
</event>
<event>
 7    1  0.1290195E-011  0.5930199E+02  0.7816164E-02  0.1266605E+00
        -11   -1    0    0    0    0  0.00000000000E+00  0.00000000000E+00  0.45593999997E+02  0.45594000000E+02  0.51100000000E-03 0.  1.
         11   -1    0    0    0    0 -0.00000000000E+00 -0.00000000000E+00 -0.45593999997E+02  0.45594000000E+02  0.51100000000E-03 0. -1.
    9900012    2    1    2    0    0  0.25272689004E+02  0.18862765048E+02 -0.47122146490E+01  0.59301989249E+02  0.50000082472E+02 0.  0.
        -12    1    1    2    0    0 -0.25272689004E+02 -0.18862765048E+02  0.47122146490E+01  0.31886010751E+02  0.00000000000E+00 0.  1.
         11    1    3    3    0    0  0.15149762687E+02  0.47294075930E+01 -0.97280796304E+01  0.18614997695E+02  0.51100000000E-03 0. -1.
        -11    1    3    3    0    0  0.20535528761E+02 -0.20919983325E+01  0.56376802736E+01  0.21397846566E+02  0.51100000000E-03 0.  1.
        -12    1    3    3    0    0 -0.10412602444E+02  0.16225355788E+02 -0.62181529215E+00  0.19289144988E+02  0.00000000000E+00 0.  1.
</event>
<event>
 7    1  0.1290195E-011  0.5930194E+02  0.7816164E-02  0.1266605E+00
        -11   -1    0    0    0    0  0.00000000000E+00  0.00000000000E+00  0.45593999997E+02  0.45594000000E+02  0.51100000000E-03 0.  1.
         11   -1    0    0    0    0 -0.00000000000E+00 -0.00000000000E+00 -0.45593999997E+02  0.45594000000E+02  0.51100000000E-03 0. -1.
    9900012    2    1    2    0    0  0.23493415668E+02  0.56277322467E+01 -0.20811260600E+02  0.59301944776E+02  0.50000001365E+02 0.  0.
        -12    1    1    2    0    0 -0.23493415668E+02 -0.56277322467E+01  0.20811260600E+02  0.31886055224E+02  0.00000000000E+00 0.  1.
         11    1    3    3    0    0  0.18666769789E+02  0.10738940872E+02 -0.27862877835E+02  0.35215239697E+02  0.51100000000E-03 0. -1.
        -11    1    3    3    0    0  0.10554471874E+02  0.37351705010E+01 -0.36159663643E+00  0.11201746632E+02  0.51100000000E-03 0.  1.
        -12    1    3    3    0    0 -0.57278259957E+01 -0.88463791263E+01  0.74132138715E+01  0.12884958447E+02  0.00000000000E+00 0.  1.
</event>
<event>
 7    1  0.1290195E-011  0.5930195E+02  0.7816164E-02  0.1266605E+00
        -11   -1    0    0    0    0  0.00000000000E+00  0.00000000000E+00  0.45593999997E+02  0.45594000000E+02  0.51100000000E-03 0.  1.
         11   -1    0    0    0    0 -0.00000000000E+00 -0.00000000000E+00 -0.45593999997E+02  0.45594000000E+02  0.51100000000E-03 0. -1.
    9900012    2    1    2    0    0 -0.18004181483E+01 -0.72639358060E+01 -0.30995380289E+02  0.59301954962E+02  0.50000019942E+02 0.  0.
        -12    1    1    2    0    0  0.18004181483E+01  0.72639358060E+01  0.30995380289E+02  0.31886045038E+02  0.00000000000E+00 0.  1.
         11    1    3    3    0    0  0.93318740376E+01 -0.63179127573E+01 -0.10395551543E+02  0.15331907475E+02  0.51100000000E-03 0. -1.
        -11    1    3    3    0    0  0.14838913542E+00 -0.75890803107E+01  0.88991508140E+01  0.11696625358E+02  0.51100000000E-03 0.  1.
         12    1    3    3    0    0 -0.11280681321E+02  0.66430572620E+01 -0.29498979560E+02  0.32273422129E+02  0.00000000000E+00 0. -1.
</event>
<event>
 7    1  0.1290195E-011  0.5930194E+02  0.7816164E-02  0.1266605E+00
        -11   -1    0    0    0    0  0.00000000000E+00  0.00000000000E+00  0.45593999997E+02  0.45594000000E+02  0.51100000000E-03 0.  1.
         11   -1    0    0    0    0 -0.00000000000E+00 -0.00000000000E+00 -0.45593999997E+02  0.45594000000E+02  0.51100000000E-03 0. -1.
    9900012    2    1    2    0    0 -0.77767472358E+01 -0.12537430459E+01 -0.30897751505E+02  0.59301941648E+02  0.49999995659E+02 0.  0.
        -12    1    1    2    0    0  0.77767472358E+01  0.12537430459E+01  0.30897751505E+02  0.31886058352E+02  0.00000000000E+00 0.  1.
         11    1    3    3    0    0 -0.30420398245E+00 -0.68790237038E+01 -0.11945985774E+02  0.13788403952E+02  0.51100000000E-03 0. -1.
        -11    1    3    3    0    0 -0.85241054998E+01 -0.15756888901E+02 -0.15776597450E+02  0.23871341600E+02  0.51100000000E-03 0.  1.
        -12    1    3    3    0    0  0.10515622465E+01  0.21382169559E+02 -0.31751682809E+01  0.21642196095E+02  0.00000000000E+00 0.  1.
</event>
<event>
 7    1  0.1290195E-011  0.5930194E+02  0.7816164E-02  0.1266605E+00
        -11   -1    0    0    0    0  0.00000000000E+00  0.00000000000E+00  0.45593999997E+02  0.45594000000E+02  0.51100000000E-03 0. -1.
         11   -1    0    0    0    0 -0.00000000000E+00 -0.00000000000E+00 -0.45593999997E+02  0.45594000000E+02  0.51100000000E-03 0.  1.
    9900012    2    1    2    0    0  0.22619954272E+02 -0.15901971355E+02  0.15880356617E+02  0.59301941126E+02  0.49999994708E+02 0.  0.
        -12    1    1    2    0    0 -0.22619954272E+02  0.15901971355E+02 -0.15880356617E+02  0.31886058874E+02  0.00000000000E+00 0.  1.
         11    1    3    3    0    0  0.11443766025E+02 -0.14173759520E+01 -0.31052752814E+01  0.11942004448E+02  0.51100000000E-03 0. -1.
        -11    1    3    3    0    0 -0.12532371845E+02 -0.42115518057E+00 -0.20222950564E+01  0.12701472092E+02  0.51100000000E-03 0.  1.
         12    1    3    3    0    0  0.23708560092E+02 -0.14063440222E+02  0.21007926954E+02  0.34658464586E+02  0.00000000000E+00 0. -1.
</event>
<event>
 7    1  0.1290195E-011  0.5930199E+02  0.7816164E-02  0.1266605E+00
        -11   -1    0    0    0    0  0.00000000000E+00  0.00000000000E+00  0.45593999997E+02  0.45594000000E+02  0.51100000000E-03 0.  1.
         11   -1    0    0    0    0 -0.00000000000E+00 -0.00000000000E+00 -0.45593999997E+02  0.45594000000E+02  0.51100000000E-03 0. -1.
    9900012    2    1    2    0    0 -0.11688956452E+02 -0.48156064346E+01 -0.29272782502E+02  0.59301991099E+02  0.50000085846E+02 0.  0.
        -12    1    1    2    0    0  0.11688956452E+02  0.48156064346E+01  0.29272782502E+02  0.31886008901E+02  0.00000000000E+00 0.  1.
         11    1    3    3    0    0  0.10823912567E+01  0.13747196535E+02 -0.19373760987E+02  0.23780235458E+02  0.51100000000E-03 0. -1.
        -11    1    3    3    0    0 -0.32203993312E+01  0.53626257887E+01  0.27374745101E+01  0.68280666485E+01  0.51100000000E-03 0.  1.
         12    1    3    3    0    0 -0.95509483775E+01 -0.23925428758E+02 -0.12636496024E+02  0.28693688992E+02  0.00000000000E+00 0. -1.
</event>
<event>
 7    1  0.1863245E-011  0.5930194E+02  0.7816164E-02  0.1266605E+00
        -11   -1    0    0    0    0  0.00000000000E+00  0.00000000000E+00  0.45593999997E+02  0.45594000000E+02  0.51100000000E-03 0.  1.
         11   -1    0    0    0    0 -0.00000000000E+00 -0.00000000000E+00 -0.45593999997E+02  0.45594000000E+02  0.51100000000E-03 0. -1.
    9900012    2    1    2    0    0  0.23098896723E+02  0.20498542174E+02  0.79354460093E+01  0.59301944044E+02  0.50000000030E+02 0.  0.
        -12    1    1    2    0    0 -0.23098896723E+02 -0.20498542174E+02 -0.79354460093E+01  0.31886055956E+02  0.00000000000E+00 0.  1.
         11    1    3    3    0    0  0.92637743276E+01  0.24388093569E+02 -0.74077037120E+01  0.27119563000E+02  0.51100000000E-03 0. -1.
        -11    1    3    3    0    0  0.88259544460E+01 -0.29781664085E+01 -0.54383892672E+01  0.10786242401E+02  0.51100000000E-03 0.  1.
        -12    1    3    3    0    0  0.50091679492E+01 -0.91138498696E+00  0.20781538988E+02  0.21396138644E+02  0.00000000000E+00 0.  1.
</event>
<event>
 7    1  0.1290195E-011  0.5930183E+02  0.7816164E-02  0.1266605E+00
        -11   -1    0    0    0    0  0.00000000000E+00  0.00000000000E+00  0.45593999997E+02  0.45594000000E+02  0.51100000000E-03 0.  1.
         11   -1    0    0    0    0 -0.00000000000E+00 -0.00000000000E+00 -0.45593999997E+02  0.45594000000E+02  0.51100000000E-03 0. -1.
    9900012    2    1    2    0    0 -0.24707379432E+02  0.87208887597E+01 -0.18171942078E+02  0.59301827793E+02  0.49999788016E+02 0.  0.
        -12    1    1    2    0    0  0.24707379432E+02 -0.87208887597E+01  0.18171942078E+02  0.31886172207E+02  0.00000000000E+00 0.  1.
         11    1    3    3    0    0  0.26868573382E+01  0.86037439588E+01 -0.68424889258E+01  0.11316504205E+02  0.51100000000E-03 0.  1.
        -11    1    3    3    0    0  0.92037539584E+01  0.16627829050E+01 -0.56228791206E+01  0.10912868724E+02  0.51100000000E-03 0. -1.
         12    1    3    3    0    0 -0.36597990728E+02 -0.15456381041E+01 -0.57065740312E+01  0.37072454864E+02  0.00000000000E+00 0. -1.
</event>
<event>
 7    1  0.1290195E-011  0.5930196E+02  0.7816164E-02  0.1266605E+00
        -11   -1    0    0    0    0  0.00000000000E+00  0.00000000000E+00  0.45593999997E+02  0.45594000000E+02  0.51100000000E-03 0.  1.
         11   -1    0    0    0    0 -0.00000000000E+00 -0.00000000000E+00 -0.45593999997E+02  0.45594000000E+02  0.51100000000E-03 0. -1.
    9900012    2    1    2    0    0  0.87037965253E+01  0.11687846173E+02 -0.28361199238E+02  0.59301961608E+02  0.50000032063E+02 0.  0.
        -12    1    1    2    0    0 -0.87037965253E+01 -0.11687846173E+02  0.28361199238E+02  0.31886038392E+02  0.00000000000E+00 0.  1.
         11    1    3    3    0    0  0.42518254703E+01 -0.13053497372E+02 -0.74845579130E+01  0.15636189462E+02  0.51100000000E-03 0. -1.
        -11    1    3    3    0    0  0.11841398630E+02  0.36068903870E+00 -0.11524273170E+02  0.16527482883E+02  0.51100000000E-03 0.  1.
        -12    1    3    3    0    0 -0.73894275747E+01  0.24380654506E+02 -0.93523681552E+01  0.27138289264E+02  0.00000000000E+00 0.  1.
</event>
<event>
 7    1  0.1290195E-011  0.5930206E+02  0.7816164E-02  0.1266604E+00
        -11   -1    0    0    0    0  0.00000000000E+00  0.00000000000E+00  0.45593999997E+02  0.45594000000E+02  0.51100000000E-03 0.  1.
         11   -1    0    0    0    0 -0.00000000000E+00 -0.00000000000E+00 -0.45593999997E+02  0.45594000000E+02  0.51100000000E-03 0. -1.
    9900012    2    1    2    0    0 -0.21332516364E+02 -0.23156885617E+02 -0.50394285009E+01  0.59302055674E+02  0.50000203616E+02 0.  0.
        -12    1    1    2    0    0  0.21332516364E+02  0.23156885617E+02  0.50394285009E+01  0.31885944326E+02  0.00000000000E+00 0.  1.
         11    1    3    3    0    0 -0.19429986622E+02  0.32946952328E+01  0.71255917469E+00  0.19720221541E+02  0.51100000000E-03 0. -1.
        -11    1    3    3    0    0 -0.12345785130E+02 -0.19128055365E+01 -0.18407108523E+01  0.12627963106E+02  0.51100000000E-03 0.  1.
        -12    1    3    3    0    0  0.10443255388E+02 -0.24538775313E+02 -0.39112768233E+01  0.26953871027E+02  0.00000000000E+00 0.  1.
</event>
<event>
 7    1  0.1290195E-011  0.5930194E+02  0.7816164E-02  0.1266605E+00
        -11   -1    0    0    0    0  0.00000000000E+00  0.00000000000E+00  0.45593999997E+02  0.45594000000E+02  0.51100000000E-03 0.  1.
         11   -1    0    0    0    0 -0.00000000000E+00 -0.00000000000E+00 -0.45593999997E+02  0.45594000000E+02  0.51100000000E-03 0. -1.
    9900012    2    1    2    0    0  0.31196833795E+02 -0.59006263616E+01 -0.29429918468E+01  0.59301936723E+02  0.49999986679E+02 0.  0.
        -12    1    1    2    0    0 -0.31196833795E+02  0.59006263616E+01  0.29429918468E+01  0.31886063277E+02  0.00000000000E+00 0.  1.
         11    1    3    3    0    0  0.10369179569E+02 -0.11871179582E+01  0.26571412323E+01  0.10769843721E+02  0.51100000000E-03 0. -1.
        -11    1    3    3    0    0  0.25064220438E+02  0.60532059337E+01  0.11217164715E+02  0.28119054621E+02  0.51100000000E-03 0.  1.
         12    1    3    3    0    0 -0.42365662128E+01 -0.10766714337E+02 -0.16817297794E+02  0.20413038382E+02  0.00000000000E+00 0. -1.
</event>
<event>
 7    1  0.1290195E-011  0.5930194E+02  0.7816164E-02  0.1266605E+00
        -11   -1    0    0    0    0  0.00000000000E+00  0.00000000000E+00  0.45593999997E+02  0.45594000000E+02  0.51100000000E-03 0. -1.
         11   -1    0    0    0    0 -0.00000000000E+00 -0.00000000000E+00 -0.45593999997E+02  0.45594000000E+02  0.51100000000E-03 0.  1.
    9900012    2    1    2    0    0 -0.24769862386E+02 -0.19940562018E+02  0.23555296881E+01  0.59301943230E+02  0.49999998546E+02 0.  0.
        -12    1    1    2    0    0  0.24769862386E+02  0.19940562018E+02 -0.23555296881E+01  0.31886056770E+02  0.00000000000E+00 0.  1.
         11    1    3    3    0    0  0.35272111990E+01 -0.21655490913E+01 -0.43428432284E+01  0.59992590606E+01  0.51100000000E-03 0. -1.
        -11    1    3    3    0    0 -0.92679284480E+00 -0.19763424545E+02 -0.89465986643E+01  0.21713901599E+02  0.51100000000E-03 0.  1.
         12    1    3    3    0    0 -0.27370280740E+02  0.19884116182E+01  0.15644971581E+02  0.31588782571E+02  0.00000000000E+00 0. -1.
</event>
<event>
 7    1  0.1290195E-011  0.5930193E+02  0.7816164E-02  0.1266605E+00
        -11   -1    0    0    0    0  0.00000000000E+00  0.00000000000E+00  0.45593999997E+02  0.45594000000E+02  0.51100000000E-03 0.  1.
         11   -1    0    0    0    0 -0.00000000000E+00 -0.00000000000E+00 -0.45593999997E+02  0.45594000000E+02  0.51100000000E-03 0. -1.
    9900012    2    1    2    0    0  0.35751973912E+01  0.36804182897E+01 -0.31470521865E+02  0.59301933111E+02  0.49999980091E+02 0.  0.
        -12    1    1    2    0    0 -0.35751973912E+01 -0.36804182897E+01  0.31470521865E+02  0.31886066889E+02  0.00000000000E+00 0.  1.
         11    1    3    3    0    0  0.15215453666E+02 -0.12245600517E+01 -0.85198854390E+00  0.15288409411E+02  0.51100000000E-03 0. -1.
        -11    1    3    3    0    0  0.84339116771E+01  0.50497402661E+01 -0.17377818099E+02  0.19965452789E+02  0.51100000000E-03 0.  1.
        -12    1    3    3    0    0 -0.20074167952E+02 -0.14476192467E+00 -0.13240715222E+02  0.24048070911E+02  0.00000000000E+00 0.  1.
</event>
<event>
 7    1  0.1290195E-011  0.5930196E+02  0.7816164E-02  0.1266605E+00
        -11   -1    0    0    0    0  0.00000000000E+00  0.00000000000E+00  0.45593999997E+02  0.45594000000E+02  0.51100000000E-03 0.  1.
         11   -1    0    0    0    0 -0.00000000000E+00 -0.00000000000E+00 -0.45593999997E+02  0.45594000000E+02  0.51100000000E-03 0. -1.
    9900012    2    1    2    0    0  0.62508421315E+01  0.43963355762E+01 -0.30956726240E+02  0.59301957703E+02  0.50000024940E+02 0.  0.
        -12    1    1    2    0    0 -0.62508421315E+01 -0.43963355762E+01  0.30956726240E+02  0.31886042297E+02  0.00000000000E+00 0.  1.
         11    1    3    3    0    0  0.11972927191E+02 -0.15934248664E+02 -0.13210905165E+02  0.23911906690E+02  0.51100000000E-03 0. -1.
        -11    1    3    3    0    0 -0.77364327798E+01 -0.13979378244E-01  0.81250781914E+00  0.77789945878E+01  0.51100000000E-03 0.  1.
         12    1    3    3    0    0  0.20143477198E+01  0.20344563618E+02 -0.18558328895E+02  0.27611056425E+02  0.00000000000E+00 0. -1.
</event>
<event>
 7    1  0.1290195E-011  0.5930192E+02  0.7816164E-02  0.1266605E+00
        -11   -1    0    0    0    0  0.00000000000E+00  0.00000000000E+00  0.45593999997E+02  0.45594000000E+02  0.51100000000E-03 0.  1.
         11   -1    0    0    0    0 -0.00000000000E+00 -0.00000000000E+00 -0.45593999997E+02  0.45594000000E+02  0.51100000000E-03 0. -1.
    9900012    2    1    2    0    0 -0.17777727001E+02  0.23542005295E+02  0.12101598459E+02  0.59301917207E+02  0.49999951085E+02 0.  0.
        -12    1    1    2    0    0  0.17777727001E+02 -0.23542005295E+02 -0.12101598459E+02  0.31886082793E+02  0.00000000000E+00 0.  1.
         11    1    3    3    0    0 -0.20337792134E+02  0.55196392291E+01  0.35201950976E+01  0.21365485716E+02  0.51100000000E-03 0.  1.
        -11    1    3    3    0    0  0.80246940464E+01  0.10797675549E+02 -0.10333879428E+02  0.16963919833E+02  0.51100000000E-03 0. -1.
         12    1    3    3    0    0 -0.54646289136E+01  0.72246905165E+01  0.18915282789E+02  0.20972511657E+02  0.00000000000E+00 0. -1.
</event>
<event>
 7    1  0.1290195E-011  0.5930186E+02  0.7816164E-02  0.1266605E+00
        -11   -1    0    0    0    0  0.00000000000E+00  0.00000000000E+00  0.45593999997E+02  0.45594000000E+02  0.51100000000E-03 0.  1.
         11   -1    0    0    0    0 -0.00000000000E+00 -0.00000000000E+00 -0.45593999997E+02  0.45594000000E+02  0.51100000000E-03 0. -1.
    9900012    2    1    2    0    0 -0.20202581098E+01  0.27132032553E+02 -0.16628210175E+02  0.59301858702E+02  0.49999844385E+02 0.  0.
        -12    1    1    2    0    0  0.20202581098E+01 -0.27132032553E+02  0.16628210175E+02  0.31886141298E+02  0.00000000000E+00 0.  1.
         11    1    3    3    0    0  0.31610241738E+01  0.30549847587E+02 -0.10589048798E+02  0.32487123851E+02  0.51100000000E-03 0. -1.
        -11    1    3    3    0    0 -0.12457614689E+02  0.52463755038E+01  0.89118762376E+00  0.13546617116E+02  0.51100000000E-03 0.  1.
        -12    1    3    3    0    0  0.72763324049E+01 -0.86641905376E+01 -0.69303490009E+01  0.13268117734E+02  0.00000000000E+00 0.  1.
</event>
<event>
 7    1  0.1290195E-011  0.5930179E+02  0.7816164E-02  0.1266605E+00
        -11   -1    0    0    0    0  0.00000000000E+00  0.00000000000E+00  0.45593999997E+02  0.45594000000E+02  0.51100000000E-03 0.  1.
         11   -1    0    0    0    0 -0.00000000000E+00 -0.00000000000E+00 -0.45593999997E+02  0.45594000000E+02  0.51100000000E-03 0. -1.
    9900012    2    1    2    0    0  0.67136748553E+01 -0.12660141211E+02 -0.28484697366E+02  0.59301786842E+02  0.49999713330E+02 0.  0.
        -12    1    1    2    0    0 -0.67136748553E+01  0.12660141211E+02  0.28484697366E+02  0.31886213158E+02  0.00000000000E+00 0.  1.
         11    1    3    3    0    0 -0.15366110914E+02 -0.15448709342E+02 -0.19123936380E+02  0.28991463017E+02  0.51100000000E-03 0.  1.
        -11    1    3    3    0    0  0.24239708356E+01 -0.56321239668E+01 -0.61546292061E+01  0.86876876046E+01  0.51100000000E-03 0. -1.
        -12    1    3    3    0    0  0.19655814934E+02  0.84206920976E+01 -0.32061317799E+01  0.21622636220E+02  0.00000000000E+00 0.  1.
</event>
<event>
 7    1  0.1290195E-011  0.5930202E+02  0.7816164E-02  0.1266604E+00
        -11   -1    0    0    0    0  0.00000000000E+00  0.00000000000E+00  0.45593999997E+02  0.45594000000E+02  0.51100000000E-03 0. -1.
         11   -1    0    0    0    0 -0.00000000000E+00 -0.00000000000E+00 -0.45593999997E+02  0.45594000000E+02  0.51100000000E-03 0.  1.
    9900012    2    1    2    0    0 -0.58542423587E+01 -0.25950598835E+02  0.17578677448E+02  0.59302021352E+02  0.50000141021E+02 0.  0.
        -12    1    1    2    0    0  0.58542423587E+01  0.25950598835E+02 -0.17578677448E+02  0.31885978648E+02  0.00000000000E+00 0.  1.
         11    1    3    3    0    0 -0.36420862205E+01 -0.17299991247E+02  0.14828691422E+02  0.23074760644E+02  0.51100000000E-03 0. -1.
        -11    1    3    3    0    0 -0.17429423776E+02  0.11825768110E+01  0.44572180102E+01  0.18029145674E+02  0.51100000000E-03 0.  1.
         12    1    3    3    0    0  0.15217267638E+02 -0.98331843988E+01 -0.17072319847E+01  0.18198115035E+02  0.00000000000E+00 0. -1.
</event>
<event>
 7    1  0.1290195E-011  0.5930198E+02  0.7816164E-02  0.1266605E+00
        -11   -1    0    0    0    0  0.00000000000E+00  0.00000000000E+00  0.45593999997E+02  0.45594000000E+02  0.51100000000E-03 0.  1.
         11   -1    0    0    0    0 -0.00000000000E+00 -0.00000000000E+00 -0.45593999997E+02  0.45594000000E+02  0.51100000000E-03 0. -1.
    9900012    2    1    2    0    0 -0.11946004284E+02  0.13036290924E+02 -0.26534247310E+02  0.59301981438E+02  0.50000068228E+02 0.  0.
        -12    1    1    2    0    0  0.11946004284E+02 -0.13036290924E+02  0.26534247310E+02  0.31886018562E+02  0.00000000000E+00 0.  1.
         11    1    3    3    0    0  0.11306349607E+01  0.57237860243E+01 -0.77001185503E+01  0.96608430179E+01  0.51100000000E-03 0. -1.
        -11    1    3    3    0    0  0.80788758834E+01 -0.10647510461E+02 -0.17281252706E+02  0.21846725382E+02  0.51100000000E-03 0.  1.
         12    1    3    3    0    0 -0.21155515128E+02  0.17960015361E+02 -0.15528760537E+01  0.27794413038E+02  0.00000000000E+00 0. -1.
</event>
<event>
 7    1  0.1290195E-011  0.5930194E+02  0.7816164E-02  0.1266605E+00
        -11   -1    0    0    0    0  0.00000000000E+00  0.00000000000E+00  0.45593999997E+02  0.45594000000E+02  0.51100000000E-03 0. -1.
         11   -1    0    0    0    0 -0.00000000000E+00 -0.00000000000E+00 -0.45593999997E+02  0.45594000000E+02  0.51100000000E-03 0.  1.
    9900012    2    1    2    0    0 -0.26554604711E+02 -0.49032726978E+01  0.16956768136E+02  0.59301935644E+02  0.49999984710E+02 0.  0.
        -12    1    1    2    0    0  0.26554604711E+02  0.49032726978E+01 -0.16956768136E+02  0.31886064356E+02  0.00000000000E+00 0.  1.
         11    1    3    3    0    0 -0.19900303485E+02 -0.42380827568E+01  0.63719981767E+01  0.21321017454E+02  0.51100000000E-03 0. -1.
        -11    1    3    3    0    0 -0.13158179657E+02 -0.39631913806E+01 -0.94384109613E+01  0.16671178109E+02  0.51100000000E-03 0.  1.
        -12    1    3    3    0    0  0.65038784308E+01  0.32980014396E+01  0.20023180920E+02  0.21309740081E+02  0.00000000000E+00 0.  1.
</event>
<event>
 7    1  0.1290195E-011  0.5930195E+02  0.7816164E-02  0.1266605E+00
        -11   -1    0    0    0    0  0.00000000000E+00  0.00000000000E+00  0.45593999997E+02  0.45594000000E+02  0.51100000000E-03 0.  1.
         11   -1    0    0    0    0 -0.00000000000E+00 -0.00000000000E+00 -0.45593999997E+02  0.45594000000E+02  0.51100000000E-03 0. -1.
    9900012    2    1    2    0    0 -0.27315419966E+02  0.36105580598E+01 -0.16048423665E+02  0.59301949766E+02  0.50000010465E+02 0.  0.
        -12    1    1    2    0    0  0.27315419966E+02 -0.36105580598E+01  0.16048423665E+02  0.31886050234E+02  0.00000000000E+00 0.  1.
         11    1    3    3    0    0  0.54656812778E+01 -0.74390540895E+01 -0.11759319590E+01  0.93056979217E+01  0.51100000000E-03 0. -1.
        -11    1    3    3    0    0 -0.22996536355E+01  0.73717138930E+01  0.84448148946E+01  0.11443140803E+02  0.51100000000E-03 0.  1.
         12    1    3    3    0    0 -0.30481447608E+02  0.36778982562E+01 -0.23317306600E+02  0.38553111041E+02  0.00000000000E+00 0. -1.
</event>
<event>
 7    1  0.1290195E-011  0.5930196E+02  0.7816164E-02  0.1266605E+00
        -11   -1    0    0    0    0  0.00000000000E+00  0.00000000000E+00  0.45593999997E+02  0.45594000000E+02  0.51100000000E-03 0.  1.
         11   -1    0    0    0    0 -0.00000000000E+00 -0.00000000000E+00 -0.45593999997E+02  0.45594000000E+02  0.51100000000E-03 0. -1.
    9900012    2    1    2    0    0  0.30595083979E+02  0.14244120999E+01 -0.88674337112E+01  0.59301960828E+02  0.50000030639E+02 0.  0.
        -12    1    1    2    0    0 -0.30595083979E+02 -0.14244120999E+01  0.88674337112E+01  0.31886039172E+02  0.00000000000E+00 0.  1.
         11    1    3    3    0    0  0.14163512464E+02  0.58104525678E+01  0.99066179361E-01  0.15309352002E+02  0.51100000000E-03 0. -1.
        -11    1    3    3    0    0  0.15791007391E+02  0.12703792968E+02  0.61376567854E+01  0.21175766841E+02  0.51100000000E-03 0.  1.
         12    1    3    3    0    0  0.64056412359E+00 -0.17089833436E+02 -0.15104156676E+02  0.22816841985E+02  0.00000000000E+00 0. -1.
</event>
<event>
 7    1  0.1290195E-011  0.5930194E+02  0.7816164E-02  0.1266605E+00
        -11   -1    0    0    0    0  0.00000000000E+00  0.00000000000E+00  0.45593999997E+02  0.45594000000E+02  0.51100000000E-03 0. -1.
         11   -1    0    0    0    0 -0.00000000000E+00 -0.00000000000E+00 -0.45593999997E+02  0.45594000000E+02  0.51100000000E-03 0.  1.
    9900012    2    1    2    0    0 -0.96184590551E+01 -0.21737984337E+02 -0.21252431566E+02  0.59301944033E+02  0.50000000010E+02 0.  0.
        -12    1    1    2    0    0  0.96184590551E+01  0.21737984337E+02  0.21252431566E+02  0.31886055967E+02  0.00000000000E+00 0.  1.
         11    1    3    3    0    0  0.10483051823E+02 -0.12317230161E+01 -0.35156225698E+01  0.11125246937E+02  0.51100000000E-03 0. -1.
        -11    1    3    3    0    0  0.65849466081E+01 -0.14343610451E+02 -0.45116095817E+00  0.15789370763E+02  0.51100000000E-03 0.  1.
        -12    1    3    3    0    0 -0.26686457486E+02 -0.61626508698E+01 -0.17285648038E+02  0.32387326333E+02  0.00000000000E+00 0.  1.
</event>
<event>
 7    1  0.1290195E-011  0.5930194E+02  0.7816164E-02  0.1266605E+00
        -11   -1    0    0    0    0  0.00000000000E+00  0.00000000000E+00  0.45593999997E+02  0.45594000000E+02  0.51100000000E-03 0. -1.
         11   -1    0    0    0    0 -0.00000000000E+00 -0.00000000000E+00 -0.45593999997E+02  0.45594000000E+02  0.51100000000E-03 0.  1.
    9900012    2    1    2    0    0  0.98484952697E+01 -0.24930857046E+02 -0.17267902395E+02  0.59301938073E+02  0.49999989139E+02 0.  0.
        -12    1    1    2    0    0 -0.98484952697E+01  0.24930857046E+02  0.17267902395E+02  0.31886061927E+02  0.00000000000E+00 0.  1.
         11    1    3    3    0    0  0.18730552157E+02  0.53178478934E+01 -0.23171587892E+00  0.19472205392E+02  0.51100000000E-03 0. -1.
        -11    1    3    3    0    0 -0.35010376645E+01 -0.17690077927E+02 -0.53515559994E-01  0.18033274411E+02  0.51100000000E-03 0.  1.
        -12    1    3    3    0    0 -0.53810192228E+01 -0.12558627012E+02 -0.16982670956E+02  0.21796458270E+02  0.00000000000E+00 0.  1.
</event>
<event>
 7    1  0.1290195E-011  0.5930187E+02  0.7816164E-02  0.1266605E+00
        -11   -1    0    0    0    0  0.00000000000E+00  0.00000000000E+00  0.45593999997E+02  0.45594000000E+02  0.51100000000E-03 0. -1.
         11   -1    0    0    0    0 -0.00000000000E+00 -0.00000000000E+00 -0.45593999997E+02  0.45594000000E+02  0.51100000000E-03 0.  1.
    9900012    2    1    2    0    0 -0.64706498792E+00 -0.29803723346E+02  0.11315668475E+02  0.59301874939E+02  0.49999873998E+02 0.  0.
        -12    1    1    2    0    0  0.64706498792E+00  0.29803723346E+02 -0.11315668475E+02  0.31886125061E+02  0.00000000000E+00 0.  1.
         11    1    3    3    0    0 -0.35660858350E+00  0.10435381947E+02 -0.37368454755E+01  0.11090012644E+02  0.51100000000E-03 0. -1.
        -11    1    3    3    0    0  0.38011532107E+01  0.13280584066E+01  0.10820185157E+01  0.41693247885E+01  0.51100000000E-03 0.  1.
         12    1    3    3    0    0 -0.40916096151E+01 -0.41567163700E+02  0.13970495434E+02  0.44042537506E+02  0.00000000000E+00 0. -1.
</event>
<event>
 7    1  0.1290195E-011  0.5930196E+02  0.7816164E-02  0.1266605E+00
        -11   -1    0    0    0    0  0.00000000000E+00  0.00000000000E+00  0.45593999997E+02  0.45594000000E+02  0.51100000000E-03 0. -1.
         11   -1    0    0    0    0 -0.00000000000E+00 -0.00000000000E+00 -0.45593999997E+02  0.45594000000E+02  0.51100000000E-03 0.  1.
    9900012    2    1    2    0    0 -0.29160836420E+02 -0.86129085954E+01  0.96011997307E+01  0.59301958987E+02  0.50000027282E+02 0.  0.
        -12    1    1    2    0    0  0.29160836420E+02  0.86129085954E+01 -0.96011997307E+01  0.31886041013E+02  0.00000000000E+00 0.  1.
         11    1    3    3    0    0 -0.12138573934E+02 -0.62900011797E+01 -0.64423807941E+01  0.15113350474E+02  0.51100000000E-03 0. -1.
        -11    1    3    3    0    0 -0.13596085365E+02  0.81074491776E+01 -0.80151154790E+01  0.17743346523E+02  0.51100000000E-03 0.  1.
         12    1    3    3    0    0 -0.34261771207E+01 -0.10430356593E+02  0.24058696004E+02  0.26445261990E+02  0.00000000000E+00 0. -1.
</event>
