<event>
 7    1  0.1692604E-013  0.7246160E+02  0.7816164E-02  0.1226708E+00
        -11   -1    0    0    0    0  0.00000000000E+00  0.00000000000E+00  0.45593999997E+02  0.45594000000E+02  0.51100000000E-03 0.  1.
         11   -1    0    0    0    0 -0.00000000000E+00 -0.00000000000E+00 -0.45593999997E+02  0.45594000000E+02  0.51100000000E-03 0. -1.
    9900012    2    1    2    0    0  0.43172339967E+01  0.92973633091E+01  0.15671581898E+02  0.72461602774E+02  0.70000042310E+02 0.  0.
         12    1    1    2    0    0 -0.43172339967E+01 -0.92973633091E+01 -0.15671581898E+02  0.18726397226E+02  0.00000000000E+00 0. -1.
         11    1    3    3    0    0  0.37303074060E+01 -0.26462433007E+01  0.12948187063E+01  0.47533517326E+01  0.51100000000E-03 0. -1.
        -11    1    3    3    0    0  0.24829390860E+02  0.19627838752E+02 -0.92720074623E+01  0.32980612899E+02  0.51100000000E-03 0.  1.
        -12    1    3    3    0    0 -0.24242464269E+02 -0.76842321417E+01  0.23648770654E+02  0.34727638142E+02  0.00000000000E+00 0.  1.
</event>
<event>
 7    1  0.1692604E-013  0.7246165E+02  0.7816164E-02  0.1226708E+00
        -11   -1    0    0    0    0  0.00000000000E+00  0.00000000000E+00  0.45593999997E+02  0.45594000000E+02  0.51100000000E-03 0. -1.
         11   -1    0    0    0    0 -0.00000000000E+00 -0.00000000000E+00 -0.45593999997E+02  0.45594000000E+02  0.51100000000E-03 0.  1.
    9900012    2    1    2    0    0 -0.15350577838E+02  0.47146519813E+01 -0.96336818811E+01  0.72461654658E+02  0.70000109900E+02 0.  0.
         12    1    1    2    0    0  0.15350577838E+02 -0.47146519813E+01  0.96336818811E+01  0.18726345342E+02  0.00000000000E+00 0. -1.
         11    1    3    3    0    0  0.59253898245E+01 -0.12035738798E+02 -0.16710584007E+02  0.21429252696E+02  0.51100000000E-03 0. -1.
        -11    1    3    3    0    0 -0.15626300926E+02  0.17355217770E+02 -0.15317337190E+02  0.27928581836E+02  0.51100000000E-03 0.  1.
         12    1    3    3    0    0 -0.56496667364E+01 -0.60482699056E+00  0.22394239316E+02  0.23103820127E+02  0.00000000000E+00 0. -1.
</event>
<event>
 7    1  0.1692604E-013  0.7246155E+02  0.7816164E-02  0.1226708E+00
        -11   -1    0    0    0    0  0.00000000000E+00  0.00000000000E+00  0.45593999997E+02  0.45594000000E+02  0.51100000000E-03 0.  1.
         11   -1    0    0    0    0 -0.00000000000E+00 -0.00000000000E+00 -0.45593999997E+02  0.45594000000E+02  0.51100000000E-03 0. -1.
    9900012    2    1    2    0    0  0.15322593629E+02 -0.57179051695E+01  0.91215960525E+01  0.72461552670E+02  0.69999977042E+02 0.  0.
         12    1    1    2    0    0 -0.15322593629E+02  0.57179051695E+01 -0.91215960525E+01  0.18726447330E+02  0.00000000000E+00 0. -1.
         11    1    3    3    0    0  0.80488180066E+01 -0.10203825604E+02  0.38030933910E+01  0.13541235093E+02  0.51100000000E-03 0. -1.
        -11    1    3    3    0    0 -0.87866955845E+01 -0.22667337222E+02 -0.66094979799E+01  0.25193246314E+02  0.51100000000E-03 0.  1.
         12    1    3    3    0    0  0.16060471207E+02  0.27153257656E+02  0.11928000641E+02  0.33727071263E+02  0.00000000000E+00 0. -1.
</event>
<event>
 7    1  0.1692604E-013  0.7246156E+02  0.7816164E-02  0.1226708E+00
        -11   -1    0    0    0    0  0.00000000000E+00  0.00000000000E+00  0.45593999997E+02  0.45594000000E+02  0.51100000000E-03 0.  1.
         11   -1    0    0    0    0 -0.00000000000E+00 -0.00000000000E+00 -0.45593999997E+02  0.45594000000E+02  0.51100000000E-03 0. -1.
    9900012    2    1    2    0    0 -0.95391968683E+01  0.13519342922E+02  0.87698744103E+01  0.72461558610E+02  0.69999984780E+02 0.  0.
         12    1    1    2    0    0  0.95391968683E+01 -0.13519342922E+02 -0.87698744103E+01  0.18726441390E+02  0.00000000000E+00 0. -1.
         11    1    3    3    0    0  0.48764748694E+01  0.14904715898E+02 -0.65170207886E+01  0.16982406289E+02  0.51100000000E-03 0. -1.
        -11    1    3    3    0    0 -0.11778073840E+02  0.20697843830E+02 -0.61435600562E+01  0.24594045885E+02  0.51100000000E-03 0.  1.
         12    1    3    3    0    0 -0.26375978973E+01 -0.22083216805E+02  0.21430455255E+02  0.30885106436E+02  0.00000000000E+00 0. -1.
</event>
<event>
 7    1  0.1692604E-013  0.7246157E+02  0.7816164E-02  0.1226708E+00
        -11   -1    0    0    0    0  0.00000000000E+00  0.00000000000E+00  0.45593999997E+02  0.45594000000E+02  0.51100000000E-03 0.  1.
         11   -1    0    0    0    0 -0.00000000000E+00 -0.00000000000E+00 -0.45593999997E+02  0.45594000000E+02  0.51100000000E-03 0. -1.
    9900012    2    1    2    0    0 -0.88334103884E+01  0.51463954023E+01  0.15689637981E+02  0.72461567753E+02  0.69999996689E+02 0.  0.
         12    1    1    2    0    0  0.88334103884E+01 -0.51463954023E+01 -0.15689637981E+02  0.18726432247E+02  0.00000000000E+00 0. -1.
         11    1    3    3    0    0 -0.39567991418E+01 -0.77896948655E+01 -0.94814955140E+00  0.87883214199E+01  0.51100000000E-03 0. -1.
        -11    1    3    3    0    0  0.13160069365E+02  0.18527954079E+01  0.33865206502E+02  0.36379561408E+02  0.51100000000E-03 0.  1.
         12    1    3    3    0    0 -0.18036680612E+02  0.11083294860E+02 -0.17227418970E+02  0.27293684925E+02  0.00000000000E+00 0. -1.
</event>
<event>
 7    1  0.1692604E-013  0.7246153E+02  0.7816164E-02  0.1226708E+00
        -11   -1    0    0    0    0  0.00000000000E+00  0.00000000000E+00  0.45593999997E+02  0.45594000000E+02  0.51100000000E-03 0. -1.
         11   -1    0    0    0    0 -0.00000000000E+00 -0.00000000000E+00 -0.45593999997E+02  0.45594000000E+02  0.51100000000E-03 0.  1.
    9900012    2    1    2    0    0 -0.44435246710E+01  0.87548777169E+01 -0.15946405563E+02  0.72461530880E+02  0.69999948655E+02 0.  0.
         12    1    1    2    0    0  0.44435246710E+01 -0.87548777169E+01  0.15946405563E+02  0.18726469120E+02  0.00000000000E+00 0. -1.
         11    1    3    3    0    0 -0.24061038503E+02 -0.21565445025E+02 -0.38998936362E+01  0.32545524479E+02  0.51100000000E-03 0. -1.
        -11    1    3    3    0    0 -0.16620466353E+00 -0.51846999885E+00 -0.17862118710E+01  0.18673479159E+01  0.51100000000E-03 0.  1.
        -12    1    3    3    0    0  0.19783718496E+02  0.30838792741E+02 -0.10260300055E+02  0.38048658485E+02  0.00000000000E+00 0.  1.
</event>
<event>
 7    1  0.1692604E-013  0.7246163E+02  0.7816164E-02  0.1226708E+00
        -11   -1    0    0    0    0  0.00000000000E+00  0.00000000000E+00  0.45593999997E+02  0.45594000000E+02  0.51100000000E-03 0.  1.
         11   -1    0    0    0    0 -0.00000000000E+00 -0.00000000000E+00 -0.45593999997E+02  0.45594000000E+02  0.51100000000E-03 0. -1.
    9900012    2    1    2    0    0  0.17351712926E+02  0.68079181851E+01  0.18020054863E+01  0.72461630484E+02  0.70000078408E+02 0.  0.
         12    1    1    2    0    0 -0.17351712926E+02 -0.68079181851E+01 -0.18020054863E+01  0.18726369516E+02  0.00000000000E+00 0. -1.
         11    1    3    3    0    0 -0.49153731306E+01 -0.26698444030E+02 -0.56691274929E+01  0.27732775076E+02  0.51100000000E-03 0. -1.
        -11    1    3    3    0    0  0.21410427320E+01  0.20889491183E+01  0.67810041770E+01  0.74114634390E+01  0.51100000000E-03 0.  1.
        -12    1    3    3    0    0  0.20126043324E+02  0.31417413097E+02  0.69012880220E+00  0.37317391969E+02  0.00000000000E+00 0.  1.
</event>
<event>
 7    1  0.1692604E-013  0.7246158E+02  0.7816164E-02  0.1226708E+00
        -11   -1    0    0    0    0  0.00000000000E+00  0.00000000000E+00  0.45593999997E+02  0.45594000000E+02  0.51100000000E-03 0. -1.
         11   -1    0    0    0    0 -0.00000000000E+00 -0.00000000000E+00 -0.45593999997E+02  0.45594000000E+02  0.51100000000E-03 0.  1.
    9900012    2    1    2    0    0 -0.10584339404E+02 -0.53583291167E+01 -0.14489262077E+02  0.72461584244E+02  0.70000018172E+02 0.  0.
         12    1    1    2    0    0  0.10584339404E+02  0.53583291167E+01  0.14489262077E+02  0.18726415756E+02  0.00000000000E+00 0. -1.
         11    1    3    3    0    0 -0.14073938673E+02 -0.30239247231E+02  0.95700200922E+01  0.34699756594E+02  0.51100000000E-03 0. -1.
        -11    1    3    3    0    0 -0.22043771067E+01 -0.10682759516E+00 -0.60463130897E+01  0.64365047039E+01  0.51100000000E-03 0.  1.
        -12    1    3    3    0    0  0.56939763753E+01  0.24987745710E+02 -0.18012969079E+02  0.31325322946E+02  0.00000000000E+00 0.  1.
</event>
<event>
 7    1  0.1692604E-013  0.7246175E+02  0.7816164E-02  0.1226708E+00
        -11   -1    0    0    0    0  0.00000000000E+00  0.00000000000E+00  0.45593999997E+02  0.45594000000E+02  0.51100000000E-03 0.  1.
         11   -1    0    0    0    0 -0.00000000000E+00 -0.00000000000E+00 -0.45593999997E+02  0.45594000000E+02  0.51100000000E-03 0. -1.
    9900012    2    1    2    0    0  0.15263611428E+02  0.10607079915E+02 -0.22769817767E+01  0.72461745058E+02  0.70000227661E+02 0.  0.
         12    1    1    2    0    0 -0.15263611428E+02 -0.10607079915E+02  0.22769817767E+01  0.18726254942E+02  0.00000000000E+00 0. -1.
         11    1    3    3    0    0  0.84449011032E+01 -0.24504568060E+02 -0.59794198459E+01  0.26599693088E+02  0.51100000000E-03 0. -1.
        -11    1    3    3    0    0  0.92417314692E+01  0.18563809501E+01 -0.59530728644E+01  0.11148759015E+02  0.51100000000E-03 0.  1.
        -12    1    3    3    0    0 -0.24230211441E+01  0.33255267025E+02  0.96555109336E+01  0.34713292954E+02  0.00000000000E+00 0.  1.
</event>
<event>
 7    1  0.1692604E-013  0.7246159E+02  0.7816164E-02  0.1226708E+00
        -11   -1    0    0    0    0  0.00000000000E+00  0.00000000000E+00  0.45593999997E+02  0.45594000000E+02  0.51100000000E-03 0.  1.
         11   -1    0    0    0    0 -0.00000000000E+00 -0.00000000000E+00 -0.45593999997E+02  0.45594000000E+02  0.51100000000E-03 0. -1.
    9900012    2    1    2    0    0 -0.11617750711E+02 -0.67398460488E+01 -0.13049163659E+02  0.72461592748E+02  0.70000029251E+02 0.  0.
         12    1    1    2    0    0  0.11617750711E+02  0.67398460488E+01  0.13049163659E+02  0.18726407252E+02  0.00000000000E+00 0. -1.
         11    1    3    3    0    0  0.46181029179E+01 -0.78344988393E+01 -0.23807202750E+01  0.94007486889E+01  0.51100000000E-03 0. -1.
        -11    1    3    3    0    0 -0.12853164420E+02 -0.24252404641E+02  0.10973630892E+02  0.29560168161E+02  0.51100000000E-03 0.  1.
         12    1    3    3    0    0 -0.33826892091E+01  0.25347057432E+02 -0.21642074275E+02  0.33500675899E+02  0.00000000000E+00 0. -1.
</event>
<event>
 7    1  0.1692604E-013  0.7246153E+02  0.7816164E-02  0.1226708E+00
        -11   -1    0    0    0    0  0.00000000000E+00  0.00000000000E+00  0.45593999997E+02  0.45594000000E+02  0.51100000000E-03 0.  1.
         11   -1    0    0    0    0 -0.00000000000E+00 -0.00000000000E+00 -0.45593999997E+02  0.45594000000E+02  0.51100000000E-03 0. -1.
    9900012    2    1    2    0    0  0.37134656204E+01 -0.16838394926E+02  0.73047453025E+01  0.72461530110E+02  0.69999947653E+02 0.  0.
         12    1    1    2    0    0 -0.37134656204E+01  0.16838394926E+02 -0.73047453025E+01  0.18726469890E+02  0.00000000000E+00 0. -1.
         11    1    3    3    0    0  0.30806005319E+01  0.22567322515E+02 -0.43014866361E+01  0.23179234946E+02  0.51100000000E-03 0. -1.
        -11    1    3    3    0    0 -0.10620144452E+01  0.30581385648E+01 -0.29309923273E+01  0.43670129891E+01  0.51100000000E-03 0.  1.
        -12    1    3    3    0    0  0.16948795336E+01 -0.42463856006E+02  0.14537224266E+02  0.44915282175E+02  0.00000000000E+00 0.  1.
</event>
<event>
 7    1  0.1692604E-013  0.7246157E+02  0.7816164E-02  0.1226708E+00
        -11   -1    0    0    0    0  0.00000000000E+00  0.00000000000E+00  0.45593999997E+02  0.45594000000E+02  0.51100000000E-03 0.  1.
         11   -1    0    0    0    0 -0.00000000000E+00 -0.00000000000E+00 -0.45593999997E+02  0.45594000000E+02  0.51100000000E-03 0. -1.
    9900012    2    1    2    0    0 -0.71180892089E+01 -0.17316628570E+02  0.38239902448E+00  0.72461573538E+02  0.70000004226E+02 0.  0.
         12    1    1    2    0    0  0.71180892089E+01  0.17316628570E+02 -0.38239902448E+00  0.18726426462E+02  0.00000000000E+00 0. -1.
         11    1    3    3    0    0 -0.48189075079E+01  0.19140355936E+01  0.46712254599E+01  0.69789504499E+01  0.51100000000E-03 0. -1.
        -11    1    3    3    0    0 -0.16915702723E+02  0.86316580533E+00  0.23008073747E+02  0.28570220713E+02  0.51100000000E-03 0.  1.
         12    1    3    3    0    0  0.14616521022E+02 -0.20093829969E+02 -0.27296900182E+02  0.36912402375E+02  0.00000000000E+00 0. -1.
</event>
<event>
 7    1  0.1692604E-013  0.7246161E+02  0.7816164E-02  0.1226708E+00
        -11   -1    0    0    0    0  0.00000000000E+00  0.00000000000E+00  0.45593999997E+02  0.45594000000E+02  0.51100000000E-03 0.  1.
         11   -1    0    0    0    0 -0.00000000000E+00 -0.00000000000E+00 -0.45593999997E+02  0.45594000000E+02  0.51100000000E-03 0. -1.
    9900012    2    1    2    0    0 -0.10162924880E+02  0.15637625337E+02  0.16903216477E+01  0.72461613387E+02  0.70000056137E+02 0.  0.
         12    1    1    2    0    0  0.10162924880E+02 -0.15637625337E+02 -0.16903216477E+01  0.18726386613E+02  0.00000000000E+00 0. -1.
         11    1    3    3    0    0 -0.58751792261E+01  0.94412565495E+01  0.68520859371E+01  0.13061628464E+02  0.51100000000E-03 0. -1.
        -11    1    3    3    0    0 -0.14614287889E+02  0.17008717743E+02  0.20054645993E+02  0.30084260269E+02  0.51100000000E-03 0.  1.
         12    1    3    3    0    0  0.10326542235E+02 -0.10812348955E+02 -0.25216410283E+02  0.29315724655E+02  0.00000000000E+00 0. -1.
</event>
<event>
 7    1  0.1692604E-013  0.7246161E+02  0.7816164E-02  0.1226708E+00
        -11   -1    0    0    0    0  0.00000000000E+00  0.00000000000E+00  0.45593999997E+02  0.45594000000E+02  0.51100000000E-03 0.  1.
         11   -1    0    0    0    0 -0.00000000000E+00 -0.00000000000E+00 -0.45593999997E+02  0.45594000000E+02  0.51100000000E-03 0. -1.
    9900012    2    1    2    0    0 -0.16189089699E+02  0.50703870654E+01 -0.79298369839E+01  0.72461607799E+02  0.70000048857E+02 0.  0.
         12    1    1    2    0    0  0.16189089699E+02 -0.50703870654E+01  0.79298369839E+01  0.18726392201E+02  0.00000000000E+00 0. -1.
         11    1    3    3    0    0  0.81662653580E+00 -0.40800892930E+01  0.87870223440E-01  0.41619381273E+01  0.51100000000E-03 0. -1.
        -11    1    3    3    0    0 -0.41269996264E+02  0.12031734435E+02 -0.15164248902E+01  0.43014820351E+02  0.51100000000E-03 0.  1.
         12    1    3    3    0    0  0.24264280029E+02 -0.28812580762E+01 -0.65012823171E+01  0.25284849321E+02  0.00000000000E+00 0. -1.
</event>
<event>
 7    1  0.1692604E-013  0.7246160E+02  0.7816164E-02  0.1226708E+00
        -11   -1    0    0    0    0  0.00000000000E+00  0.00000000000E+00  0.45593999997E+02  0.45594000000E+02  0.51100000000E-03 0.  1.
         11   -1    0    0    0    0 -0.00000000000E+00 -0.00000000000E+00 -0.45593999997E+02  0.45594000000E+02  0.51100000000E-03 0. -1.
    9900012    2    1    2    0    0 -0.31336438989E+01  0.18461712521E+02  0.15329171190E+00  0.72461600142E+02  0.70000038882E+02 0.  0.
         12    1    1    2    0    0  0.31336438989E+01 -0.18461712521E+02 -0.15329171190E+00  0.18726399858E+02  0.00000000000E+00 0. -1.
         11    1    3    3    0    0 -0.39014520602E+01  0.47745111264E+00 -0.10002291865E+02  0.10746866080E+02  0.51100000000E-03 0. -1.
        -11    1    3    3    0    0 -0.21045707773E+02 -0.11047264601E+02  0.88971799692E+01  0.25379591851E+02  0.51100000000E-03 0.  1.
         12    1    3    3    0    0  0.21813515935E+02  0.29031526009E+02  0.12584036073E+01  0.36335142211E+02  0.00000000000E+00 0. -1.
</event>
<event>
 7    1  0.1692604E-013  0.7246158E+02  0.7816164E-02  0.1226708E+00
        -11   -1    0    0    0    0  0.00000000000E+00  0.00000000000E+00  0.45593999997E+02  0.45594000000E+02  0.51100000000E-03 0.  1.
         11   -1    0    0    0    0 -0.00000000000E+00 -0.00000000000E+00 -0.45593999997E+02  0.45594000000E+02  0.51100000000E-03 0. -1.
    9900012    2    1    2    0    0  0.35670691103E+01  0.18005040149E+02  0.37112663684E+01  0.72461576133E+02  0.70000007605E+02 0.  0.
         12    1    1    2    0    0 -0.35670691103E+01 -0.18005040149E+02 -0.37112663684E+01  0.18726423867E+02  0.00000000000E+00 0. -1.
         11    1    3    3    0    0  0.42032332763E+00  0.34552279520E+01  0.45910066358E+01  0.57613031591E+01  0.51100000000E-03 0. -1.
        -11    1    3    3    0    0  0.24762616759E+02  0.16895908392E+02  0.20413101488E+02  0.36267804204E+02  0.51100000000E-03 0.  1.
         12    1    3    3    0    0 -0.21615870976E+02 -0.23460961949E+01 -0.21292841755E+02  0.30432468770E+02  0.00000000000E+00 0. -1.
</event>
<event>
 7    1  0.1692604E-013  0.7246159E+02  0.7816164E-02  0.1226708E+00
        -11   -1    0    0    0    0  0.00000000000E+00  0.00000000000E+00  0.45593999997E+02  0.45594000000E+02  0.51100000000E-03 0.  1.
         11   -1    0    0    0    0 -0.00000000000E+00 -0.00000000000E+00 -0.45593999997E+02  0.45594000000E+02  0.51100000000E-03 0. -1.
    9900012    2    1    2    0    0 -0.13239156740E+01  0.12785392703E+02  0.13618350546E+02  0.72461588414E+02  0.70000023604E+02 0.  0.
         12    1    1    2    0    0  0.13239156740E+01 -0.12785392703E+02 -0.13618350546E+02  0.18726411586E+02  0.00000000000E+00 0. -1.
         11    1    3    3    0    0 -0.80755976201E+01  0.68649522374E+00 -0.85978749030E+01  0.11815667807E+02  0.51100000000E-03 0. -1.
        -11    1    3    3    0    0 -0.17500515789E+02 -0.94020236138E+01 -0.23115732545E+01  0.20000236801E+02  0.51100000000E-03 0.  1.
        -12    1    3    3    0    0  0.24252197735E+02  0.21500921093E+02  0.24527798704E+02  0.40645683806E+02  0.00000000000E+00 0.  1.
</event>
<event>
 7    1  0.1692604E-013  0.7246160E+02  0.7816164E-02  0.1226708E+00
        -11   -1    0    0    0    0  0.00000000000E+00  0.00000000000E+00  0.45593999997E+02  0.45594000000E+02  0.51100000000E-03 0.  1.
         11   -1    0    0    0    0 -0.00000000000E+00 -0.00000000000E+00 -0.45593999997E+02  0.45594000000E+02  0.51100000000E-03 0. -1.
    9900012    2    1    2    0    0  0.14082490479E+02 -0.96144407258E+01  0.77410701251E+01  0.72461596842E+02  0.70000034583E+02 0.  0.
         12    1    1    2    0    0 -0.14082490479E+02  0.96144407258E+01 -0.77410701251E+01  0.18726403158E+02  0.00000000000E+00 0. -1.
         11    1    3    3    0    0  0.19822060202E+02 -0.54168779614E+01  0.19889738423E+02  0.28598222537E+02  0.51100000000E-03 0.  1.
        -11    1    3    3    0    0  0.42743050446E+01  0.17315341873E+02 -0.16372327605E+01  0.17910088754E+02  0.51100000000E-03 0. -1.
         12    1    3    3    0    0 -0.10013874768E+02 -0.21512904638E+02 -0.10511435537E+02  0.25953285550E+02  0.00000000000E+00 0. -1.
</event>
<event>
 7    1  0.1692604E-013  0.7246135E+02  0.7816164E-02  0.1226709E+00
        -11   -1    0    0    0    0  0.00000000000E+00  0.00000000000E+00  0.45593999997E+02  0.45594000000E+02  0.51100000000E-03 0. -1.
         11   -1    0    0    0    0 -0.00000000000E+00 -0.00000000000E+00 -0.45593999997E+02  0.45594000000E+02  0.51100000000E-03 0.  1.
    9900012    2    1    2    0    0  0.17297353958E+01 -0.11229518471E+02 -0.14886007381E+02  0.72461353600E+02  0.69999717715E+02 0.  0.
         12    1    1    2    0    0 -0.17297353958E+01  0.11229518471E+02  0.14886007381E+02  0.18726646400E+02  0.00000000000E+00 0. -1.
         11    1    3    3    0    0 -0.26647324532E+02 -0.11316329440E+02  0.10830689474E+02  0.30910241854E+02  0.51100000000E-03 0. -1.
        -11    1    3    3    0    0 -0.14808512686E+01 -0.20454274328E+01 -0.94398470396E+00  0.26958859851E+01  0.51100000000E-03 0.  1.
        -12    1    3    3    0    0  0.29857911197E+02  0.21322384016E+01 -0.24772712151E+02  0.38855225761E+02  0.00000000000E+00 0.  1.
</event>
<event>
 7    1  0.1692604E-013  0.7246157E+02  0.7816164E-02  0.1226708E+00
        -11   -1    0    0    0    0  0.00000000000E+00  0.00000000000E+00  0.45593999997E+02  0.45594000000E+02  0.51100000000E-03 0.  1.
         11   -1    0    0    0    0 -0.00000000000E+00 -0.00000000000E+00 -0.45593999997E+02  0.45594000000E+02  0.51100000000E-03 0. -1.
    9900012    2    1    2    0    0 -0.15748931943E+02 -0.13662208341E+01  0.10039106224E+02  0.72461572939E+02  0.70000003445E+02 0.  0.
         12    1    1    2    0    0  0.15748931943E+02  0.13662208341E+01 -0.10039106224E+02  0.18726427061E+02  0.00000000000E+00 0. -1.
         11    1    3    3    0    0  0.20105968938E+02 -0.15239974108E+02  0.10419013362E+02  0.27295835533E+02  0.51100000000E-03 0. -1.
        -11    1    3    3    0    0 -0.18059882617E+01  0.34858211094E+01  0.77170238104E+01  0.86582330276E+01  0.51100000000E-03 0.  1.
        -12    1    3    3    0    0 -0.34048912619E+02  0.10387932165E+02 -0.80969309482E+01  0.36507504379E+02  0.00000000000E+00 0.  1.
</event>
<event>
 7    1  0.1692604E-013  0.7246158E+02  0.7816164E-02  0.1226708E+00
        -11   -1    0    0    0    0  0.00000000000E+00  0.00000000000E+00  0.45593999997E+02  0.45594000000E+02  0.51100000000E-03 0. -1.
         11   -1    0    0    0    0 -0.00000000000E+00 -0.00000000000E+00 -0.45593999997E+02  0.45594000000E+02  0.51100000000E-03 0.  1.
    9900012    2    1    2    0    0  0.14814085680E+02  0.10935994856E+02 -0.34096460562E+01  0.72461580047E+02  0.70000012705E+02 0.  0.
         12    1    1    2    0    0 -0.14814085680E+02 -0.10935994856E+02  0.34096460562E+01  0.18726419953E+02  0.00000000000E+00 0. -1.
         11    1    3    3    0    0  0.13134101713E+02 -0.10687135662E+02  0.15723371619E+02  0.23107226398E+02  0.51100000000E-03 0. -1.
        -11    1    3    3    0    0  0.20140893090E+02  0.88019629082E+01 -0.42230120972E+01  0.22382224128E+02  0.51100000000E-03 0.  1.
         12    1    3    3    0    0 -0.18460909124E+02  0.12821167610E+02 -0.14910005578E+02  0.26972129521E+02  0.00000000000E+00 0. -1.
</event>
<event>
 7    1  0.1692604E-013  0.7246158E+02  0.7816164E-02  0.1226708E+00
        -11   -1    0    0    0    0  0.00000000000E+00  0.00000000000E+00  0.45593999997E+02  0.45594000000E+02  0.51100000000E-03 0. -1.
         11   -1    0    0    0    0 -0.00000000000E+00 -0.00000000000E+00 -0.45593999997E+02  0.45594000000E+02  0.51100000000E-03 0.  1.
    9900012    2    1    2    0    0  0.46719571325E+01 -0.15118897307E+02  0.10013527843E+02  0.72461575379E+02  0.70000006623E+02 0.  0.
         12    1    1    2    0    0 -0.46719571325E+01  0.15118897307E+02 -0.10013527843E+02  0.18726424621E+02  0.00000000000E+00 0. -1.
         11    1    3    3    0    0 -0.19697645286E+02  0.77750236160E+01  0.14910222437E+02  0.25899091787E+02  0.51100000000E-03 0. -1.
        -11    1    3    3    0    0 -0.67474379584E+01 -0.11111638801E+02 -0.21481979353E+01  0.13176159929E+02  0.51100000000E-03 0.  1.
        -12    1    3    3    0    0  0.31117040376E+02 -0.11782282123E+02 -0.27484966590E+01  0.33386323662E+02  0.00000000000E+00 0.  1.
</event>
<event>
 7    1  0.1692604E-013  0.7246154E+02  0.7816164E-02  0.1226708E+00
        -11   -1    0    0    0    0  0.00000000000E+00  0.00000000000E+00  0.45593999997E+02  0.45594000000E+02  0.51100000000E-03 0. -1.
         11   -1    0    0    0    0 -0.00000000000E+00 -0.00000000000E+00 -0.45593999997E+02  0.45594000000E+02  0.51100000000E-03 0.  1.
    9900012    2    1    2    0    0  0.12122709901E+02  0.85784262775E+01  0.11407483168E+02  0.72461543716E+02  0.69999965376E+02 0.  0.
         12    1    1    2    0    0 -0.12122709901E+02 -0.85784262775E+01 -0.11407483168E+02  0.18726456284E+02  0.00000000000E+00 0. -1.
         11    1    3    3    0    0 -0.15673459037E+02  0.44565250612E+00 -0.44522086365E+01  0.16299634546E+02  0.51100000000E-03 0. -1.
        -11    1    3    3    0    0  0.23918887756E+02 -0.39663044436E+01 -0.10866687288E+02  0.26569336749E+02  0.51100000000E-03 0.  1.
         12    1    3    3    0    0  0.38772811823E+01  0.12099078215E+02  0.26726379093E+02  0.29592572420E+02  0.00000000000E+00 0. -1.
</event>
<event>
 7    1  0.1692604E-013  0.7246161E+02  0.7816164E-02  0.1226708E+00
        -11   -1    0    0    0    0  0.00000000000E+00  0.00000000000E+00  0.45593999997E+02  0.45594000000E+02  0.51100000000E-03 0.  1.
         11   -1    0    0    0    0 -0.00000000000E+00 -0.00000000000E+00 -0.45593999997E+02  0.45594000000E+02  0.51100000000E-03 0. -1.
    9900012    2    1    2    0    0 -0.13026168913E+02 -0.13233885308E+02  0.24209095186E+01  0.72461612207E+02  0.70000054599E+02 0.  0.
         12    1    1    2    0    0  0.13026168913E+02  0.13233885308E+02 -0.24209095186E+01  0.18726387793E+02  0.00000000000E+00 0. -1.
         11    1    3    3    0    0 -0.56867319762E+01 -0.41782680518E+00  0.69833254594E+01  0.90155606892E+01  0.51100000000E-03 0. -1.
        -11    1    3    3    0    0 -0.31584426775E+00  0.18939112085E+02  0.16146589672E+02  0.24889798763E+02  0.51100000000E-03 0.  1.
         12    1    3    3    0    0 -0.70235926688E+01 -0.31755170587E+02 -0.20709005613E+02  0.38556252755E+02  0.00000000000E+00 0. -1.
</event>
<event>
 7    1  0.1692604E-013  0.7246148E+02  0.7816164E-02  0.1226708E+00
        -11   -1    0    0    0    0  0.00000000000E+00  0.00000000000E+00  0.45593999997E+02  0.45594000000E+02  0.51100000000E-03 0. -1.
         11   -1    0    0    0    0 -0.00000000000E+00 -0.00000000000E+00 -0.45593999997E+02  0.45594000000E+02  0.51100000000E-03 0.  1.
    9900012    2    1    2    0    0 -0.10777861643E+02  0.26034610167E+01 -0.15091133468E+02  0.72461478160E+02  0.69999879978E+02 0.  0.
         12    1    1    2    0    0  0.10777861643E+02 -0.26034610167E+01  0.15091133468E+02  0.18726521840E+02  0.00000000000E+00 0. -1.
         11    1    3    3    0    0  0.17194616744E+01  0.89413795458E+01 -0.24443219969E+01  0.94275939092E+01  0.51100000000E-03 0. -1.
        -11    1    3    3    0    0 -0.20604339410E+02  0.21037171651E+02 -0.17231495793E+02  0.34117822925E+02  0.51100000000E-03 0.  1.
        -12    1    3    3    0    0  0.81070160920E+01 -0.27375090180E+02  0.45846843219E+01  0.28916061326E+02  0.00000000000E+00 0.  1.
</event>
<event>
 7    1  0.1692604E-013  0.7246178E+02  0.7816164E-02  0.1226707E+00
        -11   -1    0    0    0    0  0.00000000000E+00  0.00000000000E+00  0.45593999997E+02  0.45594000000E+02  0.51100000000E-03 0.  1.
         11   -1    0    0    0    0 -0.00000000000E+00 -0.00000000000E+00 -0.45593999997E+02  0.45594000000E+02  0.51100000000E-03 0. -1.
    9900012    2    1    2    0    0 -0.77285880305E+00 -0.57292721290E+01  0.17811497707E+02  0.72461779868E+02  0.70000273008E+02 0.  0.
         12    1    1    2    0    0  0.77285880305E+00  0.57292721290E+01 -0.17811497707E+02  0.18726220132E+02  0.00000000000E+00 0. -1.
         11    1    3    3    0    0 -0.14551632852E+02 -0.15668113304E+02 -0.46647433398E+01  0.21886060035E+02  0.51100000000E-03 0. -1.
        -11    1    3    3    0    0 -0.77605930424E+01 -0.11778264911E+02  0.11072146659E+02  0.17931724975E+02  0.51100000000E-03 0.  1.
        -12    1    3    3    0    0  0.21539367092E+02  0.21717106086E+02  0.11404094388E+02  0.32643994858E+02  0.00000000000E+00 0.  1.
</event>
<event>
 7    1  0.1692604E-013  0.7246159E+02  0.7816164E-02  0.1226708E+00
        -11   -1    0    0    0    0  0.00000000000E+00  0.00000000000E+00  0.45593999997E+02  0.45594000000E+02  0.51100000000E-03 0.  1.
         11   -1    0    0    0    0 -0.00000000000E+00 -0.00000000000E+00 -0.45593999997E+02  0.45594000000E+02  0.51100000000E-03 0. -1.
    9900012    2    1    2    0    0  0.15193499184E+02 -0.40511195730E+01  0.10169773227E+02  0.72461594185E+02  0.70000031122E+02 0.  0.
         12    1    1    2    0    0 -0.15193499184E+02  0.40511195730E+01 -0.10169773227E+02  0.18726405815E+02  0.00000000000E+00 0. -1.
         11    1    3    3    0    0 -0.20152930449E+02 -0.28771782284E+01  0.19918049330E+02  0.28480650442E+02  0.51100000000E-03 0. -1.
        -11    1    3    3    0    0 -0.23294471048E+01 -0.43778482910E+01 -0.21899851255E+01  0.54210621270E+01  0.51100000000E-03 0.  1.
        -12    1    3    3    0    0  0.37675876738E+02  0.32039069464E+01 -0.75582909776E+01  0.38559881616E+02  0.00000000000E+00 0.  1.
</event>
<event>
 7    1  0.1692604E-013  0.7246154E+02  0.7816164E-02  0.1226708E+00
        -11   -1    0    0    0    0  0.00000000000E+00  0.00000000000E+00  0.45593999997E+02  0.45594000000E+02  0.51100000000E-03 0.  1.
         11   -1    0    0    0    0 -0.00000000000E+00 -0.00000000000E+00 -0.45593999997E+02  0.45594000000E+02  0.51100000000E-03 0. -1.
    9900012    2    1    2    0    0 -0.16558671529E+02 -0.43588048766E+01  0.75823184490E+01  0.72461539154E+02  0.69999959433E+02 0.  0.
         12    1    1    2    0    0  0.16558671529E+02  0.43588048766E+01 -0.75823184490E+01  0.18726460846E+02  0.00000000000E+00 0. -1.
         11    1    3    3    0    0  0.31216483109E+01  0.44496303901E+01  0.11808680478E+02  0.12999570519E+02  0.51100000000E-03 0. -1.
        -11    1    3    3    0    0 -0.13245371188E+02  0.23155568190E+02 -0.96030149114E+00  0.26693489381E+02  0.51100000000E-03 0.  1.
         12    1    3    3    0    0 -0.64349486526E+01 -0.31964003457E+02 -0.32660605382E+01  0.32768479254E+02  0.00000000000E+00 0. -1.
</event>
<event>
 7    1  0.1692604E-013  0.7246157E+02  0.7816164E-02  0.1226708E+00
        -11   -1    0    0    0    0  0.00000000000E+00  0.00000000000E+00  0.45593999997E+02  0.45594000000E+02  0.51100000000E-03 0.  1.
         11   -1    0    0    0    0 -0.00000000000E+00 -0.00000000000E+00 -0.45593999997E+02  0.45594000000E+02  0.51100000000E-03 0. -1.
    9900012    2    1    2    0    0 -0.13174559818E+02 -0.53831506898E+01 -0.12170941681E+02  0.72461570571E+02  0.70000000361E+02 0.  0.
         12    1    1    2    0    0  0.13174559818E+02  0.53831506898E+01  0.12170941681E+02  0.18726429429E+02  0.00000000000E+00 0. -1.
         11    1    3    3    0    0  0.22894721634E+01 -0.83033463710E+01  0.32538232234E+01  0.92073128313E+01  0.51100000000E-03 0. -1.
        -11    1    3    3    0    0  0.13735342106E+02 -0.19900563117E+02 -0.42870677133E+01  0.24557503639E+02  0.51100000000E-03 0.  1.
        -12    1    3    3    0    0 -0.29199374087E+02  0.22820758799E+02 -0.11137697191E+02  0.38696754101E+02  0.00000000000E+00 0.  1.
</event>
<event>
 7    1  0.1692604E-013  0.7246158E+02  0.7816164E-02  0.1226708E+00
        -11   -1    0    0    0    0  0.00000000000E+00  0.00000000000E+00  0.45593999997E+02  0.45594000000E+02  0.51100000000E-03 0. -1.
         11   -1    0    0    0    0 -0.00000000000E+00 -0.00000000000E+00 -0.45593999997E+02  0.45594000000E+02  0.51100000000E-03 0.  1.
    9900012    2    1    2    0    0 -0.11298242674E+02 -0.14140005440E+02 -0.48050954728E+01  0.72461575251E+02  0.70000006457E+02 0.  0.
         12    1    1    2    0    0  0.11298242674E+02  0.14140005440E+02  0.48050954728E+01  0.18726424749E+02  0.00000000000E+00 0. -1.
         11    1    3    3    0    0 -0.59429190807E+00  0.16156628596E+01  0.93233002900E+01  0.94809006907E+01  0.51100000000E-03 0. -1.
        -11    1    3    3    0    0  0.13680317633E+02 -0.78058392331E+01 -0.29240006941E+02  0.33212350456E+02  0.51100000000E-03 0.  1.
         12    1    3    3    0    0 -0.24384268400E+02 -0.79498290667E+01  0.15111611178E+02  0.29768324104E+02  0.00000000000E+00 0. -1.
</event>
<event>
 7    1  0.1692604E-013  0.7246157E+02  0.7816164E-02  0.1226708E+00
        -11   -1    0    0    0    0  0.00000000000E+00  0.00000000000E+00  0.45593999997E+02  0.45594000000E+02  0.51100000000E-03 0.  1.
         11   -1    0    0    0    0 -0.00000000000E+00 -0.00000000000E+00 -0.45593999997E+02  0.45594000000E+02  0.51100000000E-03 0. -1.
    9900012    2    1    2    0    0 -0.14443781565E+02 -0.14017833579E+01  0.11836014679E+02  0.72461573059E+02  0.70000003601E+02 0.  0.
         12    1    1    2    0    0  0.14443781565E+02  0.14017833579E+01 -0.11836014679E+02  0.18726426941E+02  0.00000000000E+00 0. -1.
         11    1    3    3    0    0  0.13878434250E+02  0.24303088194E+02  0.52980638722E+01  0.28483688561E+02  0.51100000000E-03 0. -1.
        -11    1    3    3    0    0 -0.58467204706E+00  0.32863137995E+01  0.83328784250E-01  0.33389584812E+01  0.51100000000E-03 0.  1.
        -12    1    3    3    0    0 -0.27737543768E+02 -0.28991185351E+02  0.64546220227E+01  0.40638926017E+02  0.00000000000E+00 0.  1.
</event>
<event>
 7    1  0.1692604E-013  0.7246155E+02  0.7816164E-02  0.1226708E+00
        -11   -1    0    0    0    0  0.00000000000E+00  0.00000000000E+00  0.45593999997E+02  0.45594000000E+02  0.51100000000E-03 0. -1.
         11   -1    0    0    0    0 -0.00000000000E+00 -0.00000000000E+00 -0.45593999997E+02  0.45594000000E+02  0.51100000000E-03 0.  1.
    9900012    2    1    2    0    0 -0.13007873927E+02 -0.83707192014E+01 -0.10554918648E+02  0.72461547274E+02  0.69999970011E+02 0.  0.
         12    1    1    2    0    0  0.13007873927E+02  0.83707192014E+01  0.10554918648E+02  0.18726452726E+02  0.00000000000E+00 0. -1.
         11    1    3    3    0    0 -0.42539804833E+01  0.25672036184E+01 -0.19287823300E+02  0.19917505172E+02  0.51100000000E-03 0. -1.
        -11    1    3    3    0    0 -0.25462017340E+02 -0.16300263908E+02 -0.45006373279E+01  0.30565808792E+02  0.51100000000E-03 0.  1.
         12    1    3    3    0    0  0.16708123897E+02  0.53623410879E+01  0.13233541980E+02  0.21978233310E+02  0.00000000000E+00 0. -1.
</event>
<event>
 7    1  0.1692604E-013  0.7246158E+02  0.7816164E-02  0.1226708E+00
        -11   -1    0    0    0    0  0.00000000000E+00  0.00000000000E+00  0.45593999997E+02  0.45594000000E+02  0.51100000000E-03 0.  1.
         11   -1    0    0    0    0 -0.00000000000E+00 -0.00000000000E+00 -0.45593999997E+02  0.45594000000E+02  0.51100000000E-03 0. -1.
    9900012    2    1    2    0    0 -0.14140499368E+02  0.12091550061E+02  0.21258768605E+01  0.72461583961E+02  0.70000017803E+02 0.  0.
         12    1    1    2    0    0  0.14140499368E+02 -0.12091550061E+02 -0.21258768605E+01  0.18726416039E+02  0.00000000000E+00 0. -1.
         11    1    3    3    0    0 -0.67544934419E+00  0.23800077487E+02  0.64827049225E+01  0.24676413507E+02  0.51100000000E-03 0. -1.
        -11    1    3    3    0    0 -0.18263617457E+02  0.20957449144E+00  0.15620305219E+02  0.24033259860E+02  0.51100000000E-03 0.  1.
         12    1    3    3    0    0  0.47985674336E+01 -0.11918101917E+02 -0.19977133281E+02  0.23751910594E+02  0.00000000000E+00 0. -1.
</event>
<event>
 7    1  0.1692604E-013  0.7246174E+02  0.7816164E-02  0.1226708E+00
        -11   -1    0    0    0    0  0.00000000000E+00  0.00000000000E+00  0.45593999997E+02  0.45594000000E+02  0.51100000000E-03 0.  1.
         11   -1    0    0    0    0 -0.00000000000E+00 -0.00000000000E+00 -0.45593999997E+02  0.45594000000E+02  0.51100000000E-03 0. -1.
    9900012    2    1    2    0    0  0.83039323307E+01 -0.15271979805E+02  0.69630455601E+01  0.72461744027E+02  0.70000226318E+02 0.  0.
         12    1    1    2    0    0 -0.83039323307E+01  0.15271979805E+02 -0.69630455601E+01  0.18726255973E+02  0.00000000000E+00 0. -1.
         11    1    3    3    0    0  0.47907466253E+01 -0.84019973760E+01  0.64244899599E+01  0.11611153459E+02  0.51100000000E-03 0. -1.
        -11    1    3    3    0    0  0.14925995685E+02 -0.26449955439E+02  0.15094899398E+02  0.33915210128E+02  0.51100000000E-03 0.  1.
         12    1    3    3    0    0 -0.11412809979E+02  0.19579973010E+02 -0.14556343798E+02  0.26935380440E+02  0.00000000000E+00 0. -1.
</event>
<event>
 7    1  0.1692604E-013  0.7246156E+02  0.7816164E-02  0.1226708E+00
        -11   -1    0    0    0    0  0.00000000000E+00  0.00000000000E+00  0.45593999997E+02  0.45594000000E+02  0.51100000000E-03 0.  1.
         11   -1    0    0    0    0 -0.00000000000E+00 -0.00000000000E+00 -0.45593999997E+02  0.45594000000E+02  0.51100000000E-03 0. -1.
    9900012    2    1    2    0    0 -0.12366663403E+02  0.15177933681E+01  0.13980042579E+02  0.72461557440E+02  0.69999983255E+02 0.  0.
         12    1    1    2    0    0  0.12366663403E+02 -0.15177933681E+01 -0.13980042579E+02  0.18726442560E+02  0.00000000000E+00 0. -1.
         11    1    3    3    0    0  0.92419356429E+00  0.87387170074E+00  0.44258014881E+01  0.46049434922E+01  0.51100000000E-03 0. -1.
        -11    1    3    3    0    0 -0.29490595099E+02  0.22592229223E+02  0.14956614956E+02  0.40047526163E+02  0.51100000000E-03 0.  1.
         12    1    3    3    0    0  0.16199738131E+02 -0.21948307555E+02 -0.54023738651E+01  0.27809087785E+02  0.00000000000E+00 0. -1.
</event>
<event>
 7    1  0.1692604E-013  0.7246159E+02  0.7816164E-02  0.1226708E+00
        -11   -1    0    0    0    0  0.00000000000E+00  0.00000000000E+00  0.45593999997E+02  0.45594000000E+02  0.51100000000E-03 0. -1.
         11   -1    0    0    0    0 -0.00000000000E+00 -0.00000000000E+00 -0.45593999997E+02  0.45594000000E+02  0.51100000000E-03 0.  1.
    9900012    2    1    2    0    0 -0.10199401791E+02 -0.15188567049E+02 -0.39947557642E+01  0.72461589785E+02  0.70000025391E+02 0.  0.
         12    1    1    2    0    0  0.10199401791E+02  0.15188567049E+02  0.39947557642E+01  0.18726410215E+02  0.00000000000E+00 0. -1.
         11    1    3    3    0    0 -0.10026282438E+02 -0.70436608384E+01 -0.89110860689E+01  0.15150806999E+02  0.51100000000E-03 0. -1.
        -11    1    3    3    0    0  0.18273888648E+02  0.17636782846E+02  0.19939472393E+01  0.25474829564E+02  0.51100000000E-03 0.  1.
         12    1    3    3    0    0 -0.18447008001E+02 -0.25781689057E+02  0.29223830654E+01  0.31835953222E+02  0.00000000000E+00 0. -1.
</event>
<event>
 7    1  0.1692604E-013  0.7246143E+02  0.7816164E-02  0.1226708E+00
        -11   -1    0    0    0    0  0.00000000000E+00  0.00000000000E+00  0.45593999997E+02  0.45594000000E+02  0.51100000000E-03 0. -1.
         11   -1    0    0    0    0 -0.00000000000E+00 -0.00000000000E+00 -0.45593999997E+02  0.45594000000E+02  0.51100000000E-03 0.  1.
    9900012    2    1    2    0    0 -0.27340181954E+01  0.17631580734E+01 -0.18441820187E+02  0.72461432944E+02  0.69999821076E+02 0.  0.
         12    1    1    2    0    0  0.27340181954E+01 -0.17631580734E+01  0.18441820187E+02  0.18726567056E+02  0.00000000000E+00 0. -1.
         11    1    3    3    0    0 -0.25024872185E+01 -0.42510249727E+01  0.30923028155E+00  0.49425984285E+01  0.51100000000E-03 0. -1.
        -11    1    3    3    0    0 -0.17959711479E+02  0.27287813064E+02  0.22780978022E+01  0.32746995406E+02  0.51100000000E-03 0.  1.
         12    1    3    3    0    0  0.17728180502E+02 -0.21273630018E+02 -0.21029148271E+02  0.34771839110E+02  0.00000000000E+00 0. -1.
</event>
<event>
 7    1  0.1692604E-013  0.7246157E+02  0.7816164E-02  0.1226708E+00
        -11   -1    0    0    0    0  0.00000000000E+00  0.00000000000E+00  0.45593999997E+02  0.45594000000E+02  0.51100000000E-03 0.  1.
         11   -1    0    0    0    0 -0.00000000000E+00 -0.00000000000E+00 -0.45593999997E+02  0.45594000000E+02  0.51100000000E-03 0. -1.
    9900012    2    1    2    0    0 -0.59625888047E+01 -0.15105398289E+02 -0.93248851980E+01  0.72461574642E+02  0.70000005664E+02 0.  0.
         12    1    1    2    0    0  0.59625888047E+01  0.15105398289E+02  0.93248851980E+01  0.18726425358E+02  0.00000000000E+00 0. -1.
         11    1    3    3    0    0 -0.14745179731E+01 -0.22025928862E+01  0.14491346004E+02  0.14731759160E+02  0.51100000000E-03 0. -1.
        -11    1    3    3    0    0 -0.16126752604E+02 -0.18292471779E+02  0.61365397609E+01  0.25146446942E+02  0.51100000000E-03 0.  1.
         12    1    3    3    0    0  0.11638681773E+02  0.53896663756E+01 -0.29952770963E+02  0.32583368540E+02  0.00000000000E+00 0. -1.
</event>
<event>
 7    1  0.1692604E-013  0.7246140E+02  0.7816164E-02  0.1226708E+00
        -11   -1    0    0    0    0  0.00000000000E+00  0.00000000000E+00  0.45593999997E+02  0.45594000000E+02  0.51100000000E-03 0.  1.
         11   -1    0    0    0    0 -0.00000000000E+00 -0.00000000000E+00 -0.45593999997E+02  0.45594000000E+02  0.51100000000E-03 0. -1.
    9900012    2    1    2    0    0  0.46789114078E+01  0.42771785261E+01  0.17620989195E+02  0.72461395174E+02  0.69999771873E+02 0.  0.
         12    1    1    2    0    0 -0.46789114078E+01 -0.42771785261E+01 -0.17620989195E+02  0.18726604826E+02  0.00000000000E+00 0. -1.
         11    1    3    3    0    0 -0.54565914524E+01  0.15701937721E+02 -0.11922373345E+02  0.20456495910E+02  0.51100000000E-03 0. -1.
        -11    1    3    3    0    0 -0.12056314888E+02  0.61984462463E+01  0.14765857675E+02  0.20045099593E+02  0.51100000000E-03 0.  1.
         12    1    3    3    0    0  0.22191817748E+02 -0.17623205441E+02  0.14777504865E+02  0.31959799671E+02  0.00000000000E+00 0. -1.
</event>
<event>
 7    1  0.1692604E-013  0.7246183E+02  0.7816164E-02  0.1226707E+00
        -11   -1    0    0    0    0  0.00000000000E+00  0.00000000000E+00  0.45593999997E+02  0.45594000000E+02  0.51100000000E-03 0.  1.
         11   -1    0    0    0    0 -0.00000000000E+00 -0.00000000000E+00 -0.45593999997E+02  0.45594000000E+02  0.51100000000E-03 0. -1.
    9900012    2    1    2    0    0 -0.13556567130E+02  0.58123723398E+01  0.11537132766E+02  0.72461825350E+02  0.70000332256E+02 0.  0.
         12    1    1    2    0    0  0.13556567130E+02 -0.58123723398E+01 -0.11537132766E+02  0.18726174650E+02  0.00000000000E+00 0. -1.
         11    1    3    3    0    0 -0.84815053658E+01  0.56517310028E+01  0.30961989588E+02  0.32596361701E+02  0.51100000000E-03 0. -1.
        -11    1    3    3    0    0 -0.59569690077E+01  0.15873114132E+02 -0.31834838670E+01  0.17250385555E+02  0.51100000000E-03 0.  1.
         12    1    3    3    0    0  0.88190724383E+00 -0.15712472795E+02 -0.16241372955E+02  0.22615078094E+02  0.00000000000E+00 0. -1.
</event>
<event>
 7    1  0.1692604E-013  0.7246166E+02  0.7816164E-02  0.1226708E+00
        -11   -1    0    0    0    0  0.00000000000E+00  0.00000000000E+00  0.45593999997E+02  0.45594000000E+02  0.51100000000E-03 0. -1.
         11   -1    0    0    0    0 -0.00000000000E+00 -0.00000000000E+00 -0.45593999997E+02  0.45594000000E+02  0.51100000000E-03 0.  1.
    9900012    2    1    2    0    0  0.17245325745E+02  0.35136441122E+01 -0.63975679068E+01  0.72461659457E+02  0.70000116151E+02 0.  0.
         12    1    1    2    0    0 -0.17245325745E+02 -0.35136441122E+01  0.63975679068E+01  0.18726340543E+02  0.00000000000E+00 0. -1.
         11    1    3    3    0    0 -0.20851876653E+02 -0.54193638224E+01  0.96793611137E+01  0.23619066367E+02  0.51100000000E-03 0. -1.
        -11    1    3    3    0    0  0.19471390313E+01  0.91037289451E+01 -0.67769476488E+01  0.11515044542E+02  0.51100000000E-03 0.  1.
        -12    1    3    3    0    0  0.36150063367E+02 -0.17072101039E+00 -0.92999813716E+01  0.37327548548E+02  0.00000000000E+00 0.  1.
</event>
<event>
 7    1  0.1692604E-013  0.7246163E+02  0.7816164E-02  0.1226708E+00
        -11   -1    0    0    0    0  0.00000000000E+00  0.00000000000E+00  0.45593999997E+02  0.45594000000E+02  0.51100000000E-03 0.  1.
         11   -1    0    0    0    0 -0.00000000000E+00 -0.00000000000E+00 -0.45593999997E+02  0.45594000000E+02  0.51100000000E-03 0. -1.
    9900012    2    1    2    0    0 -0.16864045048E+02  0.40396882542E+01 -0.70683627147E+01  0.72461632279E+02  0.70000080746E+02 0.  0.
         12    1    1    2    0    0  0.16864045048E+02 -0.40396882542E+01  0.70683627147E+01  0.18726367721E+02  0.00000000000E+00 0. -1.
         11    1    3    3    0    0 -0.17778090280E+01 -0.15882889323E+02 -0.27623386336E+02  0.31913606050E+02  0.51100000000E-03 0. -1.
        -11    1    3    3    0    0 -0.12384337784E+01 -0.55860975069E+01  0.50999049475E+01  0.76646744428E+01  0.51100000000E-03 0.  1.
        -12    1    3    3    0    0 -0.13847802241E+02  0.25508675084E+02  0.15455118673E+02  0.32883351786E+02  0.00000000000E+00 0.  1.
</event>
<event>
 7    1  0.1692604E-013  0.7246152E+02  0.7816164E-02  0.1226708E+00
        -11   -1    0    0    0    0  0.00000000000E+00  0.00000000000E+00  0.45593999997E+02  0.45594000000E+02  0.51100000000E-03 0.  1.
         11   -1    0    0    0    0 -0.00000000000E+00 -0.00000000000E+00 -0.45593999997E+02  0.45594000000E+02  0.51100000000E-03 0. -1.
    9900012    2    1    2    0    0 -0.17665876732E+02  0.36562208589E+01  0.50229264624E+01  0.72461522971E+02  0.69999938353E+02 0.  0.
         12    1    1    2    0    0  0.17665876732E+02 -0.36562208589E+01 -0.50229264624E+01  0.18726477029E+02  0.00000000000E+00 0. -1.
         11    1    3    3    0    0  0.35371986669E+01 -0.56064710464E+01 -0.64337753490E+00  0.66601972131E+01  0.51100000000E-03 0.  1.
        -11    1    3    3    0    0  0.11899640133E+02  0.25539255664E+02  0.64534008833E+01  0.28905041055E+02  0.51100000000E-03 0. -1.
        -12    1    3    3    0    0 -0.33102715532E+02 -0.16276563759E+02 -0.78709688599E+00  0.36896284703E+02  0.00000000000E+00 0.  1.
</event>
<event>
 7    1  0.1692604E-013  0.7246177E+02  0.7816164E-02  0.1226707E+00
        -11   -1    0    0    0    0  0.00000000000E+00  0.00000000000E+00  0.45593999997E+02  0.45594000000E+02  0.51100000000E-03 0.  1.
         11   -1    0    0    0    0 -0.00000000000E+00 -0.00000000000E+00 -0.45593999997E+02  0.45594000000E+02  0.51100000000E-03 0. -1.
    9900012    2    1    2    0    0 -0.15903058193E+02  0.70149191554E+01  0.69681713978E+01  0.72461768043E+02  0.70000257605E+02 0.  0.
         12    1    1    2    0    0  0.15903058193E+02 -0.70149191554E+01 -0.69681713978E+01  0.18726231957E+02  0.00000000000E+00 0. -1.
         11    1    3    3    0    0 -0.97319391820E+01 -0.60255376003E+01 -0.97228992145E+01  0.15018405808E+02  0.51100000000E-03 0. -1.
        -11    1    3    3    0    0 -0.29142891435E+02  0.67095946438E+01  0.15256278670E+02  0.33572024375E+02  0.51100000000E-03 0.  1.
        -12    1    3    3    0    0  0.22971772424E+02  0.63308621118E+01  0.14347919420E+01  0.23871337861E+02  0.00000000000E+00 0.  1.
</event>
<event>
 7    1  0.1692604E-013  0.7246156E+02  0.7816164E-02  0.1226708E+00
        -11   -1    0    0    0    0  0.00000000000E+00  0.00000000000E+00  0.45593999997E+02  0.45594000000E+02  0.51100000000E-03 0.  1.
         11   -1    0    0    0    0 -0.00000000000E+00 -0.00000000000E+00 -0.45593999997E+02  0.45594000000E+02  0.51100000000E-03 0. -1.
    9900012    2    1    2    0    0  0.82068746638E+01  0.70961881417E+01  0.15263385415E+02  0.72461558474E+02  0.69999984602E+02 0.  0.
         12    1    1    2    0    0 -0.82068746638E+01 -0.70961881417E+01 -0.15263385415E+02  0.18726441526E+02  0.00000000000E+00 0. -1.
         11    1    3    3    0    0  0.25693474494E+02  0.24270794556E+01  0.13674409599E+01  0.25844056208E+02  0.51100000000E-03 0. -1.
        -11    1    3    3    0    0  0.20575355516E+01  0.44892765109E+01  0.24078108330E+02  0.24579307499E+02  0.51100000000E-03 0.  1.
        -12    1    3    3    0    0 -0.19544135381E+02  0.17983217525E+00 -0.10182163875E+02  0.22038194767E+02  0.00000000000E+00 0.  1.
</event>
<event>
 7    1  0.1692604E-013  0.7246163E+02  0.7816164E-02  0.1226708E+00
        -11   -1    0    0    0    0  0.00000000000E+00  0.00000000000E+00  0.45593999997E+02  0.45594000000E+02  0.51100000000E-03 0.  1.
         11   -1    0    0    0    0 -0.00000000000E+00 -0.00000000000E+00 -0.45593999997E+02  0.45594000000E+02  0.51100000000E-03 0. -1.
    9900012    2    1    2    0    0  0.82866993965E+01  0.16644163666E+02  0.22314599913E+01  0.72461628629E+02  0.70000075992E+02 0.  0.
         12    1    1    2    0    0 -0.82866993965E+01 -0.16644163666E+02 -0.22314599913E+01  0.18726371371E+02  0.00000000000E+00 0. -1.
         11    1    3    3    0    0 -0.20267514249E+02  0.10140412317E+02 -0.50750081014E+01  0.23224035034E+02  0.51100000000E-03 0.  1.
        -11    1    3    3    0    0  0.24777527180E+02  0.91394149245E+01  0.21664812070E+02  0.34158730079E+02  0.51100000000E-03 0. -1.
         12    1    3    3    0    0  0.37766864653E+01 -0.26356635753E+01 -0.14358343978E+02  0.15078863516E+02  0.00000000000E+00 0. -1.
</event>
<event>
 7    1  0.1692604E-013  0.7246155E+02  0.7816164E-02  0.1226708E+00
        -11   -1    0    0    0    0  0.00000000000E+00  0.00000000000E+00  0.45593999997E+02  0.45594000000E+02  0.51100000000E-03 0.  1.
         11   -1    0    0    0    0 -0.00000000000E+00 -0.00000000000E+00 -0.45593999997E+02  0.45594000000E+02  0.51100000000E-03 0. -1.
    9900012    2    1    2    0    0 -0.94021041352E+01  0.15964999673E+02 -0.27201367282E+01  0.72461550242E+02  0.69999973878E+02 0.  0.
         12    1    1    2    0    0  0.94021041352E+01 -0.15964999673E+02  0.27201367282E+01  0.18726449758E+02  0.00000000000E+00 0. -1.
         11    1    3    3    0    0  0.47761324860E+01 -0.15466415558E+02  0.14661961833E+02  0.21840205512E+02  0.51100000000E-03 0.  1.
        -11    1    3    3    0    0  0.82121510520E+01  0.14925702417E+01 -0.90642831228E+01  0.12321867538E+02  0.51100000000E-03 0. -1.
        -12    1    3    3    0    0 -0.22390387673E+02  0.29938844990E+02 -0.83178154387E+01  0.38299477192E+02  0.00000000000E+00 0.  1.
</event>
<event>
 7    1  0.1692604E-013  0.7246150E+02  0.7816164E-02  0.1226708E+00
        -11   -1    0    0    0    0  0.00000000000E+00  0.00000000000E+00  0.45593999997E+02  0.45594000000E+02  0.51100000000E-03 0.  1.
         11   -1    0    0    0    0 -0.00000000000E+00 -0.00000000000E+00 -0.45593999997E+02  0.45594000000E+02  0.51100000000E-03 0. -1.
    9900012    2    1    2    0    0  0.39777414503E+01  0.18288611400E+02 -0.62125898806E+00  0.72461502818E+02  0.69999912099E+02 0.  0.
         12    1    1    2    0    0 -0.39777414503E+01 -0.18288611400E+02  0.62125898806E+00  0.18726497182E+02  0.00000000000E+00 0. -1.
         11    1    3    3    0    0  0.85403555792E+00 -0.14071132163E+02 -0.13658383386E+01  0.14163038223E+02  0.51100000000E-03 0. -1.
        -11    1    3    3    0    0 -0.21508825364E+02  0.82363996241E+01  0.49729915973E+01  0.23562650382E+02  0.51100000000E-03 0.  1.
         12    1    3    3    0    0  0.24632531257E+02  0.24123343939E+02 -0.42284122467E+01  0.34735814213E+02  0.00000000000E+00 0. -1.
</event>
<event>
 7    1  0.1692604E-013  0.7246157E+02  0.7816164E-02  0.1226708E+00
        -11   -1    0    0    0    0  0.00000000000E+00  0.00000000000E+00  0.45593999997E+02  0.45594000000E+02  0.51100000000E-03 0.  1.
         11   -1    0    0    0    0 -0.00000000000E+00 -0.00000000000E+00 -0.45593999997E+02  0.45594000000E+02  0.51100000000E-03 0. -1.
    9900012    2    1    2    0    0 -0.89615611843E+01  0.16092663675E+02 -0.33757897882E+01  0.72461565216E+02  0.69999993384E+02 0.  0.
         12    1    1    2    0    0  0.89615611843E+01 -0.16092663675E+02  0.33757897882E+01  0.18726434784E+02  0.00000000000E+00 0. -1.
         11    1    3    3    0    0 -0.27866818059E+01  0.14109266435E+02 -0.20850438470E+02  0.25329385691E+02  0.51100000000E-03 0. -1.
        -11    1    3    3    0    0  0.76545720725E+01  0.16766235340E+02  0.19446724531E+02  0.26793174808E+02  0.51100000000E-03 0.  1.
         12    1    3    3    0    0 -0.13829451451E+02 -0.14782838100E+02 -0.19720758491E+01  0.20339004717E+02  0.00000000000E+00 0. -1.
</event>
<event>
 7    1  0.1692604E-013  0.7246157E+02  0.7816164E-02  0.1226708E+00
        -11   -1    0    0    0    0  0.00000000000E+00  0.00000000000E+00  0.45593999997E+02  0.45594000000E+02  0.51100000000E-03 0.  1.
         11   -1    0    0    0    0 -0.00000000000E+00 -0.00000000000E+00 -0.45593999997E+02  0.45594000000E+02  0.51100000000E-03 0. -1.
    9900012    2    1    2    0    0 -0.10747454629E+02  0.14880452500E+02 -0.37072325801E+01  0.72461568919E+02  0.69999998209E+02 0.  0.
         12    1    1    2    0    0  0.10747454629E+02 -0.14880452500E+02  0.37072325801E+01  0.18726431081E+02  0.00000000000E+00 0. -1.
         11    1    3    3    0    0 -0.66816725726E+01 -0.82277920590E+01 -0.14538886293E+02  0.17992235143E+02  0.51100000000E-03 0. -1.
        -11    1    3    3    0    0 -0.12050566777E+01  0.32523517468E+02 -0.77384294798E+01  0.33453170868E+02  0.51100000000E-03 0.  1.
         12    1    3    3    0    0 -0.28607253790E+01 -0.94152729082E+01  0.18570083192E+02  0.21016162908E+02  0.00000000000E+00 0. -1.
</event>
<event>
 7    1  0.1692604E-013  0.7246159E+02  0.7816164E-02  0.1226708E+00
        -11   -1    0    0    0    0  0.00000000000E+00  0.00000000000E+00  0.45593999997E+02  0.45594000000E+02  0.51100000000E-03 0.  1.
         11   -1    0    0    0    0 -0.00000000000E+00 -0.00000000000E+00 -0.45593999997E+02  0.45594000000E+02  0.51100000000E-03 0. -1.
    9900012    2    1    2    0    0 -0.81239414857E+01  0.11280204333E+02  0.12547389737E+02  0.72461590193E+02  0.70000025921E+02 0.  0.
         12    1    1    2    0    0  0.81239414857E+01 -0.11280204333E+02 -0.12547389737E+02  0.18726409807E+02  0.00000000000E+00 0. -1.
         11    1    3    3    0    0  0.19867892206E+02  0.15182366426E+02 -0.42885548470E+01  0.25369846155E+02  0.51100000000E-03 0. -1.
        -11    1    3    3    0    0 -0.22683654343E+01  0.36870755888E+01 -0.89153659599E+01  0.99107900089E+01  0.51100000000E-03 0.  1.
        -12    1    3    3    0    0 -0.25723468257E+02 -0.75892376820E+01  0.25751310544E+02  0.37180954029E+02  0.00000000000E+00 0.  1.
</event>
<event>
 7    1  0.1692604E-013  0.7246154E+02  0.7816164E-02  0.1226708E+00
        -11   -1    0    0    0    0  0.00000000000E+00  0.00000000000E+00  0.45593999997E+02  0.45594000000E+02  0.51100000000E-03 0.  1.
         11   -1    0    0    0    0 -0.00000000000E+00 -0.00000000000E+00 -0.45593999997E+02  0.45594000000E+02  0.51100000000E-03 0. -1.
    9900012    2    1    2    0    0 -0.31454955743E+01  0.11725406556E+02  0.14258360623E+02  0.72461544143E+02  0.69999965933E+02 0.  0.
         12    1    1    2    0    0  0.31454955743E+01 -0.11725406556E+02 -0.14258360623E+02  0.18726455857E+02  0.00000000000E+00 0. -1.
         11    1    3    3    0    0 -0.18568075059E+02 -0.36090576507E+01 -0.78718173873E+01  0.20488148227E+02  0.51100000000E-03 0. -1.
        -11    1    3    3    0    0 -0.82415266629E+01 -0.22094397759E+00 -0.73859779679E+01  0.11069067205E+02  0.51100000000E-03 0.  1.
        -12    1    3    3    0    0  0.23664106148E+02  0.15555408184E+02  0.29516155978E+02  0.40904328711E+02  0.00000000000E+00 0.  1.
</event>
<event>
 7    1  0.1692604E-013  0.7246145E+02  0.7816164E-02  0.1226708E+00
        -11   -1    0    0    0    0  0.00000000000E+00  0.00000000000E+00  0.45593999997E+02  0.45594000000E+02  0.51100000000E-03 0.  1.
         11   -1    0    0    0    0 -0.00000000000E+00 -0.00000000000E+00 -0.45593999997E+02  0.45594000000E+02  0.51100000000E-03 0. -1.
    9900012    2    1    2    0    0 -0.13999901419E+01  0.13607511378E+02  0.12789029036E+02  0.72461451947E+02  0.69999845830E+02 0.  0.
         12    1    1    2    0    0  0.13999901419E+01 -0.13607511378E+02 -0.12789029036E+02  0.18726548053E+02  0.00000000000E+00 0. -1.
         11    1    3    3    0    0  0.65144900900E+01 -0.28855120339E+01 -0.63250354498E+01  0.95273729082E+01  0.51100000000E-03 0. -1.
        -11    1    3    3    0    0 -0.26734822896E+02  0.19037662578E+02 -0.39498061464E+01  0.33057288464E+02  0.51100000000E-03 0.  1.
         12    1    3    3    0    0  0.18820342665E+02 -0.25446391662E+01  0.23063870632E+02  0.29876790575E+02  0.00000000000E+00 0. -1.
</event>
<event>
 7    1  0.1692604E-013  0.7246162E+02  0.7816164E-02  0.1226708E+00
        -11   -1    0    0    0    0  0.00000000000E+00  0.00000000000E+00  0.45593999997E+02  0.45594000000E+02  0.51100000000E-03 0. -1.
         11   -1    0    0    0    0 -0.00000000000E+00 -0.00000000000E+00 -0.45593999997E+02  0.45594000000E+02  0.51100000000E-03 0.  1.
    9900012    2    1    2    0    0  0.68570989568E+01 -0.98419740551E+01 -0.14380299810E+02  0.72461620691E+02  0.70000065650E+02 0.  0.
         12    1    1    2    0    0 -0.68570989568E+01  0.98419740551E+01  0.14380299810E+02  0.18726379309E+02  0.00000000000E+00 0. -1.
         11    1    3    3    0    0  0.94284578911E+01  0.22031567280E+02 -0.24784657952E+01  0.24092085172E+02  0.51100000000E-03 0. -1.
        -11    1    3    3    0    0 -0.11788822948E+02 -0.51915870954E+01 -0.15227541099E+02  0.19945097925E+02  0.51100000000E-03 0.  1.
        -12    1    3    3    0    0  0.92174640139E+01 -0.26681954239E+02  0.33257070836E+01  0.28424437593E+02  0.00000000000E+00 0.  1.
</event>
<event>
 7    1  0.1692604E-013  0.7246154E+02  0.7816164E-02  0.1226708E+00
        -11   -1    0    0    0    0  0.00000000000E+00  0.00000000000E+00  0.45593999997E+02  0.45594000000E+02  0.51100000000E-03 0.  1.
         11   -1    0    0    0    0 -0.00000000000E+00 -0.00000000000E+00 -0.45593999997E+02  0.45594000000E+02  0.51100000000E-03 0. -1.
    9900012    2    1    2    0    0  0.60176924389E+01  0.15659410653E+02  0.83216815772E+01  0.72461544154E+02  0.69999965947E+02 0.  0.
         12    1    1    2    0    0 -0.60176924389E+01 -0.15659410653E+02 -0.83216815772E+01  0.18726455846E+02  0.00000000000E+00 0. -1.
         11    1    3    3    0    0 -0.21471516164E+02  0.87661427155E+01 -0.49744443569E+01  0.23719535438E+02  0.51100000000E-03 0. -1.
        -11    1    3    3    0    0 -0.61641649137E+01  0.47638965403E+01 -0.60518563661E+01  0.98649178945E+01  0.51100000000E-03 0.  1.
        -12    1    3    3    0    0  0.33653373517E+02  0.21293713975E+01  0.19347982300E+02  0.38877090821E+02  0.00000000000E+00 0.  1.
</event>
<event>
 7    1  0.1692604E-013  0.7246149E+02  0.7816164E-02  0.1226708E+00
        -11   -1    0    0    0    0  0.00000000000E+00  0.00000000000E+00  0.45593999997E+02  0.45594000000E+02  0.51100000000E-03 0. -1.
         11   -1    0    0    0    0 -0.00000000000E+00 -0.00000000000E+00 -0.45593999997E+02  0.45594000000E+02  0.51100000000E-03 0.  1.
    9900012    2    1    2    0    0  0.15315929553E+01 -0.41088442630E+01 -0.18205873942E+02  0.72461488735E+02  0.69999893754E+02 0.  0.
         12    1    1    2    0    0 -0.15315929553E+01  0.41088442630E+01  0.18205873942E+02  0.18726511265E+02  0.00000000000E+00 0. -1.
         11    1    3    3    0    0  0.62032035639E+01  0.11170103794E+02 -0.35322942512E+01  0.13256245930E+02  0.51100000000E-03 0. -1.
        -11    1    3    3    0    0 -0.15394854860E+02  0.88534307555E+01 -0.25156214779E+02  0.30793180001E+02  0.51100000000E-03 0.  1.
         12    1    3    3    0    0  0.10723244252E+02 -0.24132378812E+02  0.10482635088E+02  0.28412062805E+02  0.00000000000E+00 0. -1.
</event>
<event>
 7    1  0.1692604E-013  0.7246159E+02  0.7816164E-02  0.1226708E+00
        -11   -1    0    0    0    0  0.00000000000E+00  0.00000000000E+00  0.45593999997E+02  0.45594000000E+02  0.51100000000E-03 0.  1.
         11   -1    0    0    0    0 -0.00000000000E+00 -0.00000000000E+00 -0.45593999997E+02  0.45594000000E+02  0.51100000000E-03 0. -1.
    9900012    2    1    2    0    0  0.18564571900E+02  0.48814797972E+00  0.24076867708E+01  0.72461586198E+02  0.70000020718E+02 0.  0.
         12    1    1    2    0    0 -0.18564571900E+02 -0.48814797972E+00 -0.24076867708E+01  0.18726413802E+02  0.00000000000E+00 0. -1.
         11    1    3    3    0    0  0.11965486786E+02  0.25157045960E+01 -0.15403577892E+01  0.12323731011E+02  0.51100000000E-03 0. -1.
        -11    1    3    3    0    0  0.26432187470E+02  0.17178654004E+02 -0.30058413443E+01  0.31667045494E+02  0.51100000000E-03 0.  1.
        -12    1    3    3    0    0 -0.19833102356E+02 -0.19206210620E+02  0.69538859043E+01  0.28470809694E+02  0.00000000000E+00 0.  1.
</event>
<event>
 7    1  0.1692604E-013  0.7246156E+02  0.7816164E-02  0.1226708E+00
        -11   -1    0    0    0    0  0.00000000000E+00  0.00000000000E+00  0.45593999997E+02  0.45594000000E+02  0.51100000000E-03 0.  1.
         11   -1    0    0    0    0 -0.00000000000E+00 -0.00000000000E+00 -0.45593999997E+02  0.45594000000E+02  0.51100000000E-03 0. -1.
    9900012    2    1    2    0    0  0.15610028790E+02  0.10093019661E+02  0.22666418224E+01  0.72461555867E+02  0.69999981206E+02 0.  0.
         12    1    1    2    0    0 -0.15610028790E+02 -0.10093019661E+02 -0.22666418224E+01  0.18726444133E+02  0.00000000000E+00 0. -1.
         11    1    3    3    0    0  0.16810949622E+02 -0.23927105801E+02 -0.11704903289E+02  0.31497923431E+02  0.51100000000E-03 0. -1.
        -11    1    3    3    0    0 -0.79505869910E+00 -0.12017903851E+01 -0.18535761242E+01  0.23477996452E+01  0.51100000000E-03 0.  1.
        -12    1    3    3    0    0 -0.40586213335E+00  0.35221915847E+02  0.15825121236E+02  0.38615832791E+02  0.00000000000E+00 0.  1.
</event>
<event>
 7    1  0.1692604E-013  0.7246153E+02  0.7816164E-02  0.1226708E+00
        -11   -1    0    0    0    0  0.00000000000E+00  0.00000000000E+00  0.45593999997E+02  0.45594000000E+02  0.51100000000E-03 0.  1.
         11   -1    0    0    0    0 -0.00000000000E+00 -0.00000000000E+00 -0.45593999997E+02  0.45594000000E+02  0.51100000000E-03 0. -1.
    9900012    2    1    2    0    0 -0.12498415114E+02 -0.63885367945E+01  0.12395845704E+02  0.72461527469E+02  0.69999944212E+02 0.  0.
         12    1    1    2    0    0  0.12498415114E+02  0.63885367945E+01 -0.12395845704E+02  0.18726472531E+02  0.00000000000E+00 0. -1.
         11    1    3    3    0    0 -0.19248557189E+02 -0.74744053575E+00 -0.10940731125E+02  0.22153221414E+02  0.51100000000E-03 0. -1.
        -11    1    3    3    0    0  0.21142846210E+01  0.17303661156E+02  0.20213999125E+02  0.26692557947E+02  0.51100000000E-03 0.  1.
         12    1    3    3    0    0  0.46358574538E+01 -0.22944757415E+02  0.31225777045E+01  0.23615748108E+02  0.00000000000E+00 0. -1.
</event>
<event>
 7    1  0.1692604E-013  0.7246152E+02  0.7816164E-02  0.1226708E+00
        -11   -1    0    0    0    0  0.00000000000E+00  0.00000000000E+00  0.45593999997E+02  0.45594000000E+02  0.51100000000E-03 0.  1.
         11   -1    0    0    0    0 -0.00000000000E+00 -0.00000000000E+00 -0.45593999997E+02  0.45594000000E+02  0.51100000000E-03 0. -1.
    9900012    2    1    2    0    0 -0.53803893084E+01 -0.13091255040E+02  0.12261786380E+02  0.72461522679E+02  0.69999937972E+02 0.  0.
         12    1    1    2    0    0  0.53803893084E+01  0.13091255040E+02 -0.12261786380E+02  0.18726477321E+02  0.00000000000E+00 0. -1.
         11    1    3    3    0    0  0.10667432194E+02 -0.62386267542E+01  0.27215953492E+02  0.29890177285E+02  0.51100000000E-03 0. -1.
        -11    1    3    3    0    0  0.31383567068E+01 -0.16049050300E+00  0.99470206192E+01  0.10431599086E+02  0.51100000000E-03 0.  1.
        -12    1    3    3    0    0 -0.19186178209E+02 -0.66921377824E+01 -0.24901187731E+02  0.32139746309E+02  0.00000000000E+00 0.  1.
</event>
<event>
 7    1  0.1692604E-013  0.7246155E+02  0.7816164E-02  0.1226708E+00
        -11   -1    0    0    0    0  0.00000000000E+00  0.00000000000E+00  0.45593999997E+02  0.45594000000E+02  0.51100000000E-03 0.  1.
         11   -1    0    0    0    0 -0.00000000000E+00 -0.00000000000E+00 -0.45593999997E+02  0.45594000000E+02  0.51100000000E-03 0. -1.
    9900012    2    1    2    0    0 -0.44868498505E+01 -0.68973080269E+01 -0.16821872467E+02  0.72461546174E+02  0.69999968578E+02 0.  0.
         12    1    1    2    0    0  0.44868498505E+01  0.68973080269E+01  0.16821872467E+02  0.18726453826E+02  0.00000000000E+00 0. -1.
         11    1    3    3    0    0 -0.91101914922E+01 -0.50535044504E+01 -0.58373672782E+01  0.11941873942E+02  0.51100000000E-03 0. -1.
        -11    1    3    3    0    0  0.23503756688E+02 -0.21616306527E+02 -0.86370709499E+01  0.33080058663E+02  0.51100000000E-03 0.  1.
         12    1    3    3    0    0 -0.18880415046E+02  0.19772502951E+02 -0.23474342393E+01  0.27439613568E+02  0.00000000000E+00 0. -1.
</event>
<event>
 7    1  0.1692604E-013  0.7246165E+02  0.7816164E-02  0.1226708E+00
        -11   -1    0    0    0    0  0.00000000000E+00  0.00000000000E+00  0.45593999997E+02  0.45594000000E+02  0.51100000000E-03 0.  1.
         11   -1    0    0    0    0 -0.00000000000E+00 -0.00000000000E+00 -0.45593999997E+02  0.45594000000E+02  0.51100000000E-03 0. -1.
    9900012    2    1    2    0    0  0.80627149146E+01  0.15839237499E+02  0.58980737303E+01  0.72461652516E+02  0.70000107109E+02 0.  0.
         12    1    1    2    0    0 -0.80627149146E+01 -0.15839237499E+02 -0.58980737303E+01  0.18726347484E+02  0.00000000000E+00 0. -1.
         11    1    3    3    0    0  0.78863214308E+00  0.49720034522E+01  0.12433980331E+02  0.13414418590E+02  0.51100000000E-03 0.  1.
        -11    1    3    3    0    0 -0.13407277776E+02  0.14964087926E+01 -0.25902075512E+02  0.29204654642E+02  0.51100000000E-03 0. -1.
         12    1    3    3    0    0  0.20681360547E+02  0.93708252547E+01  0.19366168912E+02  0.29842579285E+02  0.00000000000E+00 0. -1.
</event>
<event>
 7    1  0.1692604E-013  0.7246158E+02  0.7816164E-02  0.1226708E+00
        -11   -1    0    0    0    0  0.00000000000E+00  0.00000000000E+00  0.45593999997E+02  0.45594000000E+02  0.51100000000E-03 0.  1.
         11   -1    0    0    0    0 -0.00000000000E+00 -0.00000000000E+00 -0.45593999997E+02  0.45594000000E+02  0.51100000000E-03 0. -1.
    9900012    2    1    2    0    0  0.78875514402E+01  0.85906879066E+01  0.14651464092E+02  0.72461580522E+02  0.70000013324E+02 0.  0.
         12    1    1    2    0    0 -0.78875514402E+01 -0.85906879066E+01 -0.14651464092E+02  0.18726419478E+02  0.00000000000E+00 0. -1.
         11    1    3    3    0    0 -0.52490174586E+01 -0.11892744971E+01 -0.17245192821E+02  0.18065526115E+02  0.51100000000E-03 0. -1.
        -11    1    3    3    0    0 -0.69393878988E+01 -0.89378476094E+01 -0.12223315822E+01  0.11381314470E+02  0.51100000000E-03 0.  1.
        -12    1    3    3    0    0  0.20075956797E+02  0.18717810013E+02  0.33118988495E+02  0.43014739938E+02  0.00000000000E+00 0.  1.
</event>
<event>
 7    1  0.1692604E-013  0.7246155E+02  0.7816164E-02  0.1226708E+00
        -11   -1    0    0    0    0  0.00000000000E+00  0.00000000000E+00  0.45593999997E+02  0.45594000000E+02  0.51100000000E-03 0. -1.
         11   -1    0    0    0    0 -0.00000000000E+00 -0.00000000000E+00 -0.45593999997E+02  0.45594000000E+02  0.51100000000E-03 0.  1.
    9900012    2    1    2    0    0  0.24314423296E+01  0.10476140597E+02 -0.15330318088E+02  0.72461545816E+02  0.69999968113E+02 0.  0.
         12    1    1    2    0    0 -0.24314423296E+01 -0.10476140597E+02  0.15330318088E+02  0.18726454184E+02  0.00000000000E+00 0. -1.
         11    1    3    3    0    0 -0.27407346298E+01 -0.73405473286E+01  0.54248741986E+01  0.95301900152E+01  0.51100000000E-03 0. -1.
        -11    1    3    3    0    0  0.10608570870E+02  0.14001175604E+02 -0.39400186573E+02  0.43138722703E+02  0.51100000000E-03 0.  1.
         12    1    3    3    0    0 -0.54363939109E+01  0.38155123218E+01  0.18644994286E+02  0.19792633098E+02  0.00000000000E+00 0. -1.
</event>
<event>
 7    1  0.1692604E-013  0.7246157E+02  0.7816164E-02  0.1226708E+00
        -11   -1    0    0    0    0  0.00000000000E+00  0.00000000000E+00  0.45593999997E+02  0.45594000000E+02  0.51100000000E-03 0.  1.
         11   -1    0    0    0    0 -0.00000000000E+00 -0.00000000000E+00 -0.45593999997E+02  0.45594000000E+02  0.51100000000E-03 0. -1.
    9900012    2    1    2    0    0  0.18472024608E+02  0.46829587551E+00  0.30404122690E+01  0.72461572126E+02  0.70000002387E+02 0.  0.
         12    1    1    2    0    0 -0.18472024608E+02 -0.46829587551E+00 -0.30404122690E+01  0.18726427874E+02  0.00000000000E+00 0. -1.
         11    1    3    3    0    0  0.48929134328E+01 -0.80650001901E+00 -0.10980483812E+02  0.12048322255E+02  0.51100000000E-03 0. -1.
        -11    1    3    3    0    0  0.32993425788E+02  0.85834771910E+01 -0.20777641599E+01  0.34154931271E+02  0.51100000000E-03 0.  1.
         12    1    3    3    0    0 -0.19414314613E+02 -0.73086812965E+01  0.16098660241E+02  0.26258318601E+02  0.00000000000E+00 0. -1.
</event>
<event>
 7    1  0.1692604E-013  0.7246160E+02  0.7816164E-02  0.1226708E+00
        -11   -1    0    0    0    0  0.00000000000E+00  0.00000000000E+00  0.45593999997E+02  0.45594000000E+02  0.51100000000E-03 0.  1.
         11   -1    0    0    0    0 -0.00000000000E+00 -0.00000000000E+00 -0.45593999997E+02  0.45594000000E+02  0.51100000000E-03 0. -1.
    9900012    2    1    2    0    0 -0.17847060572E+02  0.56082934380E+01  0.84125658709E+00  0.72461595139E+02  0.70000032365E+02 0.  0.
         12    1    1    2    0    0  0.17847060572E+02 -0.56082934380E+01 -0.84125658709E+00  0.18726404861E+02  0.00000000000E+00 0. -1.
         11    1    3    3    0    0  0.86795462581E+01  0.47946364734E+01 -0.92176719235E+01  0.13538409733E+02  0.51100000000E-03 0. -1.
        -11    1    3    3    0    0 -0.95055719926E+01 -0.31739858614E+01 -0.21007684443E+02  0.23275585730E+02  0.51100000000E-03 0.  1.
        -12    1    3    3    0    0 -0.17021034838E+02  0.39876428261E+01  0.31066612954E+02  0.35647599676E+02  0.00000000000E+00 0.  1.
</event>
<event>
 7    1  0.1692604E-013  0.7246154E+02  0.7816164E-02  0.1226708E+00
        -11   -1    0    0    0    0  0.00000000000E+00  0.00000000000E+00  0.45593999997E+02  0.45594000000E+02  0.51100000000E-03 0.  1.
         11   -1    0    0    0    0 -0.00000000000E+00 -0.00000000000E+00 -0.45593999997E+02  0.45594000000E+02  0.51100000000E-03 0. -1.
    9900012    2    1    2    0    0  0.41416544926E+01  0.12715602596E+02  0.13108786937E+02  0.72461544215E+02  0.69999966027E+02 0.  0.
         12    1    1    2    0    0 -0.41416544926E+01 -0.12715602596E+02 -0.13108786937E+02  0.18726455785E+02  0.00000000000E+00 0. -1.
         11    1    3    3    0    0  0.82639293697E+00  0.43460249850E+01 -0.43645692441E+01  0.62145251954E+01  0.51100000000E-03 0. -1.
        -11    1    3    3    0    0 -0.21303617954E+02 -0.17948217853E+02  0.81019831806E+01  0.29010770306E+02  0.51100000000E-03 0.  1.
         12    1    3    3    0    0  0.24618879509E+02  0.26317795464E+02  0.93713730008E+01  0.37236248714E+02  0.00000000000E+00 0. -1.
</event>
<event>
 7    1  0.1692604E-013  0.7246160E+02  0.7816164E-02  0.1226708E+00
        -11   -1    0    0    0    0  0.00000000000E+00  0.00000000000E+00  0.45593999997E+02  0.45594000000E+02  0.51100000000E-03 0. -1.
         11   -1    0    0    0    0 -0.00000000000E+00 -0.00000000000E+00 -0.45593999997E+02  0.45594000000E+02  0.51100000000E-03 0.  1.
    9900012    2    1    2    0    0  0.15124358317E+02 -0.85452309313E+01 -0.69936436008E+01  0.72461595194E+02  0.70000032436E+02 0.  0.
         12    1    1    2    0    0 -0.15124358317E+02  0.85452309313E+01  0.69936436008E+01  0.18726404806E+02  0.00000000000E+00 0. -1.
         11    1    3    3    0    0  0.30959846099E+02  0.14591045261E+01  0.13195268062E+02  0.33686141898E+02  0.51100000000E-03 0. -1.
        -11    1    3    3    0    0 -0.55670626314E+01  0.91847114158E+01 -0.33261317250E+01  0.11243409743E+02  0.51100000000E-03 0.  1.
        -12    1    3    3    0    0 -0.10268425151E+02 -0.19189046873E+02 -0.16862779937E+02  0.27532043553E+02  0.00000000000E+00 0.  1.
</event>
<event>
 7    1  0.1692604E-013  0.7246192E+02  0.7816164E-02  0.1226707E+00
        -11   -1    0    0    0    0  0.00000000000E+00  0.00000000000E+00  0.45593999997E+02  0.45594000000E+02  0.51100000000E-03 0.  1.
         11   -1    0    0    0    0 -0.00000000000E+00 -0.00000000000E+00 -0.45593999997E+02  0.45594000000E+02  0.51100000000E-03 0. -1.
    9900012    2    1    2    0    0 -0.90384169193E+01 -0.25639773004E+01  0.16198742066E+02  0.72461916466E+02  0.70000450951E+02 0.  0.
         12    1    1    2    0    0  0.90384169193E+01  0.25639773004E+01 -0.16198742066E+02  0.18726083534E+02  0.00000000000E+00 0. -1.
         11    1    3    3    0    0 -0.31542824928E+02 -0.54464695714E+01  0.10607419453E+02  0.33721375757E+02  0.51100000000E-03 0. -1.
        -11    1    3    3    0    0 -0.19240388516E+00 -0.11123342747E+02  0.46381542169E+01  0.12053142658E+02  0.51100000000E-03 0.  1.
        -12    1    3    3    0    0  0.22696811894E+02  0.14005835018E+02  0.95316839700E+00  0.26687398051E+02  0.00000000000E+00 0.  1.
</event>
<event>
 7    1  0.1692604E-013  0.7246154E+02  0.7816164E-02  0.1226708E+00
        -11   -1    0    0    0    0  0.00000000000E+00  0.00000000000E+00  0.45593999997E+02  0.45594000000E+02  0.51100000000E-03 0.  1.
         11   -1    0    0    0    0 -0.00000000000E+00 -0.00000000000E+00 -0.45593999997E+02  0.45594000000E+02  0.51100000000E-03 0. -1.
    9900012    2    1    2    0    0 -0.63117698991E+01 -0.12112175979E+02  0.12811605538E+02  0.72461535233E+02  0.69999954326E+02 0.  0.
         12    1    1    2    0    0  0.63117698991E+01  0.12112175979E+02 -0.12811605538E+02  0.18726464767E+02  0.00000000000E+00 0. -1.
         11    1    3    3    0    0 -0.12278598364E+02 -0.51490612321E+01 -0.26719863253E+02  0.29853440369E+02  0.51100000000E-03 0. -1.
        -11    1    3    3    0    0 -0.12997491411E+01 -0.78317840191E+00 -0.38671275755E+00  0.15659703882E+01  0.51100000000E-03 0.  1.
        -12    1    3    3    0    0  0.72665776060E+01 -0.61799363451E+01  0.39918181549E+02  0.41042124476E+02  0.00000000000E+00 0.  1.
</event>
<event>
 7    1  0.1692604E-013  0.7246155E+02  0.7816164E-02  0.1226708E+00
        -11   -1    0    0    0    0  0.00000000000E+00  0.00000000000E+00  0.45593999997E+02  0.45594000000E+02  0.51100000000E-03 0. -1.
         11   -1    0    0    0    0 -0.00000000000E+00 -0.00000000000E+00 -0.45593999997E+02  0.45594000000E+02  0.51100000000E-03 0.  1.
    9900012    2    1    2    0    0 -0.16766489321E+02 -0.29092465662E+01 -0.78167103978E+01  0.72461552361E+02  0.69999976639E+02 0.  0.
         12    1    1    2    0    0  0.16766489321E+02  0.29092465662E+01  0.78167103978E+01  0.18726447639E+02  0.00000000000E+00 0. -1.
         11    1    3    3    0    0 -0.42910323778E+02 -0.48360759768E+01 -0.74621795276E+00  0.43188428532E+02  0.51100000000E-03 0. -1.
        -11    1    3    3    0    0 -0.77387440462E+00 -0.82619172236E+00 -0.10699081682E+01  0.15576193713E+01  0.51100000000E-03 0.  1.
        -12    1    3    3    0    0  0.26917708862E+02  0.27530211329E+01 -0.60005842768E+01  0.27715504458E+02  0.00000000000E+00 0.  1.
</event>
<event>
 7    1  0.1692604E-013  0.7246160E+02  0.7816164E-02  0.1226708E+00
        -11   -1    0    0    0    0  0.00000000000E+00  0.00000000000E+00  0.45593999997E+02  0.45594000000E+02  0.51100000000E-03 0.  1.
         11   -1    0    0    0    0 -0.00000000000E+00 -0.00000000000E+00 -0.45593999997E+02  0.45594000000E+02  0.51100000000E-03 0. -1.
    9900012    2    1    2    0    0  0.78099891785E+01  0.11311079812E+02  0.12717773620E+02  0.72461595558E+02  0.70000032910E+02 0.  0.
         12    1    1    2    0    0 -0.78099891785E+01 -0.11311079812E+02 -0.12717773620E+02  0.18726404442E+02  0.00000000000E+00 0. -1.
         11    1    3    3    0    0  0.11873248924E+02  0.18781718448E+02 -0.21253557926E+02  0.30748019654E+02  0.51100000000E-03 0. -1.
        -11    1    3    3    0    0 -0.36853581631E+01  0.42027050363E+01 -0.20827356107E+00  0.55935652807E+01  0.51100000000E-03 0.  1.
        -12    1    3    3    0    0 -0.37790158277E+00 -0.11673343672E+02  0.34179605108E+02  0.36120010623E+02  0.00000000000E+00 0.  1.
</event>
<event>
 7    1  0.1692604E-013  0.7246164E+02  0.7816164E-02  0.1226708E+00
        -11   -1    0    0    0    0  0.00000000000E+00  0.00000000000E+00  0.45593999997E+02  0.45594000000E+02  0.51100000000E-03 0.  1.
         11   -1    0    0    0    0 -0.00000000000E+00 -0.00000000000E+00 -0.45593999997E+02  0.45594000000E+02  0.51100000000E-03 0. -1.
    9900012    2    1    2    0    0 -0.26310363604E+01  0.18393256166E+02 -0.23329141788E+01  0.72461635876E+02  0.70000085433E+02 0.  0.
         12    1    1    2    0    0  0.26310363604E+01 -0.18393256166E+02  0.23329141788E+01  0.18726364124E+02  0.00000000000E+00 0. -1.
         11    1    3    3    0    0 -0.73795295902E+01  0.25120275851E+02  0.10523102652E+02  0.28217395441E+02  0.51100000000E-03 0. -1.
        -11    1    3    3    0    0 -0.13822379052E+02  0.54835157518E+01 -0.15947401770E+02  0.21804741025E+02  0.51100000000E-03 0.  1.
        -12    1    3    3    0    0  0.18570872282E+02 -0.12210535436E+02  0.30913849396E+01  0.22439499411E+02  0.00000000000E+00 0.  1.
</event>
<event>
 7    1  0.1692604E-013  0.7246165E+02  0.7816164E-02  0.1226708E+00
        -11   -1    0    0    0    0  0.00000000000E+00  0.00000000000E+00  0.45593999997E+02  0.45594000000E+02  0.51100000000E-03 0. -1.
         11   -1    0    0    0    0 -0.00000000000E+00 -0.00000000000E+00 -0.45593999997E+02  0.45594000000E+02  0.51100000000E-03 0.  1.
    9900012    2    1    2    0    0 -0.18505586620E+02  0.24336759331E+01 -0.15154940712E+01  0.72461648594E+02  0.70000101999E+02 0.  0.
         12    1    1    2    0    0  0.18505586620E+02 -0.24336759331E+01  0.15154940712E+01  0.18726351406E+02  0.00000000000E+00 0. -1.
         11    1    3    3    0    0  0.27161729139E+01 -0.48961412288E+01  0.67158684000E+01  0.87437224829E+01  0.51100000000E-03 0. -1.
        -11    1    3    3    0    0 -0.17043592770E+01 -0.22551451725E+02 -0.15338481131E+02  0.27326577157E+02  0.51100000000E-03 0.  1.
         12    1    3    3    0    0 -0.19517400257E+02  0.29881268887E+02  0.71071186594E+01  0.36391348954E+02  0.00000000000E+00 0. -1.
</event>
<event>
 7    1  0.1692604E-013  0.7246173E+02  0.7816164E-02  0.1226708E+00
        -11   -1    0    0    0    0  0.00000000000E+00  0.00000000000E+00  0.45593999997E+02  0.45594000000E+02  0.51100000000E-03 0.  1.
         11   -1    0    0    0    0 -0.00000000000E+00 -0.00000000000E+00 -0.45593999997E+02  0.45594000000E+02  0.51100000000E-03 0. -1.
    9900012    2    1    2    0    0 -0.11573693309E+02  0.84999600722E+01  0.12019719820E+02  0.72461725341E+02  0.70000201977E+02 0.  0.
         12    1    1    2    0    0  0.11573693309E+02 -0.84999600722E+01 -0.12019719820E+02  0.18726274659E+02  0.00000000000E+00 0. -1.
         11    1    3    3    0    0  0.14387381575E+02 -0.12251061295E+02  0.13579458051E+02  0.23269871780E+02  0.51100000000E-03 0. -1.
        -11    1    3    3    0    0 -0.29321603729E+01 -0.89283919020E+01  0.56145416880E+01  0.10947000732E+02  0.51100000000E-03 0.  1.
         12    1    3    3    0    0 -0.23028914511E+02  0.29679413269E+02 -0.71742799190E+01  0.38244852829E+02  0.00000000000E+00 0. -1.
</event>
<event>
 7    1  0.1692604E-013  0.7246158E+02  0.7816164E-02  0.1226708E+00
        -11   -1    0    0    0    0  0.00000000000E+00  0.00000000000E+00  0.45593999997E+02  0.45594000000E+02  0.51100000000E-03 0.  1.
         11   -1    0    0    0    0 -0.00000000000E+00 -0.00000000000E+00 -0.45593999997E+02  0.45594000000E+02  0.51100000000E-03 0. -1.
    9900012    2    1    2    0    0  0.12027519738E+02  0.67254542060E+01  0.12680136419E+02  0.72461579496E+02  0.70000011986E+02 0.  0.
         12    1    1    2    0    0 -0.12027519738E+02 -0.67254542060E+01 -0.12680136419E+02  0.18726420504E+02  0.00000000000E+00 0. -1.
         11    1    3    3    0    0  0.14711237102E+02 -0.24914095966E+02  0.13427171982E+02  0.31897047239E+02  0.51100000000E-03 0. -1.
        -11    1    3    3    0    0  0.79045243705E+01  0.87697394441E+00 -0.11006801692E+01  0.80288284276E+01  0.51100000000E-03 0.  1.
        -12    1    3    3    0    0 -0.10588241735E+02  0.30762576227E+02  0.35364460603E+00  0.32535703829E+02  0.00000000000E+00 0.  1.
</event>
<event>
 7    1  0.1692604E-013  0.7246155E+02  0.7816164E-02  0.1226708E+00
        -11   -1    0    0    0    0  0.00000000000E+00  0.00000000000E+00  0.45593999997E+02  0.45594000000E+02  0.51100000000E-03 0. -1.
         11   -1    0    0    0    0 -0.00000000000E+00 -0.00000000000E+00 -0.45593999997E+02  0.45594000000E+02  0.51100000000E-03 0.  1.
    9900012    2    1    2    0    0 -0.17906280203E+02 -0.41386949985E+01  0.35939003544E+01  0.72461553814E+02  0.69999978531E+02 0.  0.
         12    1    1    2    0    0  0.17906280203E+02  0.41386949985E+01 -0.35939003544E+01  0.18726446186E+02  0.00000000000E+00 0. -1.
         11    1    3    3    0    0 -0.10324730530E+02  0.10495233841E+02 -0.19349695052E+02  0.24313796346E+02  0.51100000000E-03 0. -1.
        -11    1    3    3    0    0 -0.23704835685E+01  0.42978774097E+00 -0.10674129478E+02  0.10942620811E+02  0.51100000000E-03 0.  1.
        -12    1    3    3    0    0 -0.52110661049E+01 -0.15063716580E+02  0.33617724885E+02  0.37205136656E+02  0.00000000000E+00 0.  1.
</event>
<event>
 7    1  0.1692604E-013  0.7246151E+02  0.7816164E-02  0.1226708E+00
        -11   -1    0    0    0    0  0.00000000000E+00  0.00000000000E+00  0.45593999997E+02  0.45594000000E+02  0.51100000000E-03 0.  1.
         11   -1    0    0    0    0 -0.00000000000E+00 -0.00000000000E+00 -0.45593999997E+02  0.45594000000E+02  0.51100000000E-03 0. -1.
    9900012    2    1    2    0    0  0.15373744922E+01 -0.17694736958E+02  0.59341645742E+01  0.72461506854E+02  0.69999917357E+02 0.  0.
         12    1    1    2    0    0 -0.15373744922E+01  0.17694736958E+02 -0.59341645742E+01  0.18726493146E+02  0.00000000000E+00 0. -1.
         11    1    3    3    0    0  0.51554245510E+01  0.69565703228E+01  0.58412760908E+01  0.10444748900E+02  0.51100000000E-03 0. -1.
        -11    1    3    3    0    0 -0.16779652769E+02 -0.26552570272E+02  0.20609096881E+02  0.37567680386E+02  0.51100000000E-03 0.  1.
         12    1    3    3    0    0  0.13161602710E+02  0.19012629906E+01 -0.20516208398E+02  0.24449077567E+02  0.00000000000E+00 0. -1.
</event>
<event>
 7    1  0.1692604E-013  0.7246158E+02  0.7816164E-02  0.1226708E+00
        -11   -1    0    0    0    0  0.00000000000E+00  0.00000000000E+00  0.45593999997E+02  0.45594000000E+02  0.51100000000E-03 0. -1.
         11   -1    0    0    0    0 -0.00000000000E+00 -0.00000000000E+00 -0.45593999997E+02  0.45594000000E+02  0.51100000000E-03 0.  1.
    9900012    2    1    2    0    0 -0.55236239247E+01 -0.10226757893E+02 -0.14682706882E+02  0.72461578035E+02  0.70000010083E+02 0.  0.
         12    1    1    2    0    0  0.55236239247E+01  0.10226757893E+02  0.14682706882E+02  0.18726421965E+02  0.00000000000E+00 0. -1.
         11    1    3    3    0    0 -0.65652749147E+01  0.18742463208E+01  0.65508021670E+01  0.94619576869E+01  0.51100000000E-03 0. -1.
        -11    1    3    3    0    0  0.29483056118E+02 -0.71652822212E+01 -0.90008326587E+01  0.31648173030E+02  0.51100000000E-03 0.  1.
         12    1    3    3    0    0 -0.28441405128E+02 -0.49357219922E+01 -0.12232676390E+02  0.31351447317E+02  0.00000000000E+00 0. -1.
</event>
<event>
 7    1  0.1692604E-013  0.7246160E+02  0.7816164E-02  0.1226708E+00
        -11   -1    0    0    0    0  0.00000000000E+00  0.00000000000E+00  0.45593999997E+02  0.45594000000E+02  0.51100000000E-03 0. -1.
         11   -1    0    0    0    0 -0.00000000000E+00 -0.00000000000E+00 -0.45593999997E+02  0.45594000000E+02  0.51100000000E-03 0.  1.
    9900012    2    1    2    0    0  0.10955544939E+02  0.79325809253E+01  0.12950994865E+02  0.72461599571E+02  0.70000038138E+02 0.  0.
         12    1    1    2    0    0 -0.10955544939E+02 -0.79325809253E+01 -0.12950994865E+02  0.18726400429E+02  0.00000000000E+00 0. -1.
         11    1    3    3    0    0  0.32556881422E+00 -0.26863285784E+01 -0.31301858226E+01  0.41376829058E+01  0.51100000000E-03 0. -1.
        -11    1    3    3    0    0  0.87720996280E+00 -0.19082613821E+02 -0.14964026897E+02  0.24265979247E+02  0.51100000000E-03 0.  1.
         12    1    3    3    0    0  0.97527661617E+01  0.29701523324E+02  0.31045207585E+02  0.44057937419E+02  0.00000000000E+00 0. -1.
</event>
<event>
 7    1  0.1692604E-013  0.7246168E+02  0.7816164E-02  0.1226708E+00
        -11   -1    0    0    0    0  0.00000000000E+00  0.00000000000E+00  0.45593999997E+02  0.45594000000E+02  0.51100000000E-03 0.  1.
         11   -1    0    0    0    0 -0.00000000000E+00 -0.00000000000E+00 -0.45593999997E+02  0.45594000000E+02  0.51100000000E-03 0. -1.
    9900012    2    1    2    0    0  0.44251151033E-01 -0.12400237575E+02  0.14032367700E+02  0.72461676459E+02  0.70000138299E+02 0.  0.
         12    1    1    2    0    0 -0.44251151033E-01  0.12400237575E+02 -0.14032367700E+02  0.18726323541E+02  0.00000000000E+00 0. -1.
         11    1    3    3    0    0  0.13816477052E+02 -0.14326874523E+02  0.18959811317E+02  0.27488703447E+02  0.51100000000E-03 0.  1.
        -11    1    3    3    0    0 -0.11452733497E+02 -0.19720772863E+02 -0.42056909955E+01  0.23189692190E+02  0.51100000000E-03 0. -1.
        -12    1    3    3    0    0 -0.23194924038E+01  0.21647409811E+02 -0.72175262171E+00  0.21783280822E+02  0.00000000000E+00 0.  1.
</event>
<event>
 7    1  0.1692604E-013  0.7246157E+02  0.7816164E-02  0.1226708E+00
        -11   -1    0    0    0    0  0.00000000000E+00  0.00000000000E+00  0.45593999997E+02  0.45594000000E+02  0.51100000000E-03 0.  1.
         11   -1    0    0    0    0 -0.00000000000E+00 -0.00000000000E+00 -0.45593999997E+02  0.45594000000E+02  0.51100000000E-03 0. -1.
    9900012    2    1    2    0    0  0.89637238417E+01 -0.69951769880E+01  0.14879457940E+02  0.72461571755E+02  0.70000001903E+02 0.  0.
         12    1    1    2    0    0 -0.89637238417E+01  0.69951769880E+01 -0.14879457940E+02  0.18726428245E+02  0.00000000000E+00 0. -1.
         11    1    3    3    0    0 -0.82164971928E+01  0.22598718012E+02 -0.51485667967E+01  0.24591067936E+02  0.51100000000E-03 0. -1.
        -11    1    3    3    0    0 -0.28357627488E+01 -0.24366011347E+01  0.12844505152E+02  0.13377589032E+02  0.51100000000E-03 0.  1.
        -12    1    3    3    0    0  0.20015983783E+02 -0.27157293865E+02  0.71835195856E+01  0.34492914787E+02  0.00000000000E+00 0.  1.
</event>
<event>
 7    1  0.2429768E-013  0.7246153E+02  0.7816164E-02  0.1226708E+00
        -11   -1    0    0    0    0  0.00000000000E+00  0.00000000000E+00  0.45593999997E+02  0.45594000000E+02  0.51100000000E-03 0. -1.
         11   -1    0    0    0    0 -0.00000000000E+00 -0.00000000000E+00 -0.45593999997E+02  0.45594000000E+02  0.51100000000E-03 0.  1.
    9900012    2    1    2    0    0 -0.15509522928E+02 -0.10166360756E+00 -0.10494045922E+02  0.72461531119E+02  0.69999948966E+02 0.  0.
         12    1    1    2    0    0  0.15509522928E+02  0.10166360756E+00  0.10494045922E+02  0.18726468881E+02  0.00000000000E+00 0. -1.
         11    1    3    3    0    0 -0.47321578166E+01  0.25348658202E+02  0.82597934292E+01  0.27077148631E+02  0.51100000000E-03 0. -1.
        -11    1    3    3    0    0  0.20789081437E+01  0.15021890114E+01 -0.15081119764E+02  0.15297666636E+02  0.51100000000E-03 0.  1.
        -12    1    3    3    0    0 -0.12856273255E+02 -0.26952510821E+02 -0.36727195875E+01  0.30086715852E+02  0.00000000000E+00 0.  1.
</event>
<event>
 7    1  0.1692604E-013  0.7246159E+02  0.7816164E-02  0.1226708E+00
        -11   -1    0    0    0    0  0.00000000000E+00  0.00000000000E+00  0.45593999997E+02  0.45594000000E+02  0.51100000000E-03 0.  1.
         11   -1    0    0    0    0 -0.00000000000E+00 -0.00000000000E+00 -0.45593999997E+02  0.45594000000E+02  0.51100000000E-03 0. -1.
    9900012    2    1    2    0    0  0.31388919299E+01 -0.18161132378E+02  0.33164609939E+01  0.72461593903E+02  0.70000030755E+02 0.  0.
         12    1    1    2    0    0 -0.31388919299E+01  0.18161132378E+02 -0.33164609939E+01  0.18726406097E+02  0.00000000000E+00 0. -1.
         11    1    3    3    0    0 -0.66402324961E+01 -0.14567739725E+02  0.20311689163E+02  0.25862645750E+02  0.51100000000E-03 0. -1.
        -11    1    3    3    0    0 -0.21655736268E+01 -0.14784413593E+02  0.78253111548E+01  0.16867249015E+02  0.51100000000E-03 0.  1.
         12    1    3    3    0    0  0.11944698053E+02  0.11191020941E+02 -0.24820539324E+02  0.29731699137E+02  0.00000000000E+00 0. -1.
</event>
<event>
 7    1  0.1692604E-013  0.7246156E+02  0.7816164E-02  0.1226708E+00
        -11   -1    0    0    0    0  0.00000000000E+00  0.00000000000E+00  0.45593999997E+02  0.45594000000E+02  0.51100000000E-03 0.  1.
         11   -1    0    0    0    0 -0.00000000000E+00 -0.00000000000E+00 -0.45593999997E+02  0.45594000000E+02  0.51100000000E-03 0. -1.
    9900012    2    1    2    0    0 -0.14833925497E+02  0.11058081464E+02 -0.28901600449E+01  0.72461560499E+02  0.69999987239E+02 0.  0.
         12    1    1    2    0    0  0.14833925497E+02 -0.11058081464E+02  0.28901600449E+01  0.18726439501E+02  0.00000000000E+00 0. -1.
         11    1    3    3    0    0 -0.11192580418E+02  0.34100722906E+02 -0.12916658778E+02  0.38144111385E+02  0.51100000000E-03 0. -1.
        -11    1    3    3    0    0 -0.81988626559E+01  0.87539324777E+00  0.81802140318E+00  0.82859411937E+01  0.51100000000E-03 0.  1.
        -12    1    3    3    0    0  0.45575175768E+01 -0.23918034689E+02  0.92084773302E+01  0.26031507920E+02  0.00000000000E+00 0.  1.
</event>
<event>
 7    1  0.1692604E-013  0.7246129E+02  0.7816164E-02  0.1226709E+00
        -11   -1    0    0    0    0  0.00000000000E+00  0.00000000000E+00  0.45593999997E+02  0.45594000000E+02  0.51100000000E-03 0. -1.
         11   -1    0    0    0    0 -0.00000000000E+00 -0.00000000000E+00 -0.45593999997E+02  0.45594000000E+02  0.51100000000E-03 0.  1.
    9900012    2    1    2    0    0  0.37779892973E+01  0.18326108835E+02 -0.75499233975E+00  0.72461294961E+02  0.69999641327E+02 0.  0.
         12    1    1    2    0    0 -0.37779892973E+01 -0.18326108835E+02  0.75499233975E+00  0.18726705039E+02  0.00000000000E+00 0. -1.
         11    1    3    3    0    0 -0.39506914883E+01  0.20876834283E+01 -0.10348863059E+02  0.11272326832E+02  0.51100000000E-03 0.  1.
        -11    1    3    3    0    0 -0.20669332804E+02  0.92468550608E+01  0.19935162405E+02  0.30168466111E+02  0.51100000000E-03 0. -1.
         12    1    3    3    0    0  0.28398013590E+02  0.69915703461E+01 -0.10341291686E+02  0.31020502019E+02  0.00000000000E+00 0. -1.
</event>
<event>
 7    1  0.1692604E-013  0.7246154E+02  0.7816164E-02  0.1226708E+00
        -11   -1    0    0    0    0  0.00000000000E+00  0.00000000000E+00  0.45593999997E+02  0.45594000000E+02  0.51100000000E-03 0.  1.
         11   -1    0    0    0    0 -0.00000000000E+00 -0.00000000000E+00 -0.45593999997E+02  0.45594000000E+02  0.51100000000E-03 0. -1.
    9900012    2    1    2    0    0 -0.64828460378E+00 -0.17181852799E+02  0.74191555811E+01  0.72461542565E+02  0.69999963878E+02 0.  0.
         12    1    1    2    0    0  0.64828460378E+00  0.17181852799E+02 -0.74191555811E+01  0.18726457435E+02  0.00000000000E+00 0. -1.
         11    1    3    3    0    0  0.17583260971E+02 -0.15961145378E+02  0.24931380019E+01  0.23877708548E+02  0.51100000000E-03 0. -1.
        -11    1    3    3    0    0 -0.47505127523E+01  0.13758028640E+01  0.24322556890E+02  0.24820293690E+02  0.51100000000E-03 0.  1.
         12    1    3    3    0    0 -0.13481032823E+02 -0.25965102847E+01 -0.19396539311E+02  0.23763540327E+02  0.00000000000E+00 0. -1.
</event>
<event>
 7    1  0.1692604E-013  0.7246155E+02  0.7816164E-02  0.1226708E+00
        -11   -1    0    0    0    0  0.00000000000E+00  0.00000000000E+00  0.45593999997E+02  0.45594000000E+02  0.51100000000E-03 0. -1.
         11   -1    0    0    0    0 -0.00000000000E+00 -0.00000000000E+00 -0.45593999997E+02  0.45594000000E+02  0.51100000000E-03 0.  1.
    9900012    2    1    2    0    0  0.17217621886E+02  0.67539684346E+01  0.29355348436E+01  0.72461549246E+02  0.69999972581E+02 0.  0.
         12    1    1    2    0    0 -0.17217621886E+02 -0.67539684346E+01 -0.29355348436E+01  0.18726450754E+02  0.00000000000E+00 0. -1.
         11    1    3    3    0    0 -0.28540800406E+01 -0.21043996442E+02  0.11582148214E+02  0.24189702699E+02  0.51100000000E-03 0. -1.
        -11    1    3    3    0    0  0.10822511246E+02 -0.41368368918E+01  0.46228253881E+01  0.12474401147E+02  0.51100000000E-03 0.  1.
         12    1    3    3    0    0  0.92491906802E+01  0.31934801768E+02 -0.13269438759E+02  0.35797445400E+02  0.00000000000E+00 0. -1.
</event>
<event>
 7    1  0.1692604E-013  0.7246159E+02  0.7816164E-02  0.1226708E+00
        -11   -1    0    0    0    0  0.00000000000E+00  0.00000000000E+00  0.45593999997E+02  0.45594000000E+02  0.51100000000E-03 0. -1.
         11   -1    0    0    0    0 -0.00000000000E+00 -0.00000000000E+00 -0.45593999997E+02  0.45594000000E+02  0.51100000000E-03 0.  1.
    9900012    2    1    2    0    0 -0.94504447413E+01 -0.81543347150E+01 -0.13959741681E+02  0.72461589018E+02  0.70000024391E+02 0.  0.
         12    1    1    2    0    0  0.94504447413E+01  0.81543347150E+01  0.13959741681E+02  0.18726410982E+02  0.00000000000E+00 0. -1.
         11    1    3    3    0    0  0.26723980072E+01 -0.11266972090E+01 -0.11241441867E+02  0.11609529415E+02  0.51100000000E-03 0. -1.
        -11    1    3    3    0    0 -0.12661158775E+02 -0.20808938963E+02 -0.24835684671E+02  0.34786895746E+02  0.51100000000E-03 0.  1.
         12    1    3    3    0    0  0.53831602696E+00  0.13781301457E+02  0.22117384857E+02  0.26065163858E+02  0.00000000000E+00 0. -1.
</event>
<event>
 7    1  0.1692604E-013  0.7246157E+02  0.7816164E-02  0.1226708E+00
        -11   -1    0    0    0    0  0.00000000000E+00  0.00000000000E+00  0.45593999997E+02  0.45594000000E+02  0.51100000000E-03 0. -1.
         11   -1    0    0    0    0 -0.00000000000E+00 -0.00000000000E+00 -0.45593999997E+02  0.45594000000E+02  0.51100000000E-03 0.  1.
    9900012    2    1    2    0    0 -0.12565195207E+01  0.13415187330E+02 -0.13005114426E+02  0.72461572320E+02  0.70000002639E+02 0.  0.
         12    1    1    2    0    0  0.12565195207E+01 -0.13415187330E+02  0.13005114426E+02  0.18726427680E+02  0.00000000000E+00 0. -1.
         11    1    3    3    0    0  0.15362407563E+02 -0.24797921894E+01  0.13176284069E+02  0.20390375121E+02  0.51100000000E-03 0. -1.
        -11    1    3    3    0    0  0.11125625952E+02  0.11602140419E+02 -0.47819384068E+01  0.16770693197E+02  0.51100000000E-03 0.  1.
         12    1    3    3    0    0 -0.27744553036E+02  0.42928391010E+01 -0.21399460089E+02  0.35300504002E+02  0.00000000000E+00 0. -1.
</event>
<event>
 7    1  0.1692604E-013  0.7246154E+02  0.7816164E-02  0.1226708E+00
        -11   -1    0    0    0    0  0.00000000000E+00  0.00000000000E+00  0.45593999997E+02  0.45594000000E+02  0.51100000000E-03 0.  1.
         11   -1    0    0    0    0 -0.00000000000E+00 -0.00000000000E+00 -0.45593999997E+02  0.45594000000E+02  0.51100000000E-03 0. -1.
    9900012    2    1    2    0    0 -0.17555230646E+02  0.64445913728E+00 -0.64868103975E+01  0.72461543855E+02  0.69999965558E+02 0.  0.
         12    1    1    2    0    0  0.17555230646E+02 -0.64445913728E+00  0.64868103975E+01  0.18726456145E+02  0.00000000000E+00 0. -1.
         11    1    3    3    0    0 -0.16474848606E+02 -0.16653070359E+02 -0.26847415543E+00  0.23426853558E+02  0.51100000000E-03 0. -1.
        -11    1    3    3    0    0  0.69532816442E+01 -0.11857480081E+02  0.76871629294E+01  0.15749299466E+02  0.51100000000E-03 0.  1.
        -12    1    3    3    0    0 -0.80336636838E+01  0.29155009577E+02 -0.13905499172E+02  0.33285390832E+02  0.00000000000E+00 0.  1.
</event>
<event>
 7    1  0.1692604E-013  0.7246153E+02  0.7816164E-02  0.1226708E+00
        -11   -1    0    0    0    0  0.00000000000E+00  0.00000000000E+00  0.45593999997E+02  0.45594000000E+02  0.51100000000E-03 0. -1.
         11   -1    0    0    0    0 -0.00000000000E+00 -0.00000000000E+00 -0.45593999997E+02  0.45594000000E+02  0.51100000000E-03 0.  1.
    9900012    2    1    2    0    0  0.12791312103E+02  0.30594631479E+01  0.13330512757E+02  0.72461533424E+02  0.69999951969E+02 0.  0.
         12    1    1    2    0    0 -0.12791312103E+02 -0.30594631479E+01 -0.13330512757E+02  0.18726466576E+02  0.00000000000E+00 0. -1.
         11    1    3    3    0    0  0.93349584330E+01  0.14382792838E+02 -0.60130919141E+01  0.18170400474E+02  0.51100000000E-03 0. -1.
        -11    1    3    3    0    0  0.11064110257E+02  0.13534287932E+00 -0.14220480064E+02  0.18018182677E+02  0.51100000000E-03 0.  1.
         12    1    3    3    0    0 -0.76077565871E+01 -0.11458672569E+02  0.33564084736E+02  0.36272950273E+02  0.00000000000E+00 0. -1.
</event>
<event>
 7    1  0.1692604E-013  0.7246156E+02  0.7816164E-02  0.1226708E+00
        -11   -1    0    0    0    0  0.00000000000E+00  0.00000000000E+00  0.45593999997E+02  0.45594000000E+02  0.51100000000E-03 0.  1.
         11   -1    0    0    0    0 -0.00000000000E+00 -0.00000000000E+00 -0.45593999997E+02  0.45594000000E+02  0.51100000000E-03 0. -1.
    9900012    2    1    2    0    0  0.24040813942E+01  0.76638690438E+01  0.16916417495E+02  0.72461556746E+02  0.69999982351E+02 0.  0.
         12    1    1    2    0    0 -0.24040813942E+01 -0.76638690438E+01 -0.16916417495E+02  0.18726443254E+02  0.00000000000E+00 0. -1.
         11    1    3    3    0    0  0.82254385749E+01 -0.10178757023E+02 -0.14942021517E+02  0.19862752618E+02  0.51100000000E-03 0. -1.
        -11    1    3    3    0    0 -0.92484663178E+01  0.10803764168E+01 -0.59840475616E+01  0.11068431141E+02  0.51100000000E-03 0.  1.
        -12    1    3    3    0    0  0.34271091371E+01  0.16762249650E+02  0.37842486574E+02  0.41530372987E+02  0.00000000000E+00 0.  1.
</event>
<event>
 7    1  0.1692604E-013  0.7246143E+02  0.7816164E-02  0.1226708E+00
        -11   -1    0    0    0    0  0.00000000000E+00  0.00000000000E+00  0.45593999997E+02  0.45594000000E+02  0.51100000000E-03 0.  1.
         11   -1    0    0    0    0 -0.00000000000E+00 -0.00000000000E+00 -0.45593999997E+02  0.45594000000E+02  0.51100000000E-03 0. -1.
    9900012    2    1    2    0    0  0.70044938465E+01  0.74234426170E+01  0.15700762459E+02  0.72461431277E+02  0.69999818904E+02 0.  0.
         12    1    1    2    0    0 -0.70044938465E+01 -0.74234426170E+01 -0.15700762459E+02  0.18726568723E+02  0.00000000000E+00 0. -1.
         11    1    3    3    0    0 -0.21378826717E+01  0.20346313398E+02  0.23920110484E+02  0.31475620678E+02  0.51100000000E-03 0. -1.
        -11    1    3    3    0    0 -0.68543210483E+01  0.89294066852E+01  0.30349410211E+01  0.11658768719E+02  0.51100000000E-03 0.  1.
         12    1    3    3    0    0  0.15996697566E+02 -0.21852277466E+02 -0.11254289046E+02  0.29327041880E+02  0.00000000000E+00 0. -1.
</event>
<event>
 7    1  0.1692604E-013  0.7246154E+02  0.7816164E-02  0.1226708E+00
        -11   -1    0    0    0    0  0.00000000000E+00  0.00000000000E+00  0.45593999997E+02  0.45594000000E+02  0.51100000000E-03 0. -1.
         11   -1    0    0    0    0 -0.00000000000E+00 -0.00000000000E+00 -0.45593999997E+02  0.45594000000E+02  0.51100000000E-03 0.  1.
    9900012    2    1    2    0    0  0.10781485519E+02 -0.17637969728E+01  0.15209503722E+02  0.72461537087E+02  0.69999956742E+02 0.  0.
         12    1    1    2    0    0 -0.10781485519E+02  0.17637969728E+01 -0.15209503722E+02  0.18726462913E+02  0.00000000000E+00 0. -1.
         11    1    3    3    0    0 -0.43533210312E+00 -0.41501631492E+01 -0.34286725882E+01  0.54008484689E+01  0.51100000000E-03 0. -1.
        -11    1    3    3    0    0 -0.23025378708E+02  0.12804845360E+02 -0.74540559730E+00  0.26356930001E+02  0.51100000000E-03 0.  1.
         12    1    3    3    0    0  0.34242196330E+02 -0.10418479183E+02  0.19383581907E+02  0.40703758617E+02  0.00000000000E+00 0. -1.
</event>
<event>
 7    1  0.1692604E-013  0.7246154E+02  0.7816164E-02  0.1226708E+00
        -11   -1    0    0    0    0  0.00000000000E+00  0.00000000000E+00  0.45593999997E+02  0.45594000000E+02  0.51100000000E-03 0.  1.
         11   -1    0    0    0    0 -0.00000000000E+00 -0.00000000000E+00 -0.45593999997E+02  0.45594000000E+02  0.51100000000E-03 0. -1.
    9900012    2    1    2    0    0 -0.24746901286E+01  0.87033814365E+01  0.16395350427E+02  0.72461535964E+02  0.69999955278E+02 0.  0.
         12    1    1    2    0    0  0.24746901286E+01 -0.87033814365E+01 -0.16395350427E+02  0.18726464036E+02  0.00000000000E+00 0. -1.
         11    1    3    3    0    0 -0.13788383011E+02  0.15548358772E+02  0.31171810759E+01  0.21013990213E+02  0.51100000000E-03 0. -1.
        -11    1    3    3    0    0 -0.14165137437E+02 -0.96051884863E+01  0.18596825986E+02  0.25273557357E+02  0.51100000000E-03 0.  1.
        -12    1    3    3    0    0  0.25478830319E+02  0.27602111506E+01 -0.53186566344E+01  0.26173988393E+02  0.00000000000E+00 0.  1.
</event>
<event>
 7    1  0.1692604E-013  0.7246141E+02  0.7816164E-02  0.1226708E+00
        -11   -1    0    0    0    0  0.00000000000E+00  0.00000000000E+00  0.45593999997E+02  0.45594000000E+02  0.51100000000E-03 0.  1.
         11   -1    0    0    0    0 -0.00000000000E+00 -0.00000000000E+00 -0.45593999997E+02  0.45594000000E+02  0.51100000000E-03 0. -1.
    9900012    2    1    2    0    0  0.10492363361E+01  0.10284415324E+02  0.15614575049E+02  0.72461413301E+02  0.69999795486E+02 0.  0.
         12    1    1    2    0    0 -0.10492363361E+01 -0.10284415324E+02 -0.15614575049E+02  0.18726586699E+02  0.00000000000E+00 0. -1.
         11    1    3    3    0    0 -0.23716280779E+02  0.11018344605E+02  0.17176041046E+02  0.31287094434E+02  0.51100000000E-03 0. -1.
        -11    1    3    3    0    0 -0.14371954351E+01  0.10540257105E+02  0.52267621384E+01  0.11852493124E+02  0.51100000000E-03 0.  1.
         12    1    3    3    0    0  0.26202712550E+02 -0.11274186386E+02 -0.67882281357E+01  0.29321825742E+02  0.00000000000E+00 0. -1.
</event>
<event>
 7    1  0.1692604E-013  0.7246155E+02  0.7816164E-02  0.1226708E+00
        -11   -1    0    0    0    0  0.00000000000E+00  0.00000000000E+00  0.45593999997E+02  0.45594000000E+02  0.51100000000E-03 0. -1.
         11   -1    0    0    0    0 -0.00000000000E+00 -0.00000000000E+00 -0.45593999997E+02  0.45594000000E+02  0.51100000000E-03 0.  1.
    9900012    2    1    2    0    0  0.11383965829E+02 -0.12251090302E+01 -0.14818380280E+02  0.72461549075E+02  0.69999972358E+02 0.  0.
         12    1    1    2    0    0 -0.11383965829E+02  0.12251090302E+01  0.14818380280E+02  0.18726450925E+02  0.00000000000E+00 0. -1.
         11    1    3    3    0    0  0.57636494143E+00 -0.48539450287E+01  0.28390487384E+01  0.56527141169E+01  0.51100000000E-03 0. -1.
        -11    1    3    3    0    0 -0.26170554121E+02  0.22947028093E+01 -0.11628813312E+01  0.26296689093E+02  0.51100000000E-03 0.  1.
         12    1    3    3    0    0  0.36978155009E+02  0.13341331892E+01 -0.16494547687E+02  0.40512145865E+02  0.00000000000E+00 0. -1.
</event>
<event>
 7    1  0.1692604E-013  0.7246160E+02  0.7816164E-02  0.1226708E+00
        -11   -1    0    0    0    0  0.00000000000E+00  0.00000000000E+00  0.45593999997E+02  0.45594000000E+02  0.51100000000E-03 0.  1.
         11   -1    0    0    0    0 -0.00000000000E+00 -0.00000000000E+00 -0.45593999997E+02  0.45594000000E+02  0.51100000000E-03 0. -1.
    9900012    2    1    2    0    0  0.80383950855E+00 -0.35739466512E+01  0.18364611334E+02  0.72461596126E+02  0.70000033650E+02 0.  0.
         12    1    1    2    0    0 -0.80383950855E+00  0.35739466512E+01 -0.18364611334E+02  0.18726403874E+02  0.00000000000E+00 0. -1.
         11    1    3    3    0    0 -0.55420671112E-02  0.16246887321E+02 -0.96288886772E+01  0.18885890917E+02  0.51100000000E-03 0. -1.
        -11    1    3    3    0    0  0.12633591891E+02  0.35278677133E+01 -0.25398410319E+01  0.13360549667E+02  0.51100000000E-03 0.  1.
        -12    1    3    3    0    0 -0.11824210316E+02 -0.23348701685E+02  0.30533341043E+02  0.40215155541E+02  0.00000000000E+00 0.  1.
</event>
<event>
 7    1  0.1692604E-013  0.7246156E+02  0.7816164E-02  0.1226708E+00
        -11   -1    0    0    0    0  0.00000000000E+00  0.00000000000E+00  0.45593999997E+02  0.45594000000E+02  0.51100000000E-03 0.  1.
         11   -1    0    0    0    0 -0.00000000000E+00 -0.00000000000E+00 -0.45593999997E+02  0.45594000000E+02  0.51100000000E-03 0. -1.
    9900012    2    1    2    0    0  0.40680841177E+01 -0.13548717787E+02  0.12270392205E+02  0.72461559150E+02  0.69999985483E+02 0.  0.
         12    1    1    2    0    0 -0.40680841177E+01  0.13548717787E+02 -0.12270392205E+02  0.18726440850E+02  0.00000000000E+00 0. -1.
         11    1    3    3    0    0 -0.19969681148E+02 -0.80688696741E+01 -0.11213720915E+02  0.24282552584E+02  0.51100000000E-03 0. -1.
        -11    1    3    3    0    0  0.14398470231E+02 -0.10353384658E+02 -0.44033308740E+01  0.18272871748E+02  0.51100000000E-03 0.  1.
         12    1    3    3    0    0  0.96392950350E+01  0.48735365455E+01  0.27887443994E+02  0.29906134818E+02  0.00000000000E+00 0. -1.
</event>
<event>
 7    1  0.1692604E-013  0.7246157E+02  0.7816164E-02  0.1226708E+00
        -11   -1    0    0    0    0  0.00000000000E+00  0.00000000000E+00  0.45593999997E+02  0.45594000000E+02  0.51100000000E-03 0.  1.
         11   -1    0    0    0    0 -0.00000000000E+00 -0.00000000000E+00 -0.45593999997E+02  0.45594000000E+02  0.51100000000E-03 0. -1.
    9900012    2    1    2    0    0  0.17007691698E+02  0.73222741920E+01  0.27932205049E+01  0.72461565288E+02  0.69999993478E+02 0.  0.
         12    1    1    2    0    0 -0.17007691698E+02 -0.73222741920E+01 -0.27932205049E+01  0.18726434712E+02  0.00000000000E+00 0. -1.
         11    1    3    3    0    0  0.18022132438E+02 -0.18615216970E+02 -0.18127574836E+02  0.31621709792E+02  0.51100000000E-03 0. -1.
        -11    1    3    3    0    0 -0.53519371019E+00  0.17077918970E+02 -0.10769311247E+01  0.17120208222E+02  0.51100000000E-03 0.  1.
        -12    1    3    3    0    0 -0.47924702945E+00  0.88595721916E+01  0.21997726466E+02  0.23719647274E+02  0.00000000000E+00 0.  1.
</event>
<event>
 7    1  0.1692604E-013  0.7246159E+02  0.7816164E-02  0.1226708E+00
        -11   -1    0    0    0    0  0.00000000000E+00  0.00000000000E+00  0.45593999997E+02  0.45594000000E+02  0.51100000000E-03 0. -1.
         11   -1    0    0    0    0 -0.00000000000E+00 -0.00000000000E+00 -0.45593999997E+02  0.45594000000E+02  0.51100000000E-03 0.  1.
    9900012    2    1    2    0    0 -0.15371180907E+02 -0.10369115710E+02 -0.26242180932E+01  0.72461593946E+02  0.70000030810E+02 0.  0.
         12    1    1    2    0    0  0.15371180907E+02  0.10369115710E+02  0.26242180932E+01  0.18726406054E+02  0.00000000000E+00 0. -1.
         11    1    3    3    0    0  0.12602280221E+02  0.15334086764E+01 -0.16577130563E+02  0.20879896238E+02  0.51100000000E-03 0. -1.
        -11    1    3    3    0    0 -0.86898178196E+01 -0.15406945752E+02 -0.10245568293E+02  0.20441589494E+02  0.51100000000E-03 0.  1.
         12    1    3    3    0    0 -0.19283643308E+02  0.35044213656E+01  0.24198480763E+02  0.31140108214E+02  0.00000000000E+00 0. -1.
</event>
<event>
 7    1  0.1692604E-013  0.7246158E+02  0.7816164E-02  0.1226708E+00
        -11   -1    0    0    0    0  0.00000000000E+00  0.00000000000E+00  0.45593999997E+02  0.45594000000E+02  0.51100000000E-03 0. -1.
         11   -1    0    0    0    0 -0.00000000000E+00 -0.00000000000E+00 -0.45593999997E+02  0.45594000000E+02  0.51100000000E-03 0.  1.
    9900012    2    1    2    0    0  0.44476288183E+01 -0.62341842346E+01 -0.17088957702E+02  0.72461576676E+02  0.70000008313E+02 0.  0.
         12    1    1    2    0    0 -0.44476288183E+01  0.62341842346E+01  0.17088957702E+02  0.18726423324E+02  0.00000000000E+00 0. -1.
         11    1    3    3    0    0  0.36977933295E+01 -0.18011818652E+02  0.13076903513E+02  0.22563348431E+02  0.51100000000E-03 0. -1.
        -11    1    3    3    0    0  0.13693492958E+02  0.26534131275E+01  0.19560861758E+01  0.14084694672E+02  0.51100000000E-03 0.  1.
        -12    1    3    3    0    0 -0.12943657469E+02  0.91242212902E+01 -0.32121947391E+02  0.35813533573E+02  0.00000000000E+00 0.  1.
</event>
<event>
 7    1  0.1692604E-013  0.7246154E+02  0.7816164E-02  0.1226708E+00
        -11   -1    0    0    0    0  0.00000000000E+00  0.00000000000E+00  0.45593999997E+02  0.45594000000E+02  0.51100000000E-03 0. -1.
         11   -1    0    0    0    0 -0.00000000000E+00 -0.00000000000E+00 -0.45593999997E+02  0.45594000000E+02  0.51100000000E-03 0.  1.
    9900012    2    1    2    0    0 -0.12728369290E+01 -0.18227532161E+02 -0.41008882518E+01  0.72461539390E+02  0.69999959742E+02 0.  0.
         12    1    1    2    0    0  0.12728369290E+01  0.18227532161E+02  0.41008882518E+01  0.18726460610E+02  0.00000000000E+00 0. -1.
         11    1    3    3    0    0  0.10421531378E+02  0.77513896234E+01 -0.10611790995E+02  0.16772073984E+02  0.51100000000E-03 0. -1.
        -11    1    3    3    0    0 -0.29576761434E+02 -0.98457035532E+01  0.24909387034E+01  0.31271831915E+02  0.51100000000E-03 0.  1.
         12    1    3    3    0    0  0.17882393128E+02 -0.16133218231E+02  0.40199640394E+01  0.24417633492E+02  0.00000000000E+00 0. -1.
</event>
<event>
 7    1  0.1692604E-013  0.7246163E+02  0.7816164E-02  0.1226708E+00
        -11   -1    0    0    0    0  0.00000000000E+00  0.00000000000E+00  0.45593999997E+02  0.45594000000E+02  0.51100000000E-03 0.  1.
         11   -1    0    0    0    0 -0.00000000000E+00 -0.00000000000E+00 -0.45593999997E+02  0.45594000000E+02  0.51100000000E-03 0. -1.
    9900012    2    1    2    0    0  0.23669689390E+01 -0.99644205983E+01  0.15677524022E+02  0.72461628774E+02  0.70000076181E+02 0.  0.
         12    1    1    2    0    0 -0.23669689390E+01  0.99644205983E+01 -0.15677524022E+02  0.18726371226E+02  0.00000000000E+00 0. -1.
         11    1    3    3    0    0  0.40338782231E+01 -0.36272225734E+01 -0.10185474770E+02  0.11540052585E+02  0.51100000000E-03 0. -1.
        -11    1    3    3    0    0  0.22900534380E+02  0.12937996980E+00  0.27108359442E+02  0.35486819609E+02  0.51100000000E-03 0.  1.
         12    1    3    3    0    0 -0.24567443664E+02 -0.64665779948E+01 -0.12453606496E+01  0.25434756580E+02  0.00000000000E+00 0. -1.
</event>
<event>
 7    1  0.1692604E-013  0.7246214E+02  0.7816164E-02  0.1226706E+00
        -11   -1    0    0    0    0  0.00000000000E+00  0.00000000000E+00  0.45593999997E+02  0.45594000000E+02  0.51100000000E-03 0. -1.
         11   -1    0    0    0    0 -0.00000000000E+00 -0.00000000000E+00 -0.45593999997E+02  0.45594000000E+02  0.51100000000E-03 0.  1.
    9900012    2    1    2    0    0 -0.43318188486E+01  0.14104864904E+02 -0.11530214257E+02  0.72462143295E+02  0.70000746436E+02 0.  0.
         12    1    1    2    0    0  0.43318188486E+01 -0.14104864904E+02  0.11530214257E+02  0.18725856705E+02  0.00000000000E+00 0. -1.
         11    1    3    3    0    0 -0.61645257420E+01 -0.34170659087E+01 -0.91404093075E+01  0.11542304779E+02  0.51100000000E-03 0. -1.
        -11    1    3    3    0    0  0.18609840628E+02 -0.18704057200E+01 -0.21826055590E+02  0.28743717377E+02  0.51100000000E-03 0.  1.
         12    1    3    3    0    0 -0.16777133735E+02  0.19392336533E+02  0.19436250641E+02  0.32176121139E+02  0.00000000000E+00 0. -1.
</event>
<event>
 7    1  0.1692604E-013  0.7246165E+02  0.7816164E-02  0.1226708E+00
        -11   -1    0    0    0    0  0.00000000000E+00  0.00000000000E+00  0.45593999997E+02  0.45594000000E+02  0.51100000000E-03 0.  1.
         11   -1    0    0    0    0 -0.00000000000E+00 -0.00000000000E+00 -0.45593999997E+02  0.45594000000E+02  0.51100000000E-03 0. -1.
    9900012    2    1    2    0    0  0.78467834090E+01  0.16884097293E+02  0.20078223731E+01  0.72461652199E+02  0.70000106696E+02 0.  0.
         12    1    1    2    0    0 -0.78467834090E+01 -0.16884097293E+02 -0.20078223731E+01  0.18726347801E+02  0.00000000000E+00 0. -1.
         11    1    3    3    0    0  0.12667445350E+02 -0.26990030502E+01 -0.27791563649E+02  0.30661373085E+02  0.51100000000E-03 0. -1.
        -11    1    3    3    0    0 -0.23556905785E+01  0.29655783026E+01 -0.30774570222E+01  0.48800281511E+01  0.51100000000E-03 0.  1.
        -12    1    3    3    0    0 -0.24649713627E+01  0.16617522041E+02  0.32876843044E+02  0.36920250963E+02  0.00000000000E+00 0.  1.
</event>
<event>
 7    1  0.1692604E-013  0.7246157E+02  0.7816164E-02  0.1226708E+00
        -11   -1    0    0    0    0  0.00000000000E+00  0.00000000000E+00  0.45593999997E+02  0.45594000000E+02  0.51100000000E-03 0.  1.
         11   -1    0    0    0    0 -0.00000000000E+00 -0.00000000000E+00 -0.45593999997E+02  0.45594000000E+02  0.51100000000E-03 0. -1.
    9900012    2    1    2    0    0  0.77632075083E+01  0.88773112752E+01  0.14546657191E+02  0.72461567299E+02  0.69999996097E+02 0.  0.
         12    1    1    2    0    0 -0.77632075083E+01 -0.88773112752E+01 -0.14546657191E+02  0.18726432701E+02  0.00000000000E+00 0. -1.
         11    1    3    3    0    0 -0.18971311113E+02  0.13420213040E+02 -0.79004299857E+01  0.24544440462E+02  0.51100000000E-03 0. -1.
        -11    1    3    3    0    0  0.48902973184E+01  0.40554423109E+01  0.23573490835E+02  0.24414567181E+02  0.51100000000E-03 0.  1.
        -12    1    3    3    0    0  0.21844221303E+02 -0.85983440755E+01 -0.11264036590E+01  0.23502559656E+02  0.00000000000E+00 0.  1.
</event>
<event>
 7    1  0.1692604E-013  0.7246168E+02  0.7816164E-02  0.1226708E+00
        -11   -1    0    0    0    0  0.00000000000E+00  0.00000000000E+00  0.45593999997E+02  0.45594000000E+02  0.51100000000E-03 0.  1.
         11   -1    0    0    0    0 -0.00000000000E+00 -0.00000000000E+00 -0.45593999997E+02  0.45594000000E+02  0.51100000000E-03 0. -1.
    9900012    2    1    2    0    0 -0.17392789448E+02  0.50714701572E+01  0.47377445802E+01  0.72461677402E+02  0.70000139528E+02 0.  0.
         12    1    1    2    0    0  0.17392789448E+02 -0.50714701572E+01 -0.47377445802E+01  0.18726322598E+02  0.00000000000E+00 0. -1.
         11    1    3    3    0    0  0.12444851136E+02  0.16860032632E+02  0.12193099540E+02  0.24244725133E+02  0.51100000000E-03 0. -1.
        -11    1    3    3    0    0 -0.38033521269E+01 -0.81432482447E+01  0.12370471141E+02  0.15290733661E+02  0.51100000000E-03 0.  1.
         12    1    3    3    0    0 -0.26034288457E+02 -0.36453142299E+01 -0.19825826100E+02  0.32926218608E+02  0.00000000000E+00 0. -1.
</event>
<event>
 7    1  0.1692604E-013  0.7246164E+02  0.7816164E-02  0.1226708E+00
        -11   -1    0    0    0    0  0.00000000000E+00  0.00000000000E+00  0.45593999997E+02  0.45594000000E+02  0.51100000000E-03 0. -1.
         11   -1    0    0    0    0 -0.00000000000E+00 -0.00000000000E+00 -0.45593999997E+02  0.45594000000E+02  0.51100000000E-03 0.  1.
    9900012    2    1    2    0    0  0.19095054518E+01  0.16134185015E+02 -0.93122818408E+01  0.72461635423E+02  0.70000084843E+02 0.  0.
         12    1    1    2    0    0 -0.19095054518E+01 -0.16134185015E+02  0.93122818408E+01  0.18726364577E+02  0.00000000000E+00 0. -1.
         11    1    3    3    0    0  0.13070075924E+02  0.31982847535E+02  0.15548633227E+02  0.37887853153E+02  0.51100000000E-03 0. -1.
        -11    1    3    3    0    0  0.29148662029E+01 -0.45874343429E+00 -0.48084581450E+01  0.56416451956E+01  0.51100000000E-03 0.  1.
        -12    1    3    3    0    0 -0.14075436675E+02 -0.15389919085E+02 -0.20052456923E+02  0.28932137074E+02  0.00000000000E+00 0.  1.
</event>
<event>
 7    1  0.1692604E-013  0.7246158E+02  0.7816164E-02  0.1226708E+00
        -11   -1    0    0    0    0  0.00000000000E+00  0.00000000000E+00  0.45593999997E+02  0.45594000000E+02  0.51100000000E-03 0.  1.
         11   -1    0    0    0    0 -0.00000000000E+00 -0.00000000000E+00 -0.45593999997E+02  0.45594000000E+02  0.51100000000E-03 0. -1.
    9900012    2    1    2    0    0 -0.14980635700E+02 -0.91814375271E+01 -0.64776871441E+01  0.72461583584E+02  0.70000017312E+02 0.  0.
         12    1    1    2    0    0  0.14980635700E+02  0.91814375271E+01  0.64776871441E+01  0.18726416416E+02  0.00000000000E+00 0. -1.
         11    1    3    3    0    0  0.12137018043E+01 -0.35494025045E+01 -0.16989730818E+02  0.17398916166E+02  0.51100000000E-03 0. -1.
        -11    1    3    3    0    0 -0.18000901980E+02 -0.15019653854E+02 -0.14990687370E+02  0.27827022516E+02  0.51100000000E-03 0.  1.
        -12    1    3    3    0    0  0.18065644751E+01  0.93876188314E+01  0.25502731045E+02  0.27235644902E+02  0.00000000000E+00 0.  1.
</event>
<event>
 7    1  0.1692604E-013  0.7246155E+02  0.7816164E-02  0.1226708E+00
        -11   -1    0    0    0    0  0.00000000000E+00  0.00000000000E+00  0.45593999997E+02  0.45594000000E+02  0.51100000000E-03 0. -1.
         11   -1    0    0    0    0 -0.00000000000E+00 -0.00000000000E+00 -0.45593999997E+02  0.45594000000E+02  0.51100000000E-03 0.  1.
    9900012    2    1    2    0    0  0.14080287523E+01 -0.79780247591E+01 -0.16883383306E+02  0.72461546628E+02  0.69999969170E+02 0.  0.
         12    1    1    2    0    0 -0.14080287523E+01  0.79780247591E+01  0.16883383306E+02  0.18726453372E+02  0.00000000000E+00 0. -1.
         11    1    3    3    0    0  0.11858638011E+02 -0.29801505103E+01  0.17743484272E+02  0.21548545819E+02  0.51100000000E-03 0. -1.
        -11    1    3    3    0    0 -0.44523066400E+01 -0.10919260019E+02  0.31513769902E+01  0.12205918687E+02  0.51100000000E-03 0.  1.
        -12    1    3    3    0    0 -0.59983026187E+01  0.59213857705E+01 -0.37778244569E+02  0.38707082122E+02  0.00000000000E+00 0.  1.
</event>
<event>
 7    1  0.1692604E-013  0.7246156E+02  0.7816164E-02  0.1226708E+00
        -11   -1    0    0    0    0  0.00000000000E+00  0.00000000000E+00  0.45593999997E+02  0.45594000000E+02  0.51100000000E-03 0. -1.
         11   -1    0    0    0    0 -0.00000000000E+00 -0.00000000000E+00 -0.45593999997E+02  0.45594000000E+02  0.51100000000E-03 0.  1.
    9900012    2    1    2    0    0  0.53245660742E+01  0.58329345992E+01 -0.16979557697E+02  0.72461561217E+02  0.69999988175E+02 0.  0.
         12    1    1    2    0    0 -0.53245660742E+01 -0.58329345992E+01  0.16979557697E+02  0.18726438783E+02  0.00000000000E+00 0. -1.
         11    1    3    3    0    0 -0.15069083099E+02  0.23702135337E+02  0.24977384808E+01  0.28197644986E+02  0.51100000000E-03 0. -1.
        -11    1    3    3    0    0 -0.41965697938E+01 -0.34049701440E+01 -0.14276268645E+02  0.15264889990E+02  0.51100000000E-03 0.  1.
        -12    1    3    3    0    0  0.24590218967E+02 -0.14464230594E+02 -0.52010275321E+01  0.28999026241E+02  0.00000000000E+00 0.  1.
</event>
<event>
 7    1  0.1692604E-013  0.7246154E+02  0.7816164E-02  0.1226708E+00
        -11   -1    0    0    0    0  0.00000000000E+00  0.00000000000E+00  0.45593999997E+02  0.45594000000E+02  0.51100000000E-03 0. -1.
         11   -1    0    0    0    0 -0.00000000000E+00 -0.00000000000E+00 -0.45593999997E+02  0.45594000000E+02  0.51100000000E-03 0.  1.
    9900012    2    1    2    0    0  0.10490767910E+02  0.40415342976E+01 -0.14976311873E+02  0.72461544699E+02  0.69999966657E+02 0.  0.
         12    1    1    2    0    0 -0.10490767910E+02 -0.40415342976E+01  0.14976311873E+02  0.18726455301E+02  0.00000000000E+00 0. -1.
         11    1    3    3    0    0  0.19779154895E+00  0.18668942890E+02 -0.62226364336E+01  0.19679678721E+02  0.51100000000E-03 0. -1.
        -11    1    3    3    0    0 -0.61736110628E+01  0.18032620547E-02 -0.24782969922E+02  0.25540342113E+02  0.51100000000E-03 0.  1.
         12    1    3    3    0    0  0.16466587424E+02 -0.14629211854E+02  0.16029294482E+02  0.27241523865E+02  0.00000000000E+00 0. -1.
</event>
<event>
 7    1  0.1692604E-013  0.7246158E+02  0.7816164E-02  0.1226708E+00
        -11   -1    0    0    0    0  0.00000000000E+00  0.00000000000E+00  0.45593999997E+02  0.45594000000E+02  0.51100000000E-03 0. -1.
         11   -1    0    0    0    0 -0.00000000000E+00 -0.00000000000E+00 -0.45593999997E+02  0.45594000000E+02  0.51100000000E-03 0.  1.
    9900012    2    1    2    0    0 -0.17021386647E+01 -0.12640360398E+02 -0.13711417492E+02  0.72461575978E+02  0.70000007404E+02 0.  0.
         12    1    1    2    0    0  0.17021386647E+01  0.12640360398E+02  0.13711417492E+02  0.18726424022E+02  0.00000000000E+00 0. -1.
         11    1    3    3    0    0  0.11342044187E+02 -0.11165450036E+00  0.17912528307E+02  0.21201724073E+02  0.51100000000E-03 0. -1.
        -11    1    3    3    0    0  0.76963038991E+01 -0.34997252680E+01 -0.26838414396E+02  0.28138615073E+02  0.51100000000E-03 0.  1.
         12    1    3    3    0    0 -0.20740486750E+02 -0.90289806293E+01 -0.47855314031E+01  0.23121236832E+02  0.00000000000E+00 0. -1.
</event>
<event>
 7    1  0.1692604E-013  0.7246147E+02  0.7816164E-02  0.1226708E+00
        -11   -1    0    0    0    0  0.00000000000E+00  0.00000000000E+00  0.45593999997E+02  0.45594000000E+02  0.51100000000E-03 0.  1.
         11   -1    0    0    0    0 -0.00000000000E+00 -0.00000000000E+00 -0.45593999997E+02  0.45594000000E+02  0.51100000000E-03 0. -1.
    9900012    2    1    2    0    0 -0.11775496390E+02 -0.13467562151E+02  0.55358414690E+01  0.72461465716E+02  0.69999863767E+02 0.  0.
         12    1    1    2    0    0  0.11775496390E+02  0.13467562151E+02 -0.55358414690E+01  0.18726534284E+02  0.00000000000E+00 0. -1.
         11    1    3    3    0    0  0.10664645485E+02 -0.88190890068E+01 -0.30823199424E+00  0.13842181961E+02  0.51100000000E-03 0. -1.
        -11    1    3    3    0    0  0.13026022832E+02 -0.16407581561E+02  0.15089781306E+01  0.21003881040E+02  0.51100000000E-03 0.  1.
        -12    1    3    3    0    0 -0.35466164707E+02  0.11759108416E+02  0.43350953326E+01  0.37615402714E+02  0.00000000000E+00 0.  1.
</event>
<event>
 7    1  0.1692604E-013  0.7246158E+02  0.7816164E-02  0.1226708E+00
        -11   -1    0    0    0    0  0.00000000000E+00  0.00000000000E+00  0.45593999997E+02  0.45594000000E+02  0.51100000000E-03 0.  1.
         11   -1    0    0    0    0 -0.00000000000E+00 -0.00000000000E+00 -0.45593999997E+02  0.45594000000E+02  0.51100000000E-03 0. -1.
    9900012    2    1    2    0    0 -0.12219941676E+02  0.10992123197E+02 -0.89735849448E+01  0.72461575523E+02  0.70000006811E+02 0.  0.
         12    1    1    2    0    0  0.12219941676E+02 -0.10992123197E+02  0.89735849448E+01  0.18726424477E+02  0.00000000000E+00 0. -1.
         11    1    3    3    0    0 -0.56106738242E+01  0.10285800507E+02 -0.30462156874E+02  0.32637713684E+02  0.51100000000E-03 0. -1.
        -11    1    3    3    0    0 -0.11858040183E+02 -0.31448398068E+01 -0.44734000053E+01  0.13058117869E+02  0.51100000000E-03 0.  1.
        -12    1    3    3    0    0  0.52487723318E+01  0.38511624967E+01  0.25961971934E+02  0.26765743970E+02  0.00000000000E+00 0.  1.
</event>
<event>
 7    1  0.1692604E-013  0.7246159E+02  0.7816164E-02  0.1226708E+00
        -11   -1    0    0    0    0  0.00000000000E+00  0.00000000000E+00  0.45593999997E+02  0.45594000000E+02  0.51100000000E-03 0.  1.
         11   -1    0    0    0    0 -0.00000000000E+00 -0.00000000000E+00 -0.45593999997E+02  0.45594000000E+02  0.51100000000E-03 0. -1.
    9900012    2    1    2    0    0  0.11672920950E+02 -0.81914294286E+00  0.14620207476E+02  0.72461586962E+02  0.70000021712E+02 0.  0.
         12    1    1    2    0    0 -0.11672920950E+02  0.81914294286E+00 -0.14620207476E+02  0.18726413038E+02  0.00000000000E+00 0. -1.
         11    1    3    3    0    0 -0.75294369844E+01  0.20286063891E+01 -0.23641322938E+02  0.24894172324E+02  0.51100000000E-03 0. -1.
        -11    1    3    3    0    0  0.78061942223E+00 -0.48208579507E+01 -0.18768788244E+00  0.48872553714E+01  0.51100000000E-03 0.  1.
        -12    1    3    3    0    0  0.18421738512E+02  0.19731086187E+01  0.38449218296E+02  0.42680159266E+02  0.00000000000E+00 0.  1.
</event>
<event>
 7    1  0.1692604E-013  0.7246155E+02  0.7816164E-02  0.1226708E+00
        -11   -1    0    0    0    0  0.00000000000E+00  0.00000000000E+00  0.45593999997E+02  0.45594000000E+02  0.51100000000E-03 0. -1.
         11   -1    0    0    0    0 -0.00000000000E+00 -0.00000000000E+00 -0.45593999997E+02  0.45594000000E+02  0.51100000000E-03 0.  1.
    9900012    2    1    2    0    0  0.82436520745E+01  0.14354250278E+02  0.87565784539E+01  0.72461549007E+02  0.69999972269E+02 0.  0.
         12    1    1    2    0    0 -0.82436520745E+01 -0.14354250278E+02 -0.87565784539E+01  0.18726450993E+02  0.00000000000E+00 0. -1.
         11    1    3    3    0    0 -0.14706929406E+02 -0.15895667421E+02  0.22372801906E+01  0.21770885105E+02  0.51100000000E-03 0. -1.
        -11    1    3    3    0    0 -0.32416958125E+01 -0.44566171731E+01  0.45816937415E+01  0.71667249264E+01  0.51100000000E-03 0.  1.
         12    1    3    3    0    0  0.26192277293E+02  0.34706534873E+02  0.19376045218E+01  0.43523938976E+02  0.00000000000E+00 0. -1.
</event>
<event>
 7    1  0.1692604E-013  0.7246149E+02  0.7816164E-02  0.1226708E+00
        -11   -1    0    0    0    0  0.00000000000E+00  0.00000000000E+00  0.45593999997E+02  0.45594000000E+02  0.51100000000E-03 0. -1.
         11   -1    0    0    0    0 -0.00000000000E+00 -0.00000000000E+00 -0.45593999997E+02  0.45594000000E+02  0.51100000000E-03 0.  1.
    9900012    2    1    2    0    0  0.17191194062E+02  0.51677847984E+01 -0.53328350442E+01  0.72461487175E+02  0.69999891721E+02 0.  0.
         12    1    1    2    0    0 -0.17191194062E+02 -0.51677847984E+01  0.53328350442E+01  0.18726512825E+02  0.00000000000E+00 0. -1.
         11    1    3    3    0    0  0.23365803178E+02 -0.17287775007E+02  0.26318145734E+01  0.29184831181E+02  0.51100000000E-03 0. -1.
        -11    1    3    3    0    0  0.20082836582E+01 -0.64398864883E+01 -0.11196387902E+02  0.13071512673E+02  0.51100000000E-03 0.  1.
        -12    1    3    3    0    0 -0.81828927751E+01  0.28895446294E+02  0.32317382848E+01  0.30205143321E+02  0.00000000000E+00 0.  1.
</event>
<event>
 7    1  0.1692604E-013  0.7246159E+02  0.7816164E-02  0.1226708E+00
        -11   -1    0    0    0    0  0.00000000000E+00  0.00000000000E+00  0.45593999997E+02  0.45594000000E+02  0.51100000000E-03 0.  1.
         11   -1    0    0    0    0 -0.00000000000E+00 -0.00000000000E+00 -0.45593999997E+02  0.45594000000E+02  0.51100000000E-03 0. -1.
    9900012    2    1    2    0    0 -0.39962130343E+00 -0.14873179315E+02  0.11371338016E+02  0.72461588480E+02  0.70000023690E+02 0.  0.
         12    1    1    2    0    0  0.39962130343E+00  0.14873179315E+02 -0.11371338016E+02  0.18726411520E+02  0.00000000000E+00 0. -1.
         11    1    3    3    0    0  0.19112413840E+02  0.15262240034E+02 -0.46547611648E+00  0.24462972058E+02  0.51100000000E-03 0. -1.
        -11    1    3    3    0    0  0.10636124431E+01 -0.11127261522E+00 -0.69544649309E+01  0.70362089054E+01  0.51100000000E-03 0.  1.
        -12    1    3    3    0    0 -0.20575647586E+02 -0.30024146734E+02  0.18791279063E+02  0.40962407517E+02  0.00000000000E+00 0.  1.
</event>
<event>
 7    1  0.1692604E-013  0.7246156E+02  0.7816164E-02  0.1226708E+00
        -11   -1    0    0    0    0  0.00000000000E+00  0.00000000000E+00  0.45593999997E+02  0.45594000000E+02  0.51100000000E-03 0.  1.
         11   -1    0    0    0    0 -0.00000000000E+00 -0.00000000000E+00 -0.45593999997E+02  0.45594000000E+02  0.51100000000E-03 0. -1.
    9900012    2    1    2    0    0  0.76652465613E+01  0.15284627267E+02  0.76356809596E+01  0.72461562558E+02  0.69999989922E+02 0.  0.
         12    1    1    2    0    0 -0.76652465613E+01 -0.15284627267E+02 -0.76356809596E+01  0.18726437442E+02  0.00000000000E+00 0. -1.
         11    1    3    3    0    0  0.96434300671E+01  0.15014181864E+00 -0.98253623313E+01  0.13767934893E+02  0.51100000000E-03 0. -1.
        -11    1    3    3    0    0  0.10164621699E+02 -0.77179187671E+01 -0.13341739548E+02  0.18463147587E+02  0.51100000000E-03 0.  1.
         12    1    3    3    0    0 -0.12142805205E+02  0.22852404216E+02  0.30802782839E+02  0.40230480078E+02  0.00000000000E+00 0. -1.
</event>
<event>
 7    1  0.1692604E-013  0.7246152E+02  0.7816164E-02  0.1226708E+00
        -11   -1    0    0    0    0  0.00000000000E+00  0.00000000000E+00  0.45593999997E+02  0.45594000000E+02  0.51100000000E-03 0.  1.
         11   -1    0    0    0    0 -0.00000000000E+00 -0.00000000000E+00 -0.45593999997E+02  0.45594000000E+02  0.51100000000E-03 0. -1.
    9900012    2    1    2    0    0 -0.29913456385E+01 -0.10446171705E+02  0.15251576332E+02  0.72461515208E+02  0.69999928240E+02 0.  0.
         12    1    1    2    0    0  0.29913456385E+01  0.10446171705E+02 -0.15251576332E+02  0.18726484792E+02  0.00000000000E+00 0. -1.
         11    1    3    3    0    0  0.58266439433E+01 -0.23454921113E+02  0.12514637660E+02  0.27215790639E+02  0.51100000000E-03 0. -1.
        -11    1    3    3    0    0 -0.33876480017E+01  0.96949958874E+01  0.22366227001E+02  0.24611322898E+02  0.51100000000E-03 0.  1.
         12    1    3    3    0    0 -0.54303415801E+01  0.33137535204E+01 -0.19629288329E+02  0.20634401672E+02  0.00000000000E+00 0. -1.
</event>
<event>
 7    1  0.1692604E-013  0.7246164E+02  0.7816164E-02  0.1226708E+00
        -11   -1    0    0    0    0  0.00000000000E+00  0.00000000000E+00  0.45593999997E+02  0.45594000000E+02  0.51100000000E-03 0. -1.
         11   -1    0    0    0    0 -0.00000000000E+00 -0.00000000000E+00 -0.45593999997E+02  0.45594000000E+02  0.51100000000E-03 0.  1.
    9900012    2    1    2    0    0 -0.10947594221E+02 -0.12802113963E+02 -0.81812348649E+01  0.72461640368E+02  0.70000091283E+02 0.  0.
         12    1    1    2    0    0  0.10947594221E+02  0.12802113963E+02  0.81812348649E+01  0.18726359632E+02  0.00000000000E+00 0. -1.
         11    1    3    3    0    0  0.16218449924E+02 -0.81776129497E+00  0.22743725937E+01  0.16397549282E+02  0.51100000000E-03 0. -1.
        -11    1    3    3    0    0 -0.19148728322E+01 -0.56368484668E+01  0.17127940861E+02  0.18133040479E+02  0.51100000000E-03 0.  1.
        -12    1    3    3    0    0 -0.25251171313E+02 -0.63475042016E+01 -0.27583548320E+02  0.37931050607E+02  0.00000000000E+00 0.  1.
</event>
<event>
 7    1  0.1692604E-013  0.7246156E+02  0.7816164E-02  0.1226708E+00
        -11   -1    0    0    0    0  0.00000000000E+00  0.00000000000E+00  0.45593999997E+02  0.45594000000E+02  0.51100000000E-03 0. -1.
         11   -1    0    0    0    0 -0.00000000000E+00 -0.00000000000E+00 -0.45593999997E+02  0.45594000000E+02  0.51100000000E-03 0.  1.
    9900012    2    1    2    0    0  0.10279326071E+02 -0.28940077208E+00 -0.15650279542E+02  0.72461560215E+02  0.69999986870E+02 0.  0.
         12    1    1    2    0    0 -0.10279326071E+02  0.28940077208E+00  0.15650279542E+02  0.18726439785E+02  0.00000000000E+00 0. -1.
         11    1    3    3    0    0  0.68805617365E+00  0.11897516120E+02  0.40179614484E+01  0.12576498939E+02  0.51100000000E-03 0. -1.
        -11    1    3    3    0    0  0.31533638404E+02 -0.24620806076E+01 -0.57731370441E+01  0.32152158613E+02  0.51100000000E-03 0.  1.
         12    1    3    3    0    0 -0.21942368507E+02 -0.97248362840E+01 -0.13895103946E+02  0.27732902663E+02  0.00000000000E+00 0. -1.
</event>
<event>
 7    1  0.1692604E-013  0.7246161E+02  0.7816164E-02  0.1226708E+00
        -11   -1    0    0    0    0  0.00000000000E+00  0.00000000000E+00  0.45593999997E+02  0.45594000000E+02  0.51100000000E-03 0. -1.
         11   -1    0    0    0    0 -0.00000000000E+00 -0.00000000000E+00 -0.45593999997E+02  0.45594000000E+02  0.51100000000E-03 0.  1.
    9900012    2    1    2    0    0  0.10915581283E+02  0.12086542612E+02 -0.92435585812E+01  0.72461606800E+02  0.70000047555E+02 0.  0.
         12    1    1    2    0    0 -0.10915581283E+02 -0.12086542612E+02  0.92435585812E+01  0.18726393200E+02  0.00000000000E+00 0. -1.
         11    1    3    3    0    0  0.13086806809E+02 -0.86177272755E+01 -0.22551124581E+02  0.27460570933E+02  0.51100000000E-03 0.  1.
        -11    1    3    3    0    0 -0.65373827712E+01 -0.95868368865E+01 -0.62523821407E-01  0.11603823701E+02  0.51100000000E-03 0. -1.
         12    1    3    3    0    0  0.43661572450E+01  0.30291106774E+02  0.13370089821E+02  0.33397212166E+02  0.00000000000E+00 0. -1.
</event>
<event>
 7    1  0.1692604E-013  0.7246158E+02  0.7816164E-02  0.1226708E+00
        -11   -1    0    0    0    0  0.00000000000E+00  0.00000000000E+00  0.45593999997E+02  0.45594000000E+02  0.51100000000E-03 0.  1.
         11   -1    0    0    0    0 -0.00000000000E+00 -0.00000000000E+00 -0.45593999997E+02  0.45594000000E+02  0.51100000000E-03 0. -1.
    9900012    2    1    2    0    0  0.14785406302E+02 -0.88495393456E+01  0.73318543536E+01  0.72461583514E+02  0.70000017221E+02 0.  0.
         12    1    1    2    0    0 -0.14785406302E+02  0.88495393456E+01 -0.73318543536E+01  0.18726416486E+02  0.00000000000E+00 0. -1.
         11    1    3    3    0    0 -0.12754044044E+02  0.12048712318E+02  0.23799361553E+02  0.29567663394E+02  0.51100000000E-03 0. -1.
        -11    1    3    3    0    0 -0.21242554476E+01  0.11050063493E+01  0.13962871905E+00  0.23985405311E+01  0.51100000000E-03 0.  1.
        -12    1    3    3    0    0  0.29663705794E+02 -0.22003258013E+02 -0.16607135918E+02  0.40495379589E+02  0.00000000000E+00 0.  1.
</event>
<event>
 7    1  0.1692604E-013  0.7246168E+02  0.7816164E-02  0.1226708E+00
        -11   -1    0    0    0    0  0.00000000000E+00  0.00000000000E+00  0.45593999997E+02  0.45594000000E+02  0.51100000000E-03 0.  1.
         11   -1    0    0    0    0 -0.00000000000E+00 -0.00000000000E+00 -0.45593999997E+02  0.45594000000E+02  0.51100000000E-03 0. -1.
    9900012    2    1    2    0    0  0.94472171897E+01  0.28869020694E+01  0.15908828540E+02  0.72461683178E+02  0.70000147052E+02 0.  0.
         12    1    1    2    0    0 -0.94472171897E+01 -0.28869020694E+01 -0.15908828540E+02  0.18726316822E+02  0.00000000000E+00 0. -1.
         11    1    3    3    0    0  0.20858998647E+02  0.41474638045E+01  0.10650034202E+02  0.23784921890E+02  0.51100000000E-03 0. -1.
        -11    1    3    3    0    0 -0.62061384433E+01  0.99994204496E+00  0.26218880949E+02  0.26961931625E+02  0.51100000000E-03 0.  1.
        -12    1    3    3    0    0 -0.52056430139E+01 -0.22605037801E+01 -0.20960086611E+02  0.21714829663E+02  0.00000000000E+00 0.  1.
</event>
<event>
 7    1  0.1692604E-013  0.7246158E+02  0.7816164E-02  0.1226708E+00
        -11   -1    0    0    0    0  0.00000000000E+00  0.00000000000E+00  0.45593999997E+02  0.45594000000E+02  0.51100000000E-03 0.  1.
         11   -1    0    0    0    0 -0.00000000000E+00 -0.00000000000E+00 -0.45593999997E+02  0.45594000000E+02  0.51100000000E-03 0. -1.
    9900012    2    1    2    0    0  0.97472850025E+01 -0.60263309659E+01  0.14810557611E+02  0.72461578917E+02  0.70000011232E+02 0.  0.
         12    1    1    2    0    0 -0.97472850025E+01  0.60263309659E+01 -0.14810557611E+02  0.18726421083E+02  0.00000000000E+00 0. -1.
         11    1    3    3    0    0  0.14490363839E+02 -0.13722890444E+02 -0.21290239366E+02  0.29181546547E+02  0.51100000000E-03 0. -1.
        -11    1    3    3    0    0  0.18730942438E+01 -0.70786144294E+01  0.79651352810E+01  0.10819364334E+02  0.51100000000E-03 0.  1.
        -12    1    3    3    0    0 -0.66161730808E+01  0.14775173908E+02  0.28135661696E+02  0.32460668036E+02  0.00000000000E+00 0.  1.
</event>
<event>
 7    1  0.1692604E-013  0.7246160E+02  0.7816164E-02  0.1226708E+00
        -11   -1    0    0    0    0  0.00000000000E+00  0.00000000000E+00  0.45593999997E+02  0.45594000000E+02  0.51100000000E-03 0.  1.
         11   -1    0    0    0    0 -0.00000000000E+00 -0.00000000000E+00 -0.45593999997E+02  0.45594000000E+02  0.51100000000E-03 0. -1.
    9900012    2    1    2    0    0 -0.16527223565E+02  0.78198934868E+01 -0.40470024012E+01  0.72461599349E+02  0.70000037849E+02 0.  0.
         12    1    1    2    0    0  0.16527223565E+02 -0.78198934868E+01  0.40470024012E+01  0.18726400651E+02  0.00000000000E+00 0. -1.
         11    1    3    3    0    0 -0.33036159925E+01  0.12398199477E+02  0.11623210891E+02  0.17312661857E+02  0.51100000000E-03 0. -1.
        -11    1    3    3    0    0 -0.21496445106E+02 -0.10793749712E+02  0.11067989441E+02  0.26478341632E+02  0.51100000000E-03 0.  1.
         12    1    3    3    0    0  0.82728375343E+01  0.62154437214E+01 -0.26738202734E+02  0.28670595860E+02  0.00000000000E+00 0. -1.
</event>
<event>
 7    1  0.1692604E-013  0.7246159E+02  0.7816164E-02  0.1226708E+00
        -11   -1    0    0    0    0  0.00000000000E+00  0.00000000000E+00  0.45593999997E+02  0.45594000000E+02  0.51100000000E-03 0. -1.
         11   -1    0    0    0    0 -0.00000000000E+00 -0.00000000000E+00 -0.45593999997E+02  0.45594000000E+02  0.51100000000E-03 0.  1.
    9900012    2    1    2    0    0  0.55011906508E+01  0.12947658720E+02 -0.12360162634E+02  0.72461585895E+02  0.70000020323E+02 0.  0.
         12    1    1    2    0    0 -0.55011906508E+01 -0.12947658720E+02  0.12360162634E+02  0.18726414105E+02  0.00000000000E+00 0. -1.
         11    1    3    3    0    0  0.18129121954E+02  0.30454213865E+01 -0.94374967643E+01  0.20664123491E+02  0.51100000000E-03 0. -1.
        -11    1    3    3    0    0 -0.82572122948E+01 -0.28492434414E+01 -0.24692631886E+02  0.26192094471E+02  0.51100000000E-03 0.  1.
         12    1    3    3    0    0 -0.43707190079E+01  0.12751480775E+02  0.21769966017E+02  0.25605367932E+02  0.00000000000E+00 0. -1.
</event>
<event>
 7    1  0.1692604E-013  0.7246154E+02  0.7816164E-02  0.1226708E+00
        -11   -1    0    0    0    0  0.00000000000E+00  0.00000000000E+00  0.45593999997E+02  0.45594000000E+02  0.51100000000E-03 0.  1.
         11   -1    0    0    0    0 -0.00000000000E+00 -0.00000000000E+00 -0.45593999997E+02  0.45594000000E+02  0.51100000000E-03 0. -1.
    9900012    2    1    2    0    0 -0.85596042598E+01  0.57787537416E+01  0.15621120789E+02  0.72461541857E+02  0.69999962955E+02 0.  0.
         12    1    1    2    0    0  0.85596042598E+01 -0.57787537416E+01 -0.15621120789E+02  0.18726458143E+02  0.00000000000E+00 0. -1.
         11    1    3    3    0    0  0.42481722374E+01 -0.14210058825E+00  0.40979797633E+01  0.59042864376E+01  0.51100000000E-03 0. -1.
        -11    1    3    3    0    0  0.59738540987E+01  0.29952225213E+02 -0.63652271408E+01  0.31198378881E+02  0.51100000000E-03 0.  1.
        -12    1    3    3    0    0 -0.18781630596E+02 -0.24031370883E+02  0.17888368167E+02  0.35358876538E+02  0.00000000000E+00 0.  1.
</event>
<event>
 7    1  0.1692604E-013  0.7246159E+02  0.7816164E-02  0.1226708E+00
        -11   -1    0    0    0    0  0.00000000000E+00  0.00000000000E+00  0.45593999997E+02  0.45594000000E+02  0.51100000000E-03 0.  1.
         11   -1    0    0    0    0 -0.00000000000E+00 -0.00000000000E+00 -0.45593999997E+02  0.45594000000E+02  0.51100000000E-03 0. -1.
    9900012    2    1    2    0    0 -0.13317816104E+02 -0.12392124864E+02  0.44440198133E+01  0.72461593603E+02  0.70000030364E+02 0.  0.
         12    1    1    2    0    0  0.13317816104E+02  0.12392124864E+02 -0.44440198133E+01  0.18726406397E+02  0.00000000000E+00 0. -1.
         11    1    3    3    0    0  0.13284306127E+02  0.88951742142E+01 -0.36704774577E+01  0.16403332546E+02  0.51100000000E-03 0. -1.
        -11    1    3    3    0    0 -0.15264325023E+02  0.45185256657E+01  0.19919767825E+02  0.25499291031E+02  0.51100000000E-03 0.  1.
        -12    1    3    3    0    0 -0.11337797208E+02 -0.25805824744E+02 -0.11805270554E+02  0.30558970027E+02  0.00000000000E+00 0.  1.
</event>
<event>
 7    1  0.1692604E-013  0.7246147E+02  0.7816164E-02  0.1226708E+00
        -11   -1    0    0    0    0  0.00000000000E+00  0.00000000000E+00  0.45593999997E+02  0.45594000000E+02  0.51100000000E-03 0. -1.
         11   -1    0    0    0    0 -0.00000000000E+00 -0.00000000000E+00 -0.45593999997E+02  0.45594000000E+02  0.51100000000E-03 0.  1.
    9900012    2    1    2    0    0  0.15940496795E+02  0.89168900639E+01  0.41318895274E+01  0.72461471290E+02  0.69999871028E+02 0.  0.
         12    1    1    2    0    0 -0.15940496795E+02 -0.89168900639E+01 -0.41318895274E+01  0.18726528710E+02  0.00000000000E+00 0. -1.
         11    1    3    3    0    0  0.22927245261E+02 -0.12694804761E+02  0.99101318323E+01  0.28018339643E+02  0.51100000000E-03 0. -1.
        -11    1    3    3    0    0 -0.60565289563E+00  0.30865565923E+02  0.17390926377E+01  0.30920453079E+02  0.51100000000E-03 0.  1.
         12    1    3    3    0    0 -0.63810955708E+01 -0.92538710980E+01 -0.75173349427E+01  0.13522678567E+02  0.00000000000E+00 0. -1.
</event>
<event>
 7    1  0.1692604E-013  0.7246155E+02  0.7816164E-02  0.1226708E+00
        -11   -1    0    0    0    0  0.00000000000E+00  0.00000000000E+00  0.45593999997E+02  0.45594000000E+02  0.51100000000E-03 0. -1.
         11   -1    0    0    0    0 -0.00000000000E+00 -0.00000000000E+00 -0.45593999997E+02  0.45594000000E+02  0.51100000000E-03 0.  1.
    9900012    2    1    2    0    0 -0.16406580216E+02 -0.87638626419E+01  0.21676606267E+01  0.72461550379E+02  0.69999974057E+02 0.  0.
         12    1    1    2    0    0  0.16406580216E+02  0.87638626419E+01 -0.21676606267E+01  0.18726449621E+02  0.00000000000E+00 0. -1.
         11    1    3    3    0    0 -0.77032959541E+01 -0.55167060297E+01 -0.44697787650E+01  0.10476341749E+02  0.51100000000E-03 0. -1.
        -11    1    3    3    0    0  0.35963994624E+01  0.27905331980E+02  0.30397314644E+01  0.28299851760E+02  0.51100000000E-03 0.  1.
         12    1    3    3    0    0 -0.12299683724E+02 -0.31152488592E+02  0.35977079272E+01  0.33685356871E+02  0.00000000000E+00 0. -1.
</event>
<event>
 7    1  0.1692604E-013  0.7246157E+02  0.7816164E-02  0.1226708E+00
        -11   -1    0    0    0    0  0.00000000000E+00  0.00000000000E+00  0.45593999997E+02  0.45594000000E+02  0.51100000000E-03 0. -1.
         11   -1    0    0    0    0 -0.00000000000E+00 -0.00000000000E+00 -0.45593999997E+02  0.45594000000E+02  0.51100000000E-03 0.  1.
    9900012    2    1    2    0    0  0.28800748296E+00  0.18375877968E+02 -0.35949210521E+01  0.72461566896E+02  0.69999995573E+02 0.  0.
         12    1    1    2    0    0 -0.28800748296E+00 -0.18375877968E+02  0.35949210521E+01  0.18726433104E+02  0.00000000000E+00 0. -1.
         11    1    3    3    0    0  0.16725655133E+02  0.91330432585E+01  0.17665075191E+02  0.25984897547E+02  0.51100000000E-03 0. -1.
        -11    1    3    3    0    0 -0.16718619848E+02  0.12111865130E+02  0.40202086777E+01  0.21032631899E+02  0.51100000000E-03 0.  1.
        -12    1    3    3    0    0  0.28097219721E+00 -0.28690304197E+01 -0.25280204920E+02  0.25444037450E+02  0.00000000000E+00 0.  1.
</event>
<event>
 7    1  0.1692604E-013  0.7246157E+02  0.7816164E-02  0.1226708E+00
        -11   -1    0    0    0    0  0.00000000000E+00  0.00000000000E+00  0.45593999997E+02  0.45594000000E+02  0.51100000000E-03 0. -1.
         11   -1    0    0    0    0 -0.00000000000E+00 -0.00000000000E+00 -0.45593999997E+02  0.45594000000E+02  0.51100000000E-03 0.  1.
    9900012    2    1    2    0    0 -0.28102768898E+01  0.16654906331E+01 -0.18439299675E+02  0.72461567138E+02  0.69999995888E+02 0.  0.
         12    1    1    2    0    0  0.28102768898E+01 -0.16654906331E+01  0.18439299675E+02  0.18726432862E+02  0.00000000000E+00 0. -1.
         11    1    3    3    0    0  0.28278130722E+02 -0.27564845482E+01 -0.42397469795E+01  0.28726753017E+02  0.51100000000E-03 0. -1.
        -11    1    3    3    0    0  0.48705071295E+01  0.81035988622E+00 -0.89844809462E-01  0.49382785659E+01  0.51100000000E-03 0.  1.
        -12    1    3    3    0    0 -0.35958914742E+02  0.36116152951E+01 -0.14109707886E+02  0.38796535555E+02  0.00000000000E+00 0.  1.
</event>
<event>
 7    1  0.1692604E-013  0.7246161E+02  0.7816164E-02  0.1226708E+00
        -11   -1    0    0    0    0  0.00000000000E+00  0.00000000000E+00  0.45593999997E+02  0.45594000000E+02  0.51100000000E-03 0.  1.
         11   -1    0    0    0    0 -0.00000000000E+00 -0.00000000000E+00 -0.45593999997E+02  0.45594000000E+02  0.51100000000E-03 0. -1.
    9900012    2    1    2    0    0 -0.48576688733E+01  0.17597667591E+02  0.41716721089E+01  0.72461609538E+02  0.70000051123E+02 0.  0.
         12    1    1    2    0    0  0.48576688733E+01 -0.17597667591E+02 -0.41716721089E+01  0.18726390462E+02  0.00000000000E+00 0. -1.
         11    1    3    3    0    0 -0.31407788338E+01  0.10878075421E+02  0.37820057879E+01  0.11937360872E+02  0.51100000000E-03 0. -1.
        -11    1    3    3    0    0 -0.22028977283E+02  0.22761972981E+02  0.95232651045E+01  0.33076817148E+02  0.51100000000E-03 0.  1.
         12    1    3    3    0    0  0.20312087243E+02 -0.16042380811E+02 -0.91335987835E+01  0.27447431519E+02  0.00000000000E+00 0. -1.
</event>
<event>
 7    1  0.1692604E-013  0.7246161E+02  0.7816164E-02  0.1226708E+00
        -11   -1    0    0    0    0  0.00000000000E+00  0.00000000000E+00  0.45593999997E+02  0.45594000000E+02  0.51100000000E-03 0.  1.
         11   -1    0    0    0    0 -0.00000000000E+00 -0.00000000000E+00 -0.45593999997E+02  0.45594000000E+02  0.51100000000E-03 0. -1.
    9900012    2    1    2    0    0  0.16293206328E+02  0.88221247745E+00  0.91886308675E+01  0.72461606633E+02  0.70000047338E+02 0.  0.
         12    1    1    2    0    0 -0.16293206328E+02 -0.88221247745E+00 -0.91886308675E+01  0.18726393367E+02  0.00000000000E+00 0. -1.
         11    1    3    3    0    0  0.56775263911E+01  0.11195930189E+02  0.38784267013E+01  0.13138696764E+02  0.51100000000E-03 0.  1.
        -11    1    3    3    0    0 -0.18702912888E+02 -0.18760103859E+02  0.10269824728E+02  0.28411436914E+02  0.51100000000E-03 0. -1.
         12    1    3    3    0    0  0.29318592825E+02  0.84463861475E+01 -0.49596205618E+01  0.30911472956E+02  0.00000000000E+00 0. -1.
</event>
<event>
 7    1  0.1692604E-013  0.7246165E+02  0.7816164E-02  0.1226708E+00
        -11   -1    0    0    0    0  0.00000000000E+00  0.00000000000E+00  0.45593999997E+02  0.45594000000E+02  0.51100000000E-03 0.  1.
         11   -1    0    0    0    0 -0.00000000000E+00 -0.00000000000E+00 -0.45593999997E+02  0.45594000000E+02  0.51100000000E-03 0. -1.
    9900012    2    1    2    0    0  0.11259171865E+02 -0.43871584493E+01  0.14305951050E+02  0.72461645688E+02  0.70000098215E+02 0.  0.
         12    1    1    2    0    0 -0.11259171865E+02  0.43871584493E+01 -0.14305951050E+02  0.18726354312E+02  0.00000000000E+00 0. -1.
         11    1    3    3    0    0 -0.69665196842E+01 -0.14426771683E+02  0.10404629476E+02  0.19102891208E+02  0.51100000000E-03 0. -1.
        -11    1    3    3    0    0  0.17728881519E+02  0.97274308532E+01  0.25054596206E+02  0.32197343713E+02  0.51100000000E-03 0.  1.
         12    1    3    3    0    0  0.49681003051E+00  0.31218238032E+00 -0.21153274631E+02  0.21161410767E+02  0.00000000000E+00 0. -1.
</event>
<event>
 7    1  0.1692604E-013  0.7246146E+02  0.7816164E-02  0.1226708E+00
        -11   -1    0    0    0    0  0.00000000000E+00  0.00000000000E+00  0.45593999997E+02  0.45594000000E+02  0.51100000000E-03 0.  1.
         11   -1    0    0    0    0 -0.00000000000E+00 -0.00000000000E+00 -0.45593999997E+02  0.45594000000E+02  0.51100000000E-03 0. -1.
    9900012    2    1    2    0    0 -0.30136182307E+01 -0.72341174320E+01  0.17007909162E+02  0.72461459371E+02  0.69999855502E+02 0.  0.
         12    1    1    2    0    0  0.30136182307E+01  0.72341174320E+01 -0.17007909162E+02  0.18726540629E+02  0.00000000000E+00 0. -1.
         11    1    3    3    0    0  0.11014274483E+02 -0.53425100012E+01 -0.15508826436E+02  0.19758045277E+02  0.51100000000E-03 0. -1.
        -11    1    3    3    0    0  0.68425570387E+01  0.11723882984E+02  0.26925953334E+01  0.13839078327E+02  0.51100000000E-03 0.  1.
        -12    1    3    3    0    0 -0.20870449752E+02 -0.13615490415E+02  0.29824140264E+02  0.38864335767E+02  0.00000000000E+00 0.  1.
</event>
<event>
 7    1  0.1692604E-013  0.7246155E+02  0.7816164E-02  0.1226708E+00
        -11   -1    0    0    0    0  0.00000000000E+00  0.00000000000E+00  0.45593999997E+02  0.45594000000E+02  0.51100000000E-03 0.  1.
         11   -1    0    0    0    0 -0.00000000000E+00 -0.00000000000E+00 -0.45593999997E+02  0.45594000000E+02  0.51100000000E-03 0. -1.
    9900012    2    1    2    0    0  0.81459790973E+01 -0.99212765177E+01  0.13634199832E+02  0.72461545230E+02  0.69999967349E+02 0.  0.
         12    1    1    2    0    0 -0.81459790973E+01  0.99212765177E+01 -0.13634199832E+02  0.18726454770E+02  0.00000000000E+00 0. -1.
         11    1    3    3    0    0 -0.75099066065E+01 -0.50594822096E+01 -0.20626087902E+02  0.22526263779E+02  0.51100000000E-03 0. -1.
        -11    1    3    3    0    0  0.45118498353E+01 -0.16304426398E+02  0.69336178845E+01  0.18282947420E+02  0.51100000000E-03 0.  1.
         12    1    3    3    0    0  0.11144035869E+02  0.11442632090E+02  0.27326669849E+02  0.31652334031E+02  0.00000000000E+00 0. -1.
</event>
<event>
 7    1  0.1692604E-013  0.7246129E+02  0.7816164E-02  0.1226709E+00
        -11   -1    0    0    0    0  0.00000000000E+00  0.00000000000E+00  0.45593999997E+02  0.45594000000E+02  0.51100000000E-03 0. -1.
         11   -1    0    0    0    0 -0.00000000000E+00 -0.00000000000E+00 -0.45593999997E+02  0.45594000000E+02  0.51100000000E-03 0.  1.
    9900012    2    1    2    0    0 -0.77109816238E+00 -0.15214869853E+02  0.10890484857E+02  0.72461294004E+02  0.69999640080E+02 0.  0.
         12    1    1    2    0    0  0.77109816238E+00  0.15214869853E+02 -0.10890484857E+02  0.18726705996E+02  0.00000000000E+00 0. -1.
         11    1    3    3    0    0 -0.16757503707E+02 -0.11137722171E+02  0.22654527214E+02  0.30300006423E+02  0.51100000000E-03 0. -1.
        -11    1    3    3    0    0 -0.19499726464E+01  0.11483757797E+02  0.54226680902E+01  0.12848518044E+02  0.51100000000E-03 0.  1.
        -12    1    3    3    0    0  0.17936378191E+02 -0.15560905479E+02 -0.17186710447E+02  0.29312769537E+02  0.00000000000E+00 0.  1.
</event>
<event>
 7    1  0.1692604E-013  0.7246174E+02  0.7816164E-02  0.1226708E+00
        -11   -1    0    0    0    0  0.00000000000E+00  0.00000000000E+00  0.45593999997E+02  0.45594000000E+02  0.51100000000E-03 0.  1.
         11   -1    0    0    0    0 -0.00000000000E+00 -0.00000000000E+00 -0.45593999997E+02  0.45594000000E+02  0.51100000000E-03 0. -1.
    9900012    2    1    2    0    0 -0.96829204810E+01  0.74098384002E+01 -0.14212956411E+02  0.72461740788E+02  0.70000222099E+02 0.  0.
         12    1    1    2    0    0  0.96829204810E+01 -0.74098384002E+01  0.14212956411E+02  0.18726259212E+02  0.00000000000E+00 0. -1.
         11    1    3    3    0    0  0.16079878497E+02  0.18045672376E+02 -0.87020647992E+00  0.24186071271E+02  0.51100000000E-03 0. -1.
        -11    1    3    3    0    0  0.60584320192E+01 -0.94301452183E+01  0.41392767641E+01  0.11948466419E+02  0.51100000000E-03 0.  1.
        -12    1    3    3    0    0 -0.31821230997E+02 -0.12056887573E+01 -0.17482026695E+02  0.36327203098E+02  0.00000000000E+00 0.  1.
</event>
<event>
 7    1  0.1692604E-013  0.7246159E+02  0.7816164E-02  0.1226708E+00
        -11   -1    0    0    0    0  0.00000000000E+00  0.00000000000E+00  0.45593999997E+02  0.45594000000E+02  0.51100000000E-03 0.  1.
         11   -1    0    0    0    0 -0.00000000000E+00 -0.00000000000E+00 -0.45593999997E+02  0.45594000000E+02  0.51100000000E-03 0. -1.
    9900012    2    1    2    0    0 -0.97514393303E+01 -0.14708185634E+01  0.15919316586E+02  0.72461587721E+02  0.70000022702E+02 0.  0.
         12    1    1    2    0    0  0.97514393303E+01  0.14708185634E+01 -0.15919316586E+02  0.18726412279E+02  0.00000000000E+00 0. -1.
         11    1    3    3    0    0 -0.37274873737E+01  0.68908187547E+00  0.13690904332E+01  0.40303107607E+01  0.51100000000E-03 0. -1.
        -11    1    3    3    0    0 -0.23032044854E+02  0.16030013899E+02  0.28409521195E+02  0.39931658249E+02  0.51100000000E-03 0.  1.
         12    1    3    3    0    0  0.17008092897E+02 -0.18189914338E+02 -0.13859295042E+02  0.28499618711E+02  0.00000000000E+00 0. -1.
</event>
<event>
 7    1  0.1692604E-013  0.7246157E+02  0.7816164E-02  0.1226708E+00
        -11   -1    0    0    0    0  0.00000000000E+00  0.00000000000E+00  0.45593999997E+02  0.45594000000E+02  0.51100000000E-03 0. -1.
         11   -1    0    0    0    0 -0.00000000000E+00 -0.00000000000E+00 -0.45593999997E+02  0.45594000000E+02  0.51100000000E-03 0.  1.
    9900012    2    1    2    0    0 -0.98436035287E+01 -0.54774679065E+01 -0.14959271931E+02  0.72461574772E+02  0.70000005834E+02 0.  0.
         12    1    1    2    0    0  0.98436035287E+01  0.54774679065E+01  0.14959271931E+02  0.18726425228E+02  0.00000000000E+00 0. -1.
         11    1    3    3    0    0  0.85404530793E+01  0.41708654452E+01 -0.16562512657E+02  0.19095870840E+02  0.51100000000E-03 0. -1.
        -11    1    3    3    0    0  0.29775474672E+01 -0.20895032045E+02 -0.13344929361E+02  0.24971089142E+02  0.51100000000E-03 0.  1.
        -12    1    3    3    0    0 -0.21361604075E+02  0.11246698693E+02  0.14948170086E+02  0.28394614790E+02  0.00000000000E+00 0.  1.
</event>
<event>
 7    1  0.1692604E-013  0.7246160E+02  0.7816164E-02  0.1226708E+00
        -11   -1    0    0    0    0  0.00000000000E+00  0.00000000000E+00  0.45593999997E+02  0.45594000000E+02  0.51100000000E-03 0.  1.
         11   -1    0    0    0    0 -0.00000000000E+00 -0.00000000000E+00 -0.45593999997E+02  0.45594000000E+02  0.51100000000E-03 0. -1.
    9900012    2    1    2    0    0 -0.11928719923E+01  0.13145055496E+02  0.13283919825E+02  0.72461602762E+02  0.70000042295E+02 0.  0.
         12    1    1    2    0    0  0.11928719923E+01 -0.13145055496E+02 -0.13283919825E+02  0.18726397238E+02  0.00000000000E+00 0. -1.
         11    1    3    3    0    0 -0.13412438775E+02  0.14116330321E+01 -0.20487658019E+02  0.24528154294E+02  0.51100000000E-03 0. -1.
        -11    1    3    3    0    0 -0.91446740106E+01  0.59331754956E+01  0.60835551346E+01  0.12483480186E+02  0.51100000000E-03 0.  1.
        -12    1    3    3    0    0  0.21364240794E+02  0.58002469688E+01  0.27688022710E+02  0.35449968281E+02  0.00000000000E+00 0.  1.
</event>
<event>
 7    1  0.1692604E-013  0.7246157E+02  0.7816164E-02  0.1226708E+00
        -11   -1    0    0    0    0  0.00000000000E+00  0.00000000000E+00  0.45593999997E+02  0.45594000000E+02  0.51100000000E-03 0.  1.
         11   -1    0    0    0    0 -0.00000000000E+00 -0.00000000000E+00 -0.45593999997E+02  0.45594000000E+02  0.51100000000E-03 0. -1.
    9900012    2    1    2    0    0 -0.45453274577E+01 -0.30823298129E+01  0.17903029623E+02  0.72461568721E+02  0.69999997950E+02 0.  0.
         12    1    1    2    0    0  0.45453274577E+01  0.30823298129E+01 -0.17903029623E+02  0.18726431279E+02  0.00000000000E+00 0. -1.
         11    1    3    3    0    0  0.30576239931E+01  0.74057015836E+01 -0.35700719258E+01  0.87714818728E+01  0.51100000000E-03 0. -1.
        -11    1    3    3    0    0 -0.19565711654E+02  0.18723493213E+02  0.33397836067E+01  0.27286268075E+02  0.51100000000E-03 0.  1.
         12    1    3    3    0    0  0.11962760203E+02 -0.29211524610E+02  0.18133317942E+02  0.36403818773E+02  0.00000000000E+00 0. -1.
</event>
<event>
 7    1  0.1692604E-013  0.7246180E+02  0.7816164E-02  0.1226707E+00
        -11   -1    0    0    0    0  0.00000000000E+00  0.00000000000E+00  0.45593999997E+02  0.45594000000E+02  0.51100000000E-03 0. -1.
         11   -1    0    0    0    0 -0.00000000000E+00 -0.00000000000E+00 -0.45593999997E+02  0.45594000000E+02  0.51100000000E-03 0.  1.
    9900012    2    1    2    0    0  0.81147495449E+01 -0.14723855868E+02 -0.82480047972E+01  0.72461797103E+02  0.70000295460E+02 0.  0.
         12    1    1    2    0    0 -0.81147495449E+01  0.14723855868E+02  0.82480047972E+01  0.18726202897E+02  0.00000000000E+00 0. -1.
         11    1    3    3    0    0  0.10229698885E+02 -0.73370099055E+01  0.57680155586E+01  0.13847326723E+02  0.51100000000E-03 0. -1.
        -11    1    3    3    0    0 -0.20551411795E+02 -0.22257318175E+02 -0.17004559917E+02  0.34740520971E+02  0.51100000000E-03 0.  1.
         12    1    3    3    0    0  0.18436462454E+02  0.14870472212E+02  0.29885395612E+01  0.23873949408E+02  0.00000000000E+00 0. -1.
</event>
<event>
 7    1  0.1692604E-013  0.7246158E+02  0.7816164E-02  0.1226708E+00
        -11   -1    0    0    0    0  0.00000000000E+00  0.00000000000E+00  0.45593999997E+02  0.45594000000E+02  0.51100000000E-03 0. -1.
         11   -1    0    0    0    0 -0.00000000000E+00 -0.00000000000E+00 -0.45593999997E+02  0.45594000000E+02  0.51100000000E-03 0.  1.
    9900012    2    1    2    0    0  0.33761476490E+00 -0.17055338044E+02 -0.77253044782E+01  0.72461578323E+02  0.70000010459E+02 0.  0.
         12    1    1    2    0    0 -0.33761476490E+00  0.17055338044E+02  0.77253044782E+01  0.18726421677E+02  0.00000000000E+00 0. -1.
         11    1    3    3    0    0 -0.16067666188E+02 -0.16098353001E+02  0.10074659252E+02  0.24876206009E+02  0.51100000000E-03 0. -1.
        -11    1    3    3    0    0 -0.12465674464E+02  0.10707526575E+01  0.17867457157E+01  0.12638513030E+02  0.51100000000E-03 0.  1.
        -12    1    3    3    0    0  0.28870955417E+02 -0.20277377005E+01 -0.19586709446E+02  0.34946859284E+02  0.00000000000E+00 0.  1.
</event>
<event>
 7    1  0.1692604E-013  0.7246157E+02  0.7816164E-02  0.1226708E+00
        -11   -1    0    0    0    0  0.00000000000E+00  0.00000000000E+00  0.45593999997E+02  0.45594000000E+02  0.51100000000E-03 0. -1.
         11   -1    0    0    0    0 -0.00000000000E+00 -0.00000000000E+00 -0.45593999997E+02  0.45594000000E+02  0.51100000000E-03 0.  1.
    9900012    2    1    2    0    0 -0.11490688608E+02  0.14218330326E+02 -0.40598422995E+01  0.72461570510E+02  0.70000000281E+02 0.  0.
         12    1    1    2    0    0  0.11490688608E+02 -0.14218330326E+02  0.40598422995E+01  0.18726429490E+02  0.00000000000E+00 0. -1.
         11    1    3    3    0    0  0.55142781063E+01  0.36965759572E+02 -0.61753637028E+01  0.37881522685E+02  0.51100000000E-03 0. -1.
        -11    1    3    3    0    0  0.14384962974E+01  0.26208785796E+01  0.11431417529E+01  0.32007888801E+01  0.51100000000E-03 0.  1.
        -12    1    3    3    0    0 -0.18443463011E+02 -0.25368307826E+02  0.97237965044E+00  0.31379258946E+02  0.00000000000E+00 0.  1.
</event>
<event>
 7    1  0.1692604E-013  0.7246157E+02  0.7816164E-02  0.1226708E+00
        -11   -1    0    0    0    0  0.00000000000E+00  0.00000000000E+00  0.45593999997E+02  0.45594000000E+02  0.51100000000E-03 0.  1.
         11   -1    0    0    0    0 -0.00000000000E+00 -0.00000000000E+00 -0.45593999997E+02  0.45594000000E+02  0.51100000000E-03 0. -1.
    9900012    2    1    2    0    0 -0.18194705214E+02 -0.43215933939E+01 -0.97756440298E+00  0.72461572165E+02  0.70000002437E+02 0.  0.
         12    1    1    2    0    0  0.18194705214E+02  0.43215933939E+01  0.97756440298E+00  0.18726427835E+02  0.00000000000E+00 0. -1.
         11    1    3    3    0    0 -0.75425949183E+01 -0.22698858862E+02  0.49551369706E+01  0.24427081577E+02  0.51100000000E-03 0. -1.
        -11    1    3    3    0    0 -0.10543822263E+02  0.37531196552E+01  0.17286651650E+02  0.20593358652E+02  0.51100000000E-03 0.  1.
         12    1    3    3    0    0 -0.10828803320E+00  0.14624145813E+02 -0.23219353024E+02  0.27441131935E+02  0.00000000000E+00 0. -1.
</event>
<event>
 7    1  0.1692604E-013  0.7246161E+02  0.7816164E-02  0.1226708E+00
        -11   -1    0    0    0    0  0.00000000000E+00  0.00000000000E+00  0.45593999997E+02  0.45594000000E+02  0.51100000000E-03 0.  1.
         11   -1    0    0    0    0 -0.00000000000E+00 -0.00000000000E+00 -0.45593999997E+02  0.45594000000E+02  0.51100000000E-03 0. -1.
    9900012    2    1    2    0    0 -0.66747122605E+01  0.17476707424E+02  0.83104546149E+00  0.72461608925E+02  0.70000050323E+02 0.  0.
         12    1    1    2    0    0  0.66747122605E+01 -0.17476707424E+02 -0.83104546149E+00  0.18726391075E+02  0.00000000000E+00 0. -1.
         11    1    3    3    0    0 -0.40086395451E+01  0.23512448401E+01  0.20022630085E+01  0.50602965049E+01  0.51100000000E-03 0. -1.
        -11    1    3    3    0    0 -0.29690743553E+02 -0.66029118049E+01  0.81593783390E+01  0.31491493330E+02  0.51100000000E-03 0.  1.
         12    1    3    3    0    0  0.27024670837E+02  0.21728374389E+02 -0.93305958859E+01  0.35909819090E+02  0.00000000000E+00 0. -1.
</event>
<event>
 7    1  0.1692604E-013  0.7246139E+02  0.7816164E-02  0.1226708E+00
        -11   -1    0    0    0    0  0.00000000000E+00  0.00000000000E+00  0.45593999997E+02  0.45594000000E+02  0.51100000000E-03 0.  1.
         11   -1    0    0    0    0 -0.00000000000E+00 -0.00000000000E+00 -0.45593999997E+02  0.45594000000E+02  0.51100000000E-03 0. -1.
    9900012    2    1    2    0    0  0.12193696689E+02 -0.88496709703E+01  0.11121289509E+02  0.72461388038E+02  0.69999762577E+02 0.  0.
         12    1    1    2    0    0 -0.12193696689E+02  0.88496709703E+01 -0.11121289509E+02  0.18726611962E+02  0.00000000000E+00 0. -1.
         11    1    3    3    0    0  0.28367874785E+00 -0.33188568616E+01 -0.24301136341E+02  0.24528361385E+02  0.51100000000E-03 0. -1.
        -11    1    3    3    0    0  0.27397911652E+01 -0.31603837814E+01 -0.49407426034E+01  0.64734395038E+01  0.51100000000E-03 0.  1.
        -12    1    3    3    0    0  0.91702267762E+01 -0.23704303273E+01  0.40363168453E+02  0.41459587150E+02  0.00000000000E+00 0.  1.
</event>
<event>
 7    1  0.1692604E-013  0.7246150E+02  0.7816164E-02  0.1226708E+00
        -11   -1    0    0    0    0  0.00000000000E+00  0.00000000000E+00  0.45593999997E+02  0.45594000000E+02  0.51100000000E-03 0.  1.
         11   -1    0    0    0    0 -0.00000000000E+00 -0.00000000000E+00 -0.45593999997E+02  0.45594000000E+02  0.51100000000E-03 0. -1.
    9900012    2    1    2    0    0  0.82388812108E+01  0.16586966338E+02  0.27703835205E+01  0.72461504312E+02  0.69999914045E+02 0.  0.
         12    1    1    2    0    0 -0.82388812108E+01 -0.16586966338E+02 -0.27703835205E+01  0.18726495688E+02  0.00000000000E+00 0. -1.
         11    1    3    3    0    0  0.23060309691E+02  0.45899924439E+01 -0.24306419507E+02  0.33817864261E+02  0.51100000000E-03 0. -1.
        -11    1    3    3    0    0 -0.12140446696E+02  0.64455027030E+00  0.40214231810E+01  0.12805379170E+02  0.51100000000E-03 0.  1.
        -12    1    3    3    0    0 -0.26809817838E+01  0.11352423624E+02  0.23055379846E+02  0.25838260881E+02  0.00000000000E+00 0.  1.
</event>
<event>
 7    1  0.1692604E-013  0.7246089E+02  0.7816164E-02  0.1226710E+00
        -11   -1    0    0    0    0  0.00000000000E+00  0.00000000000E+00  0.45593999997E+02  0.45594000000E+02  0.51100000000E-03 0. -1.
         11   -1    0    0    0    0 -0.00000000000E+00 -0.00000000000E+00 -0.45593999997E+02  0.45594000000E+02  0.51100000000E-03 0.  1.
    9900012    2    1    2    0    0  0.13596978265E+02 -0.93789391918E+01 -0.88239689594E+01  0.72460887396E+02  0.69999110392E+02 0.  0.
         12    1    1    2    0    0 -0.13596978265E+02  0.93789391918E+01  0.88239689594E+01  0.18727112604E+02  0.00000000000E+00 0. -1.
         11    1    3    3    0    0  0.14076160301E+02  0.70698285976E+01 -0.20856479460E+01  0.15889326381E+02  0.51100000000E-03 0. -1.
        -11    1    3    3    0    0  0.64563095722E+01  0.13374114823E+02  0.13335169295E+02  0.19959399315E+02  0.51100000000E-03 0.  1.
         12    1    3    3    0    0 -0.69354916083E+01 -0.29822882613E+02 -0.20073490309E+02  0.36612161700E+02  0.00000000000E+00 0. -1.
</event>
<event>
 7    1  0.1692604E-013  0.7246158E+02  0.7816164E-02  0.1226708E+00
        -11   -1    0    0    0    0  0.00000000000E+00  0.00000000000E+00  0.45593999997E+02  0.45594000000E+02  0.51100000000E-03 0.  1.
         11   -1    0    0    0    0 -0.00000000000E+00 -0.00000000000E+00 -0.45593999997E+02  0.45594000000E+02  0.51100000000E-03 0. -1.
    9900012    2    1    2    0    0  0.77399385726E+00  0.16838535094E+02  0.81574190590E+01  0.72461579726E+02  0.70000012286E+02 0.  0.
         12    1    1    2    0    0 -0.77399385726E+00 -0.16838535094E+02 -0.81574190590E+01  0.18726420274E+02  0.00000000000E+00 0. -1.
         11    1    3    3    0    0  0.22236108497E+01  0.57942343422E+00 -0.47369479512E+01  0.52648696926E+01  0.51100000000E-03 0. -1.
        -11    1    3    3    0    0  0.62396430798E+01 -0.19266151621E+02  0.21819329675E+02  0.29769126486E+02  0.51100000000E-03 0.  1.
         12    1    3    3    0    0 -0.76892600722E+01  0.35525263280E+02 -0.89249626649E+01  0.37427583547E+02  0.00000000000E+00 0. -1.
</event>
<event>
 7    1  0.1692604E-013  0.7246159E+02  0.7816164E-02  0.1226708E+00
        -11   -1    0    0    0    0  0.00000000000E+00  0.00000000000E+00  0.45593999997E+02  0.45594000000E+02  0.51100000000E-03 0. -1.
         11   -1    0    0    0    0 -0.00000000000E+00 -0.00000000000E+00 -0.45593999997E+02  0.45594000000E+02  0.51100000000E-03 0.  1.
    9900012    2    1    2    0    0 -0.66464433449E+01 -0.17131981357E+02  0.36053202922E+01  0.72461592743E+02  0.70000029243E+02 0.  0.
         12    1    1    2    0    0  0.66464433449E+01  0.17131981357E+02 -0.36053202922E+01  0.18726407257E+02  0.00000000000E+00 0. -1.
         11    1    3    3    0    0  0.29826357567E+01  0.28098177694E+01 -0.39320869659E+01  0.56791284651E+01  0.51100000000E-03 0. -1.
        -11    1    3    3    0    0  0.79641458030E+00 -0.38736437900E+02 -0.88652037546E+01  0.39745914698E+02  0.51100000000E-03 0.  1.
         12    1    3    3    0    0 -0.10425493682E+02  0.18794638773E+02  0.16402611013E+02  0.27036549579E+02  0.00000000000E+00 0. -1.
</event>
<event>
 7    1  0.1692604E-013  0.7246157E+02  0.7816164E-02  0.1226708E+00
        -11   -1    0    0    0    0  0.00000000000E+00  0.00000000000E+00  0.45593999997E+02  0.45594000000E+02  0.51100000000E-03 0.  1.
         11   -1    0    0    0    0 -0.00000000000E+00 -0.00000000000E+00 -0.45593999997E+02  0.45594000000E+02  0.51100000000E-03 0. -1.
    9900012    2    1    2    0    0 -0.17852001329E+02  0.22906634427E+01  0.51708937675E+01  0.72461568605E+02  0.69999997799E+02 0.  0.
         12    1    1    2    0    0  0.17852001329E+02 -0.22906634427E+01 -0.51708937675E+01  0.18726431395E+02  0.00000000000E+00 0. -1.
         11    1    3    3    0    0  0.43467066974E+01  0.14688516414E+02 -0.10688683482E+02  0.18678713243E+02  0.51100000000E-03 0. -1.
        -11    1    3    3    0    0  0.20740678110E+01  0.14179341026E+02 -0.28865663526E+00  0.14333136159E+02  0.51100000000E-03 0.  1.
        -12    1    3    3    0    0 -0.24272775837E+02 -0.26577193998E+02  0.16148233885E+02  0.39449719203E+02  0.00000000000E+00 0.  1.
</event>
<event>
 7    1  0.1692604E-013  0.7246165E+02  0.7816164E-02  0.1226708E+00
        -11   -1    0    0    0    0  0.00000000000E+00  0.00000000000E+00  0.45593999997E+02  0.45594000000E+02  0.51100000000E-03 0. -1.
         11   -1    0    0    0    0 -0.00000000000E+00 -0.00000000000E+00 -0.45593999997E+02  0.45594000000E+02  0.51100000000E-03 0.  1.
    9900012    2    1    2    0    0 -0.10666517792E+02  0.80121478406E+01 -0.13141800582E+02  0.72461653924E+02  0.70000108943E+02 0.  0.
         12    1    1    2    0    0  0.10666517792E+02 -0.80121478406E+01  0.13141800582E+02  0.18726346076E+02  0.00000000000E+00 0. -1.
         11    1    3    3    0    0  0.21062924754E+02 -0.29752201090E+01 -0.17444424842E+02  0.27510119814E+02  0.51100000000E-03 0. -1.
        -11    1    3    3    0    0 -0.82936117225E+01 -0.98106034542E+01 -0.19688846828E+01  0.12996478088E+02  0.51100000000E-03 0.  1.
         12    1    3    3    0    0 -0.23435830824E+02  0.20797971404E+02  0.62715089427E+01  0.31955056021E+02  0.00000000000E+00 0. -1.
</event>
<event>
 7    1  0.1692604E-013  0.7246154E+02  0.7816164E-02  0.1226708E+00
        -11   -1    0    0    0    0  0.00000000000E+00  0.00000000000E+00  0.45593999997E+02  0.45594000000E+02  0.51100000000E-03 0.  1.
         11   -1    0    0    0    0 -0.00000000000E+00 -0.00000000000E+00 -0.45593999997E+02  0.45594000000E+02  0.51100000000E-03 0. -1.
    9900012    2    1    2    0    0 -0.13705510424E+02 -0.12710901503E+02  0.11279379078E+01  0.72461540727E+02  0.69999961483E+02 0.  0.
         12    1    1    2    0    0  0.13705510424E+02  0.12710901503E+02 -0.11279379078E+01  0.18726459273E+02  0.00000000000E+00 0. -1.
         11    1    3    3    0    0 -0.11810994177E+02 -0.24086285524E+01  0.83740261866E+01  0.14677376802E+02  0.51100000000E-03 0. -1.
        -11    1    3    3    0    0 -0.79270764578E+01 -0.32148052551E+02  0.23034826734E+01  0.33190990595E+02  0.51100000000E-03 0.  1.
         12    1    3    3    0    0  0.60325602106E+01  0.21845779601E+02 -0.95495709522E+01  0.24593173330E+02  0.00000000000E+00 0. -1.
</event>
<event>
 7    1  0.1692604E-013  0.7246128E+02  0.7816164E-02  0.1226709E+00
        -11   -1    0    0    0    0  0.00000000000E+00  0.00000000000E+00  0.45593999997E+02  0.45594000000E+02  0.51100000000E-03 0. -1.
         11   -1    0    0    0    0 -0.00000000000E+00 -0.00000000000E+00 -0.45593999997E+02  0.45594000000E+02  0.51100000000E-03 0.  1.
    9900012    2    1    2    0    0 -0.77311389546E+01 -0.10963933461E+02 -0.13065665234E+02  0.72461282336E+02  0.69999624880E+02 0.  0.
         12    1    1    2    0    0  0.77311389546E+01  0.10963933461E+02  0.13065665234E+02  0.18726717664E+02  0.00000000000E+00 0. -1.
         11    1    3    3    0    0 -0.84672677256E+01  0.40292526164E+01  0.56343764488E+01  0.10939638825E+02  0.51100000000E-03 0. -1.
        -11    1    3    3    0    0  0.12530025260E+02  0.11154220920E+02  0.11134677203E+02  0.20134527907E+02  0.51100000000E-03 0.  1.
         12    1    3    3    0    0 -0.11793896489E+02 -0.26147406997E+02 -0.29834718886E+02  0.41387115605E+02  0.00000000000E+00 0. -1.
</event>
<event>
 7    1  0.1692604E-013  0.7246161E+02  0.7816164E-02  0.1226708E+00
        -11   -1    0    0    0    0  0.00000000000E+00  0.00000000000E+00  0.45593999997E+02  0.45594000000E+02  0.51100000000E-03 0.  1.
         11   -1    0    0    0    0 -0.00000000000E+00 -0.00000000000E+00 -0.45593999997E+02  0.45594000000E+02  0.51100000000E-03 0. -1.
    9900012    2    1    2    0    0  0.66272896732E+01 -0.60388392028E+01  0.16440473081E+02  0.72461609465E+02  0.70000051027E+02 0.  0.
         12    1    1    2    0    0 -0.66272896732E+01  0.60388392028E+01 -0.16440473081E+02  0.18726390535E+02  0.00000000000E+00 0. -1.
         11    1    3    3    0    0  0.76457050621E+01 -0.19905889528E+02 -0.10540678441E+02  0.23786701033E+02  0.51100000000E-03 0. -1.
        -11    1    3    3    0    0  0.16866142131E+02  0.90849036952E+01  0.22644274259E+02  0.29660839207E+02  0.51100000000E-03 0.  1.
        -12    1    3    3    0    0 -0.17884557519E+02  0.47821466301E+01  0.43368772634E+01  0.19014069224E+02  0.00000000000E+00 0.  1.
</event>
<event>
 7    1  0.1692604E-013  0.7246158E+02  0.7816164E-02  0.1226708E+00
        -11   -1    0    0    0    0  0.00000000000E+00  0.00000000000E+00  0.45593999997E+02  0.45594000000E+02  0.51100000000E-03 0. -1.
         11   -1    0    0    0    0 -0.00000000000E+00 -0.00000000000E+00 -0.45593999997E+02  0.45594000000E+02  0.51100000000E-03 0.  1.
    9900012    2    1    2    0    0  0.16827785654E+02 -0.81912466181E+01  0.63869937451E+00  0.72461579411E+02  0.70000011876E+02 0.  0.
         12    1    1    2    0    0 -0.16827785654E+02  0.81912466181E+01 -0.63869937451E+00  0.18726420589E+02  0.00000000000E+00 0. -1.
         11    1    3    3    0    0  0.15404209570E+02 -0.24778428378E+02 -0.36399106645E+01  0.29402536205E+02  0.51100000000E-03 0. -1.
        -11    1    3    3    0    0  0.22900450723E+01 -0.12656601622E+02 -0.23145952415E+01  0.13068711583E+02  0.51100000000E-03 0.  1.
        -12    1    3    3    0    0 -0.86646898822E+00  0.29243783382E+02  0.65932052806E+01  0.29990331623E+02  0.00000000000E+00 0.  1.
</event>
<event>
 7    1  0.1692604E-013  0.7246144E+02  0.7816164E-02  0.1226708E+00
        -11   -1    0    0    0    0  0.00000000000E+00  0.00000000000E+00  0.45593999997E+02  0.45594000000E+02  0.51100000000E-03 0. -1.
         11   -1    0    0    0    0 -0.00000000000E+00 -0.00000000000E+00 -0.45593999997E+02  0.45594000000E+02  0.51100000000E-03 0.  1.
    9900012    2    1    2    0    0  0.66804224491E+01  0.73802210457E+01 -0.15861534857E+02  0.72461441459E+02  0.69999832167E+02 0.  0.
         12    1    1    2    0    0 -0.66804224491E+01 -0.73802210457E+01  0.15861534857E+02  0.18726558541E+02  0.00000000000E+00 0. -1.
         11    1    3    3    0    0  0.24605479780E+02 -0.56963640203E+01 -0.14939732210E+02  0.29344058973E+02  0.51100000000E-03 0. -1.
        -11    1    3    3    0    0  0.75462696738E+01 -0.36925994774E+01 -0.82272119116E+01  0.11758762392E+02  0.51100000000E-03 0.  1.
         12    1    3    3    0    0 -0.25471327005E+02  0.16769184543E+02  0.73054092641E+01  0.31358620093E+02  0.00000000000E+00 0. -1.
</event>
<event>
 7    1  0.1692604E-013  0.7246162E+02  0.7816164E-02  0.1226708E+00
        -11   -1    0    0    0    0  0.00000000000E+00  0.00000000000E+00  0.45593999997E+02  0.45594000000E+02  0.51100000000E-03 0.  1.
         11   -1    0    0    0    0 -0.00000000000E+00 -0.00000000000E+00 -0.45593999997E+02  0.45594000000E+02  0.51100000000E-03 0. -1.
    9900012    2    1    2    0    0 -0.14527489568E+01  0.39614021827E+01  0.18244838379E+02  0.72461619830E+02  0.70000064529E+02 0.  0.
         12    1    1    2    0    0  0.14527489568E+01 -0.39614021827E+01 -0.18244838379E+02  0.18726380170E+02  0.00000000000E+00 0. -1.
         11    1    3    3    0    0 -0.20732743250E+01 -0.42569341892E+01  0.43969487672E+01  0.64616649434E+01  0.51100000000E-03 0. -1.
        -11    1    3    3    0    0 -0.20494337754E+02 -0.82347454636E+01  0.28046394752E+02  0.35699148053E+02  0.51100000000E-03 0.  1.
         12    1    3    3    0    0  0.21114863122E+02  0.16453081835E+02 -0.14198505140E+02  0.30300806834E+02  0.00000000000E+00 0. -1.
</event>
<event>
 7    1  0.1844104E-013  0.7246156E+02  0.7816164E-02  0.1226708E+00
        -11   -1    0    0    0    0  0.00000000000E+00  0.00000000000E+00  0.45593999997E+02  0.45594000000E+02  0.51100000000E-03 0. -1.
         11   -1    0    0    0    0 -0.00000000000E+00 -0.00000000000E+00 -0.45593999997E+02  0.45594000000E+02  0.51100000000E-03 0.  1.
    9900012    2    1    2    0    0  0.16565807998E+02 -0.10294745659E+01 -0.86714256345E+01  0.72461563205E+02  0.69999990765E+02 0.  0.
         12    1    1    2    0    0 -0.16565807998E+02  0.10294745659E+01  0.86714256345E+01  0.18726436795E+02  0.00000000000E+00 0. -1.
         11    1    3    3    0    0  0.10061468719E+02 -0.21791889290E+02  0.19519276982E+02  0.30937384598E+02  0.51100000000E-03 0. -1.
        -11    1    3    3    0    0 -0.34489492606E+01 -0.17993096115E+01 -0.10437131792E+02  0.11138513653E+02  0.51100000000E-03 0.  1.
        -12    1    3    3    0    0  0.99532885393E+01  0.22561724335E+02 -0.17753570824E+02  0.30385664955E+02  0.00000000000E+00 0.  1.
</event>
<event>
 7    1  0.1692604E-013  0.7246159E+02  0.7816164E-02  0.1226708E+00
        -11   -1    0    0    0    0  0.00000000000E+00  0.00000000000E+00  0.45593999997E+02  0.45594000000E+02  0.51100000000E-03 0.  1.
         11   -1    0    0    0    0 -0.00000000000E+00 -0.00000000000E+00 -0.45593999997E+02  0.45594000000E+02  0.51100000000E-03 0. -1.
    9900012    2    1    2    0    0 -0.13656055676E+02  0.11013465372E+02  0.65493682453E+01  0.72461588157E+02  0.70000023269E+02 0.  0.
         12    1    1    2    0    0  0.13656055676E+02 -0.11013465372E+02 -0.65493682453E+01  0.18726411843E+02  0.00000000000E+00 0. -1.
         11    1    3    3    0    0 -0.12209877618E+02 -0.14647284463E+02  0.81587030793E+01  0.20740985747E+02  0.51100000000E-03 0. -1.
        -11    1    3    3    0    0  0.62065183149E+01 -0.11862329432E+02  0.74509374244E-01  0.13388102220E+02  0.51100000000E-03 0.  1.
         12    1    3    3    0    0 -0.76526963728E+01  0.37523079267E+02 -0.16838442082E+01  0.38332500189E+02  0.00000000000E+00 0. -1.
</event>
<event>
 7    1  0.1692604E-013  0.7246172E+02  0.7816164E-02  0.1226708E+00
        -11   -1    0    0    0    0  0.00000000000E+00  0.00000000000E+00  0.45593999997E+02  0.45594000000E+02  0.51100000000E-03 0.  1.
         11   -1    0    0    0    0 -0.00000000000E+00 -0.00000000000E+00 -0.45593999997E+02  0.45594000000E+02  0.51100000000E-03 0. -1.
    9900012    2    1    2    0    0  0.14316667002E+02  0.64692926338E+01  0.10190916371E+02  0.72461722268E+02  0.70000197974E+02 0.  0.
         12    1    1    2    0    0 -0.14316667002E+02 -0.64692926338E+01 -0.10190916371E+02  0.18726277732E+02  0.00000000000E+00 0. -1.
         11    1    3    3    0    0  0.11165419112E+02 -0.55139796778E+01  0.10608435628E+02  0.16358773261E+02  0.51100000000E-03 0. -1.
        -11    1    3    3    0    0  0.49639424661E+01  0.33818239771E+02 -0.78910080592E+00  0.34189716968E+02  0.51100000000E-03 0.  1.
         12    1    3    3    0    0 -0.18126945769E+01 -0.21834967459E+02  0.37158154839E+00  0.21913232040E+02  0.00000000000E+00 0. -1.
</event>
<event>
 7    1  0.1692604E-013  0.7246158E+02  0.7816164E-02  0.1226708E+00
        -11   -1    0    0    0    0  0.00000000000E+00  0.00000000000E+00  0.45593999997E+02  0.45594000000E+02  0.51100000000E-03 0.  1.
         11   -1    0    0    0    0 -0.00000000000E+00 -0.00000000000E+00 -0.45593999997E+02  0.45594000000E+02  0.51100000000E-03 0. -1.
    9900012    2    1    2    0    0  0.57003756426E+01  0.17465057848E+02 -0.36271436947E+01  0.72461582844E+02  0.70000016349E+02 0.  0.
         12    1    1    2    0    0 -0.57003756426E+01 -0.17465057848E+02  0.36271436947E+01  0.18726417156E+02  0.00000000000E+00 0. -1.
         11    1    3    3    0    0  0.24901413280E+02 -0.76900265265E+01 -0.84763542749E+00  0.26075570509E+02  0.51100000000E-03 0. -1.
        -11    1    3    3    0    0  0.75236764948E+01 -0.22913940824E+01  0.82786453280E+00  0.79083218691E+01  0.51100000000E-03 0.  1.
        -12    1    3    3    0    0 -0.26724714132E+02  0.27446478457E+02 -0.36073728000E+01  0.38477690466E+02  0.00000000000E+00 0.  1.
</event>
<event>
 7    1  0.1692604E-013  0.7246155E+02  0.7816164E-02  0.1226708E+00
        -11   -1    0    0    0    0  0.00000000000E+00  0.00000000000E+00  0.45593999997E+02  0.45594000000E+02  0.51100000000E-03 0.  1.
         11   -1    0    0    0    0 -0.00000000000E+00 -0.00000000000E+00 -0.45593999997E+02  0.45594000000E+02  0.51100000000E-03 0. -1.
    9900012    2    1    2    0    0 -0.22027351369E+01 -0.40410195849E+01  0.18152077242E+02  0.72461553739E+02  0.69999978434E+02 0.  0.
         12    1    1    2    0    0  0.22027351369E+01  0.40410195849E+01 -0.18152077242E+02  0.18726446261E+02  0.00000000000E+00 0. -1.
         11    1    3    3    0    0  0.68686434277E+00  0.20522394501E+02 -0.11919415506E+02  0.23742639385E+02  0.51100000000E-03 0. -1.
        -11    1    3    3    0    0 -0.11391027306E+02  0.95361892908E+00  0.86563342961E+01  0.14338654604E+02  0.51100000000E-03 0.  1.
        -12    1    3    3    0    0  0.85014278264E+01 -0.25517033015E+02  0.21415158452E+02  0.34380259750E+02  0.00000000000E+00 0.  1.
</event>
<event>
 7    1  0.1692604E-013  0.7246158E+02  0.7816164E-02  0.1226708E+00
        -11   -1    0    0    0    0  0.00000000000E+00  0.00000000000E+00  0.45593999997E+02  0.45594000000E+02  0.51100000000E-03 0.  1.
         11   -1    0    0    0    0 -0.00000000000E+00 -0.00000000000E+00 -0.45593999997E+02  0.45594000000E+02  0.51100000000E-03 0. -1.
    9900012    2    1    2    0    0 -0.34601818199E+00  0.17754031660E+02  0.59458912265E+01  0.72461575054E+02  0.70000006200E+02 0.  0.
         12    1    1    2    0    0  0.34601818199E+00 -0.17754031660E+02 -0.59458912265E+01  0.18726424946E+02  0.00000000000E+00 0. -1.
         11    1    3    3    0    0  0.30558663618E+02  0.44410563702E+01  0.75722786137E+01  0.31794564118E+02  0.51100000000E-03 0. -1.
        -11    1    3    3    0    0 -0.21575506068E+01  0.11411904267E+02 -0.23435835565E+01  0.11848163055E+02  0.51100000000E-03 0.  1.
        -12    1    3    3    0    0 -0.28747131193E+02  0.19010710229E+01  0.71719616928E+00  0.28818847881E+02  0.00000000000E+00 0.  1.
</event>
<event>
 7    1  0.1692604E-013  0.7246159E+02  0.7816164E-02  0.1226708E+00
        -11   -1    0    0    0    0  0.00000000000E+00  0.00000000000E+00  0.45593999997E+02  0.45594000000E+02  0.51100000000E-03 0. -1.
         11   -1    0    0    0    0 -0.00000000000E+00 -0.00000000000E+00 -0.45593999997E+02  0.45594000000E+02  0.51100000000E-03 0.  1.
    9900012    2    1    2    0    0  0.98700292952E+00 -0.66833054638E+01 -0.17465327023E+02  0.72461590982E+02  0.70000026949E+02 0.  0.
         12    1    1    2    0    0 -0.98700292952E+00  0.66833054638E+01  0.17465327023E+02  0.18726409018E+02  0.00000000000E+00 0. -1.
         11    1    3    3    0    0  0.34840824350E+01  0.10073345604E+02 -0.80038382740E+01  0.13329386687E+02  0.51100000000E-03 0. -1.
        -11    1    3    3    0    0 -0.15281509074E+01 -0.28923618912E+02 -0.25765562686E+02  0.38765644544E+02  0.51100000000E-03 0.  1.
         12    1    3    3    0    0 -0.96892859805E+00  0.12166967844E+02  0.16304073937E+02  0.20366559751E+02  0.00000000000E+00 0. -1.
</event>
<event>
 7    1  0.1692604E-013  0.7246157E+02  0.7816164E-02  0.1226708E+00
        -11   -1    0    0    0    0  0.00000000000E+00  0.00000000000E+00  0.45593999997E+02  0.45594000000E+02  0.51100000000E-03 0.  1.
         11   -1    0    0    0    0 -0.00000000000E+00 -0.00000000000E+00 -0.45593999997E+02  0.45594000000E+02  0.51100000000E-03 0. -1.
    9900012    2    1    2    0    0 -0.48648214890E+01 -0.17153629307E+02  0.57241264939E+01  0.72461571867E+02  0.70000002048E+02 0.  0.
         12    1    1    2    0    0  0.48648214890E+01  0.17153629307E+02 -0.57241264939E+01  0.18726428133E+02  0.00000000000E+00 0. -1.
         11    1    3    3    0    0 -0.92601060753E+01  0.10419641194E+02 -0.46402366174E+01  0.14691844107E+02  0.51100000000E-03 0. -1.
        -11    1    3    3    0    0 -0.13894137753E+02  0.67895703753E+01 -0.44930091181E+01  0.16103802687E+02  0.51100000000E-03 0.  1.
        -12    1    3    3    0    0  0.18289422339E+02 -0.34362840876E+02  0.14857372229E+02  0.41665925073E+02  0.00000000000E+00 0.  1.
</event>
<event>
 7    1  0.1692604E-013  0.7246157E+02  0.7816164E-02  0.1226708E+00
        -11   -1    0    0    0    0  0.00000000000E+00  0.00000000000E+00  0.45593999997E+02  0.45594000000E+02  0.51100000000E-03 0.  1.
         11   -1    0    0    0    0 -0.00000000000E+00 -0.00000000000E+00 -0.45593999997E+02  0.45594000000E+02  0.51100000000E-03 0. -1.
    9900012    2    1    2    0    0  0.12756065727E+02  0.56716231702E+01  0.12481769996E+02  0.72461572031E+02  0.70000002263E+02 0.  0.
         12    1    1    2    0    0 -0.12756065727E+02 -0.56716231702E+01 -0.12481769996E+02  0.18726427969E+02  0.00000000000E+00 0. -1.
         11    1    3    3    0    0  0.62142506625E+01  0.16401038928E+02  0.19592371270E+02  0.26295855214E+02  0.51100000000E-03 0. -1.
        -11    1    3    3    0    0  0.14794710468E+02 -0.13352999233E+02  0.13323095904E+02  0.23972712218E+02  0.51100000000E-03 0.  1.
         12    1    3    3    0    0 -0.82528954034E+01  0.26235834760E+01 -0.20433697177E+02  0.22193004599E+02  0.00000000000E+00 0. -1.
</event>
<event>
 7    1  0.1692604E-013  0.7246159E+02  0.7816164E-02  0.1226708E+00
        -11   -1    0    0    0    0  0.00000000000E+00  0.00000000000E+00  0.45593999997E+02  0.45594000000E+02  0.51100000000E-03 0.  1.
         11   -1    0    0    0    0 -0.00000000000E+00 -0.00000000000E+00 -0.45593999997E+02  0.45594000000E+02  0.51100000000E-03 0. -1.
    9900012    2    1    2    0    0  0.15404400367E+02 -0.96015038990E+01 -0.46036772449E+01  0.72461594259E+02  0.70000031218E+02 0.  0.
         12    1    1    2    0    0 -0.15404400367E+02  0.96015038990E+01  0.46036772449E+01  0.18726405741E+02  0.00000000000E+00 0. -1.
         11    1    3    3    0    0 -0.62636731823E+01  0.11502233150E+02 -0.37737881151E+01  0.13629983352E+02  0.51100000000E-03 0. -1.
        -11    1    3    3    0    0 -0.82823592296E+01  0.63557730299E+01  0.12296702785E+02  0.16130785004E+02  0.51100000000E-03 0.  1.
         12    1    3    3    0    0  0.29950432779E+02 -0.27459510079E+02 -0.13126591915E+02  0.42700825903E+02  0.00000000000E+00 0. -1.
</event>
<event>
 7    1  0.1692604E-013  0.7246152E+02  0.7816164E-02  0.1226708E+00
        -11   -1    0    0    0    0  0.00000000000E+00  0.00000000000E+00  0.45593999997E+02  0.45594000000E+02  0.51100000000E-03 0.  1.
         11   -1    0    0    0    0 -0.00000000000E+00 -0.00000000000E+00 -0.45593999997E+02  0.45594000000E+02  0.51100000000E-03 0. -1.
    9900012    2    1    2    0    0  0.90287345222E+01  0.59062789182E+00  0.16395548149E+02  0.72461524424E+02  0.69999940246E+02 0.  0.
         12    1    1    2    0    0 -0.90287345222E+01 -0.59062789182E+00 -0.16395548149E+02  0.18726475576E+02  0.00000000000E+00 0. -1.
         11    1    3    3    0    0 -0.12896881217E+02 -0.21629718379E+01 -0.12175523623E+02  0.17867606668E+02  0.51100000000E-03 0. -1.
        -11    1    3    3    0    0  0.25725245056E+01 -0.10636071336E+02 -0.62230415649E+01  0.12588492458E+02  0.51100000000E-03 0.  1.
        -12    1    3    3    0    0  0.19353091234E+02  0.13389671065E+02  0.34794113337E+02  0.42005425298E+02  0.00000000000E+00 0.  1.
</event>
<event>
 7    1  0.1692604E-013  0.7246157E+02  0.7816164E-02  0.1226708E+00
        -11   -1    0    0    0    0  0.00000000000E+00  0.00000000000E+00  0.45593999997E+02  0.45594000000E+02  0.51100000000E-03 0.  1.
         11   -1    0    0    0    0 -0.00000000000E+00 -0.00000000000E+00 -0.45593999997E+02  0.45594000000E+02  0.51100000000E-03 0. -1.
    9900012    2    1    2    0    0  0.46724175178E+01 -0.16048908646E+02  0.84427513020E+01  0.72461574721E+02  0.70000005766E+02 0.  0.
         12    1    1    2    0    0 -0.46724175178E+01  0.16048908646E+02 -0.84427513020E+01  0.18726425279E+02  0.00000000000E+00 0. -1.
         11    1    3    3    0    0 -0.13358605227E+01 -0.20354755294E+02 -0.12778753848E+01  0.20438531067E+02  0.51100000000E-03 0. -1.
        -11    1    3    3    0    0  0.10350024953E+02 -0.63280111171E+01  0.27954348270E+02  0.30473141103E+02  0.51100000000E-03 0.  1.
         12    1    3    3    0    0 -0.43417469126E+01  0.10633857764E+02 -0.18233721583E+02  0.21549902551E+02  0.00000000000E+00 0. -1.
</event>
<event>
 7    1  0.1692604E-013  0.7246158E+02  0.7816164E-02  0.1226708E+00
        -11   -1    0    0    0    0  0.00000000000E+00  0.00000000000E+00  0.45593999997E+02  0.45594000000E+02  0.51100000000E-03 0. -1.
         11   -1    0    0    0    0 -0.00000000000E+00 -0.00000000000E+00 -0.45593999997E+02  0.45594000000E+02  0.51100000000E-03 0.  1.
    9900012    2    1    2    0    0  0.10806335648E+02  0.24682971669E+01 -0.15093357574E+02  0.72461579522E+02  0.70000012021E+02 0.  0.
         12    1    1    2    0    0 -0.10806335648E+02 -0.24682971669E+01  0.15093357574E+02  0.18726420478E+02  0.00000000000E+00 0. -1.
         11    1    3    3    0    0  0.70346757758E+01 -0.43308283457E+01  0.85162500549E+01  0.11864621894E+02  0.51100000000E-03 0. -1.
        -11    1    3    3    0    0  0.23787264525E+02  0.10639848048E+02 -0.29520458321E+02  0.39376360673E+02  0.51100000000E-03 0.  1.
         12    1    3    3    0    0 -0.20015604653E+02 -0.38407225358E+01  0.59108506921E+01  0.21220596955E+02  0.00000000000E+00 0. -1.
</event>
<event>
 7    1  0.1692604E-013  0.7246156E+02  0.7816164E-02  0.1226708E+00
        -11   -1    0    0    0    0  0.00000000000E+00  0.00000000000E+00  0.45593999997E+02  0.45594000000E+02  0.51100000000E-03 0. -1.
         11   -1    0    0    0    0 -0.00000000000E+00 -0.00000000000E+00 -0.45593999997E+02  0.45594000000E+02  0.51100000000E-03 0.  1.
    9900012    2    1    2    0    0  0.70381145281E+01 -0.92021262422E+01 -0.14712764638E+02  0.72461558086E+02  0.69999984096E+02 0.  0.
         12    1    1    2    0    0 -0.70381145281E+01  0.92021262422E+01  0.14712764638E+02  0.18726441914E+02  0.00000000000E+00 0. -1.
         11    1    3    3    0    0 -0.80856782780E+01 -0.12151360923E+02 -0.95287451054E+00  0.14626747266E+02  0.51100000000E-03 0. -1.
        -11    1    3    3    0    0 -0.14517344637E+02 -0.14516581180E+02  0.63646213713E+00  0.20539949094E+02  0.51100000000E-03 0.  1.
        -12    1    3    3    0    0  0.29641137443E+02  0.17465815861E+02 -0.14396352264E+02  0.37294861725E+02  0.00000000000E+00 0.  1.
</event>
<event>
 7    1  0.1692604E-013  0.7246144E+02  0.7816164E-02  0.1226708E+00
        -11   -1    0    0    0    0  0.00000000000E+00  0.00000000000E+00  0.45593999997E+02  0.45594000000E+02  0.51100000000E-03 0.  1.
         11   -1    0    0    0    0 -0.00000000000E+00 -0.00000000000E+00 -0.45593999997E+02  0.45594000000E+02  0.51100000000E-03 0. -1.
    9900012    2    1    2    0    0  0.24250551499E+01 -0.16400008674E+02  0.87087846612E+01  0.72461438456E+02  0.69999828255E+02 0.  0.
         12    1    1    2    0    0 -0.24250551499E+01  0.16400008674E+02 -0.87087846612E+01  0.18726561544E+02  0.00000000000E+00 0. -1.
         11    1    3    3    0    0  0.12384439317E+01 -0.91309094593E+01 -0.48359623962E+00  0.92271944008E+01  0.51100000000E-03 0. -1.
        -11    1    3    3    0    0 -0.24851516882E+02  0.14121331911E+02  0.72077654237E+01  0.29478157828E+02  0.51100000000E-03 0.  1.
         12    1    3    3    0    0  0.26038128101E+02 -0.21390431126E+02  0.19846154772E+01  0.33756086226E+02  0.00000000000E+00 0. -1.
</event>
<event>
 7    1  0.1692604E-013  0.7246154E+02  0.7816164E-02  0.1226708E+00
        -11   -1    0    0    0    0  0.00000000000E+00  0.00000000000E+00  0.45593999997E+02  0.45594000000E+02  0.51100000000E-03 0.  1.
         11   -1    0    0    0    0 -0.00000000000E+00 -0.00000000000E+00 -0.45593999997E+02  0.45594000000E+02  0.51100000000E-03 0. -1.
    9900012    2    1    2    0    0  0.14426473039E+02  0.80118739202E+01  0.88525152676E+01  0.72461540788E+02  0.69999961562E+02 0.  0.
         12    1    1    2    0    0 -0.14426473039E+02 -0.80118739202E+01 -0.88525152676E+01  0.18726459212E+02  0.00000000000E+00 0. -1.
         11    1    3    3    0    0 -0.57526249238E+01 -0.98793624948E+01 -0.18060372321E+02  0.21374553690E+02  0.51100000000E-03 0. -1.
        -11    1    3    3    0    0 -0.15124382335E+01 -0.60793579324E+01 -0.30867173655E+01  0.69838303699E+01  0.51100000000E-03 0.  1.
         12    1    3    3    0    0  0.21691536197E+02  0.23970594347E+02  0.29999604954E+02  0.44103156728E+02  0.00000000000E+00 0. -1.
</event>
<event>
 7    1  0.1692604E-013  0.7246155E+02  0.7816164E-02  0.1226708E+00
        -11   -1    0    0    0    0  0.00000000000E+00  0.00000000000E+00  0.45593999997E+02  0.45594000000E+02  0.51100000000E-03 0.  1.
         11   -1    0    0    0    0 -0.00000000000E+00 -0.00000000000E+00 -0.45593999997E+02  0.45594000000E+02  0.51100000000E-03 0. -1.
    9900012    2    1    2    0    0 -0.11798079087E+02 -0.69444375855E+01  0.12777319250E+02  0.72461554241E+02  0.69999979088E+02 0.  0.
         12    1    1    2    0    0  0.11798079087E+02  0.69444375855E+01 -0.12777319250E+02  0.18726445759E+02  0.00000000000E+00 0. -1.
         11    1    3    3    0    0  0.93798271539E+01  0.10892167772E+02 -0.12042278743E+02  0.18751985329E+02  0.51100000000E-03 0. -1.
        -11    1    3    3    0    0 -0.21089832967E+02 -0.12029911671E+01 -0.29602130176E+01  0.21330520474E+02  0.51100000000E-03 0.  1.
         12    1    3    3    0    0 -0.88073274183E-01 -0.16633614190E+02  0.27779811011E+02  0.32379048438E+02  0.00000000000E+00 0. -1.
</event>
<event>
 7    1  0.1692604E-013  0.7246160E+02  0.7816164E-02  0.1226708E+00
        -11   -1    0    0    0    0  0.00000000000E+00  0.00000000000E+00  0.45593999997E+02  0.45594000000E+02  0.51100000000E-03 0. -1.
         11   -1    0    0    0    0 -0.00000000000E+00 -0.00000000000E+00 -0.45593999997E+02  0.45594000000E+02  0.51100000000E-03 0.  1.
    9900012    2    1    2    0    0 -0.92075902167E+01 -0.32896666687E+01 -0.15971116392E+02  0.72461596630E+02  0.70000034307E+02 0.  0.
         12    1    1    2    0    0  0.92075902167E+01  0.32896666687E+01  0.15971116392E+02  0.18726403370E+02  0.00000000000E+00 0. -1.
         11    1    3    3    0    0  0.22289803281E+01  0.67861501738E+01 -0.23722229480E+00  0.71467798457E+01  0.51100000000E-03 0.  1.
        -11    1    3    3    0    0  0.14017079880E+02  0.18678551619E+02 -0.13209314151E+02  0.26830072671E+02  0.51100000000E-03 0. -1.
        -12    1    3    3    0    0 -0.25453650424E+02 -0.28754368461E+02 -0.25245799456E+01  0.38484744113E+02  0.00000000000E+00 0.  1.
</event>
<event>
 7    1  0.1692604E-013  0.7246181E+02  0.7816164E-02  0.1226707E+00
        -11   -1    0    0    0    0  0.00000000000E+00  0.00000000000E+00  0.45593999997E+02  0.45594000000E+02  0.51100000000E-03 0. -1.
         11   -1    0    0    0    0 -0.00000000000E+00 -0.00000000000E+00 -0.45593999997E+02  0.45594000000E+02  0.51100000000E-03 0.  1.
    9900012    2    1    2    0    0 -0.15725612942E+02 -0.62907126932E+01 -0.79876304606E+01  0.72461809545E+02  0.70000311667E+02 0.  0.
         12    1    1    2    0    0  0.15725612942E+02  0.62907126932E+01  0.79876304606E+01  0.18726190455E+02  0.00000000000E+00 0. -1.
         11    1    3    3    0    0 -0.29287266850E+02 -0.38010697854E+01  0.20052471686E+02  0.35697251323E+02  0.51100000000E-03 0. -1.
        -11    1    3    3    0    0 -0.30747629130E+01  0.46219493407E+01 -0.50119577441E+01  0.74790576525E+01  0.51100000000E-03 0.  1.
         12    1    3    3    0    0  0.16636416821E+02 -0.71115922486E+01 -0.23028144403E+02  0.29285500569E+02  0.00000000000E+00 0. -1.
</event>
<event>
 7    1  0.1692604E-013  0.7246167E+02  0.7816164E-02  0.1226708E+00
        -11   -1    0    0    0    0  0.00000000000E+00  0.00000000000E+00  0.45593999997E+02  0.45594000000E+02  0.51100000000E-03 0.  1.
         11   -1    0    0    0    0 -0.00000000000E+00 -0.00000000000E+00 -0.45593999997E+02  0.45594000000E+02  0.51100000000E-03 0. -1.
    9900012    2    1    2    0    0 -0.54789018264E+01  0.16299724894E+02  0.74145814591E+01  0.72461670540E+02  0.70000130588E+02 0.  0.
         12    1    1    2    0    0  0.54789018264E+01 -0.16299724894E+02 -0.74145814591E+01  0.18726329460E+02  0.00000000000E+00 0. -1.
         11    1    3    3    0    0 -0.15031104550E+01 -0.35401088293E+01  0.71711805167E+01  0.81374161641E+01  0.51100000000E-03 0. -1.
        -11    1    3    3    0    0  0.50515970340E+01 -0.20047881033E+02  0.89212527426E+01  0.22517213799E+02  0.51100000000E-03 0.  1.
         12    1    3    3    0    0 -0.90273884054E+01  0.39887714756E+02 -0.86778518002E+01  0.41807040577E+02  0.00000000000E+00 0. -1.
</event>
<event>
 7    1  0.1692604E-013  0.7246154E+02  0.7816164E-02  0.1226708E+00
        -11   -1    0    0    0    0  0.00000000000E+00  0.00000000000E+00  0.45593999997E+02  0.45594000000E+02  0.51100000000E-03 0.  1.
         11   -1    0    0    0    0 -0.00000000000E+00 -0.00000000000E+00 -0.45593999997E+02  0.45594000000E+02  0.51100000000E-03 0. -1.
    9900012    2    1    2    0    0 -0.14472443622E+02  0.25298385224E+00  0.11881280730E+02  0.72461535918E+02  0.69999955219E+02 0.  0.
         12    1    1    2    0    0  0.14472443622E+02 -0.25298385224E+00 -0.11881280730E+02  0.18726464082E+02  0.00000000000E+00 0. -1.
         11    1    3    3    0    0  0.19922941299E+01  0.15191203496E+02  0.26886607206E+02  0.30945622419E+02  0.51100000000E-03 0. -1.
        -11    1    3    3    0    0  0.10956504627E+01  0.48946565529E+01  0.59193479844E+01  0.77586592611E+01  0.51100000000E-03 0.  1.
         12    1    3    3    0    0 -0.17560388214E+02 -0.19832876197E+02 -0.20924674460E+02  0.33757254239E+02  0.00000000000E+00 0. -1.
</event>
<event>
 7    1  0.1692604E-013  0.7246160E+02  0.7816164E-02  0.1226708E+00
        -11   -1    0    0    0    0  0.00000000000E+00  0.00000000000E+00  0.45593999997E+02  0.45594000000E+02  0.51100000000E-03 0. -1.
         11   -1    0    0    0    0 -0.00000000000E+00 -0.00000000000E+00 -0.45593999997E+02  0.45594000000E+02  0.51100000000E-03 0.  1.
    9900012    2    1    2    0    0 -0.96769292285E+01  0.94844019997E+01 -0.12925996769E+02  0.72461595298E+02  0.70000032572E+02 0.  0.
         12    1    1    2    0    0  0.96769292285E+01 -0.94844019997E+01  0.12925996769E+02  0.18726404702E+02  0.00000000000E+00 0. -1.
         11    1    3    3    0    0  0.15348903783E+02  0.93346964411E+00  0.10846803412E+02  0.18817899921E+02  0.51100000000E-03 0. -1.
        -11    1    3    3    0    0 -0.81987652477E+01 -0.52802303246E+01  0.96695953965E+01  0.13733231931E+02  0.51100000000E-03 0.  1.
        -12    1    3    3    0    0 -0.16827067763E+02  0.13831162680E+02 -0.33442395577E+02  0.39910463447E+02  0.00000000000E+00 0.  1.
</event>
<event>
 7    1  0.1692604E-013  0.7246155E+02  0.7816164E-02  0.1226708E+00
        -11   -1    0    0    0    0  0.00000000000E+00  0.00000000000E+00  0.45593999997E+02  0.45594000000E+02  0.51100000000E-03 0.  1.
         11   -1    0    0    0    0 -0.00000000000E+00 -0.00000000000E+00 -0.45593999997E+02  0.45594000000E+02  0.51100000000E-03 0. -1.
    9900012    2    1    2    0    0 -0.14597041969E+02 -0.69055101990E+01  0.94826297918E+01  0.72461548838E+02  0.69999972049E+02 0.  0.
         12    1    1    2    0    0  0.14597041969E+02  0.69055101990E+01 -0.94826297918E+01  0.18726451162E+02  0.00000000000E+00 0. -1.
         11    1    3    3    0    0 -0.12651043579E+02  0.96134212307E+01  0.77801280981E+01  0.17691725887E+02  0.51100000000E-03 0. -1.
        -11    1    3    3    0    0 -0.21794250549E+02  0.79501871482E+01  0.17216142044E+01  0.23262819872E+02  0.51100000000E-03 0.  1.
         12    1    3    3    0    0  0.19848252158E+02 -0.24469118578E+02 -0.19112510722E-01  0.31507003079E+02  0.00000000000E+00 0. -1.
</event>
<event>
 7    1  0.1692604E-013  0.7246158E+02  0.7816164E-02  0.1226708E+00
        -11   -1    0    0    0    0  0.00000000000E+00  0.00000000000E+00  0.45593999997E+02  0.45594000000E+02  0.51100000000E-03 0. -1.
         11   -1    0    0    0    0 -0.00000000000E+00 -0.00000000000E+00 -0.45593999997E+02  0.45594000000E+02  0.51100000000E-03 0.  1.
    9900012    2    1    2    0    0  0.34479154474E+01 -0.13553600663E+02 -0.12453544793E+02  0.72461575094E+02  0.70000006252E+02 0.  0.
         12    1    1    2    0    0 -0.34479154474E+01  0.13553600663E+02  0.12453544793E+02  0.18726424906E+02  0.00000000000E+00 0. -1.
         11    1    3    3    0    0 -0.16550170586E+02  0.34137124630E+01 -0.93557588673E+01  0.19315584471E+02  0.51100000000E-03 0. -1.
        -11    1    3    3    0    0  0.17271229114E+02  0.12656590494E+02 -0.82639032435E+01  0.22951617265E+02  0.51100000000E-03 0.  1.
         12    1    3    3    0    0  0.27268569197E+01 -0.29623903619E+02  0.51661173179E+01  0.30194373358E+02  0.00000000000E+00 0. -1.
</event>
<event>
 7    1  0.1692604E-013  0.7246147E+02  0.7816164E-02  0.1226708E+00
        -11   -1    0    0    0    0  0.00000000000E+00  0.00000000000E+00  0.45593999997E+02  0.45594000000E+02  0.51100000000E-03 0.  1.
         11   -1    0    0    0    0 -0.00000000000E+00 -0.00000000000E+00 -0.45593999997E+02  0.45594000000E+02  0.51100000000E-03 0. -1.
    9900012    2    1    2    0    0 -0.18301561818E+02 -0.36606626091E+01 -0.15282092118E+01  0.72461466976E+02  0.69999865408E+02 0.  0.
         12    1    1    2    0    0  0.18301561818E+02  0.36606626091E+01  0.15282092118E+01  0.18726533024E+02  0.00000000000E+00 0. -1.
         11    1    3    3    0    0  0.13475135675E+02  0.17699294926E+02 -0.36454085136E+01  0.22541812834E+02  0.51100000000E-03 0. -1.
        -11    1    3    3    0    0  0.54816945264E+01  0.48510650054E+00 -0.32596115552E+01  0.63960433824E+01  0.51100000000E-03 0.  1.
        -12    1    3    3    0    0 -0.37258392019E+02 -0.21845064036E+02  0.53768108570E+01  0.43523610760E+02  0.00000000000E+00 0.  1.
</event>
<event>
 7    1  0.1692604E-013  0.7246151E+02  0.7816164E-02  0.1226708E+00
        -11   -1    0    0    0    0  0.00000000000E+00  0.00000000000E+00  0.45593999997E+02  0.45594000000E+02  0.51100000000E-03 0.  1.
         11   -1    0    0    0    0 -0.00000000000E+00 -0.00000000000E+00 -0.45593999997E+02  0.45594000000E+02  0.51100000000E-03 0. -1.
    9900012    2    1    2    0    0 -0.23118530837E+01  0.18475879903E+02 -0.19946705356E+01  0.72461507712E+02  0.69999918475E+02 0.  0.
         12    1    1    2    0    0  0.23118530837E+01 -0.18475879903E+02  0.19946705356E+01  0.18726492288E+02  0.00000000000E+00 0. -1.
         11    1    3    3    0    0 -0.58893866024E+00 -0.31587408024E+01 -0.26088372814E+02  0.26285503391E+02  0.51100000000E-03 0. -1.
        -11    1    3    3    0    0  0.23076700154E+01 -0.73838166097E+01 -0.73807509176E+00  0.77711545942E+01  0.51100000000E-03 0.  1.
        -12    1    3    3    0    0 -0.40305844389E+01  0.29018437315E+02  0.24831777370E+02  0.38404849726E+02  0.00000000000E+00 0.  1.
</event>
<event>
 7    1  0.1692604E-013  0.7246160E+02  0.7816164E-02  0.1226708E+00
        -11   -1    0    0    0    0  0.00000000000E+00  0.00000000000E+00  0.45593999997E+02  0.45594000000E+02  0.51100000000E-03 0.  1.
         11   -1    0    0    0    0 -0.00000000000E+00 -0.00000000000E+00 -0.45593999997E+02  0.45594000000E+02  0.51100000000E-03 0. -1.
    9900012    2    1    2    0    0  0.17145757393E+02  0.73960470343E+01 -0.14139988470E+01  0.72461604163E+02  0.70000044120E+02 0.  0.
         12    1    1    2    0    0 -0.17145757393E+02 -0.73960470343E+01  0.14139988470E+01  0.18726395837E+02  0.00000000000E+00 0. -1.
         11    1    3    3    0    0  0.85919771010E+01 -0.11462298249E+02  0.13131192548E+02  0.19432821968E+02  0.51100000000E-03 0. -1.
        -11    1    3    3    0    0  0.56987415809E+01  0.80555563576E+01  0.16948470227E+02  0.19611687514E+02  0.51100000000E-03 0.  1.
         12    1    3    3    0    0  0.28550387106E+01  0.10802788926E+02 -0.31493661622E+02  0.33417094682E+02  0.00000000000E+00 0. -1.
</event>
<event>
 7    1  0.1692604E-013  0.7246150E+02  0.7816164E-02  0.1226708E+00
        -11   -1    0    0    0    0  0.00000000000E+00  0.00000000000E+00  0.45593999997E+02  0.45594000000E+02  0.51100000000E-03 0. -1.
         11   -1    0    0    0    0 -0.00000000000E+00 -0.00000000000E+00 -0.45593999997E+02  0.45594000000E+02  0.51100000000E-03 0.  1.
    9900012    2    1    2    0    0  0.11274157009E+02 -0.71064226714E+01 -0.13155754160E+02  0.72461502010E+02  0.69999911048E+02 0.  0.
         12    1    1    2    0    0 -0.11274157009E+02  0.71064226714E+01  0.13155754160E+02  0.18726497990E+02  0.00000000000E+00 0. -1.
         11    1    3    3    0    0 -0.44651109434E+01 -0.76633166034E+01  0.11468754798E+02  0.14498136914E+02  0.51100000000E-03 0. -1.
        -11    1    3    3    0    0 -0.14231708616E+02 -0.33642055283E+01  0.51798243910E+01  0.15514186732E+02  0.51100000000E-03 0.  1.
        -12    1    3    3    0    0  0.29970976568E+02  0.39210994603E+01 -0.29804333349E+02  0.42449178364E+02  0.00000000000E+00 0.  1.
</event>
<event>
 7    1  0.1692604E-013  0.7246157E+02  0.7816164E-02  0.1226708E+00
        -11   -1    0    0    0    0  0.00000000000E+00  0.00000000000E+00  0.45593999997E+02  0.45594000000E+02  0.51100000000E-03 0.  1.
         11   -1    0    0    0    0 -0.00000000000E+00 -0.00000000000E+00 -0.45593999997E+02  0.45594000000E+02  0.51100000000E-03 0. -1.
    9900012    2    1    2    0    0  0.16930699127E+02 -0.65993239197E+01  0.45254377602E+01  0.72461568518E+02  0.69999997686E+02 0.  0.
         12    1    1    2    0    0 -0.16930699127E+02  0.65993239197E+01 -0.45254377602E+01  0.18726431482E+02  0.00000000000E+00 0. -1.
         11    1    3    3    0    0 -0.90102379586E+01  0.23687465940E+02 -0.19606380083E+01  0.25418979767E+02  0.51100000000E-03 0. -1.
        -11    1    3    3    0    0  0.55085763143E+01  0.20905073560E+01  0.64787315459E+01  0.87572025625E+01  0.51100000000E-03 0.  1.
        -12    1    3    3    0    0  0.20432360771E+02 -0.32377297216E+02  0.73442226263E-02  0.38285386189E+02  0.00000000000E+00 0.  1.
</event>
<event>
 7    1  0.1692604E-013  0.7246159E+02  0.7816164E-02  0.1226708E+00
        -11   -1    0    0    0    0  0.00000000000E+00  0.00000000000E+00  0.45593999997E+02  0.45594000000E+02  0.51100000000E-03 0. -1.
         11   -1    0    0    0    0 -0.00000000000E+00 -0.00000000000E+00 -0.45593999997E+02  0.45594000000E+02  0.51100000000E-03 0.  1.
    9900012    2    1    2    0    0  0.47209360078E+01 -0.18095523469E+02 -0.97117687842E+00  0.72461591083E+02  0.70000027081E+02 0.  0.
         12    1    1    2    0    0 -0.47209360078E+01  0.18095523469E+02  0.97117687842E+00  0.18726408917E+02  0.00000000000E+00 0. -1.
         11    1    3    3    0    0  0.51888745807E+01 -0.38475203586E+01 -0.12634964839E+02  0.14190495731E+02  0.51100000000E-03 0.  1.
        -11    1    3    3    0    0 -0.22144501482E+02 -0.23958177562E+02  0.11267737326E+02  0.34515722833E+02  0.51100000000E-03 0. -1.
         12    1    3    3    0    0  0.21676562909E+02  0.97101744515E+01  0.39605063506E+00  0.23755372519E+02  0.00000000000E+00 0. -1.
</event>
<event>
 7    1  0.1692604E-013  0.7246155E+02  0.7816164E-02  0.1226708E+00
        -11   -1    0    0    0    0  0.00000000000E+00  0.00000000000E+00  0.45593999997E+02  0.45594000000E+02  0.51100000000E-03 0. -1.
         11   -1    0    0    0    0 -0.00000000000E+00 -0.00000000000E+00 -0.45593999997E+02  0.45594000000E+02  0.51100000000E-03 0.  1.
    9900012    2    1    2    0    0  0.57656215803E+01 -0.12926409549E+02 -0.12261547455E+02  0.72461548066E+02  0.69999971044E+02 0.  0.
         12    1    1    2    0    0 -0.57656215803E+01  0.12926409549E+02  0.12261547455E+02  0.18726451934E+02  0.00000000000E+00 0. -1.
         11    1    3    3    0    0 -0.12534109512E+02 -0.27168409077E+01  0.48108884804E+01  0.13697801794E+02  0.51100000000E-03 0. -1.
        -11    1    3    3    0    0  0.44809569768E+00 -0.59428618704E+01 -0.33563820175E+02  0.34088831337E+02  0.51100000000E-03 0.  1.
         12    1    3    3    0    0  0.17851635394E+02 -0.42667067709E+01  0.16491384239E+02  0.24674914935E+02  0.00000000000E+00 0. -1.
</event>
<event>
 7    1  0.1692604E-013  0.7246161E+02  0.7816164E-02  0.1226708E+00
        -11   -1    0    0    0    0  0.00000000000E+00  0.00000000000E+00  0.45593999997E+02  0.45594000000E+02  0.51100000000E-03 0.  1.
         11   -1    0    0    0    0 -0.00000000000E+00 -0.00000000000E+00 -0.45593999997E+02  0.45594000000E+02  0.51100000000E-03 0. -1.
    9900012    2    1    2    0    0 -0.55334050996E+01 -0.34195826020E+01  0.17560342580E+02  0.72461608230E+02  0.70000049419E+02 0.  0.
         12    1    1    2    0    0  0.55334050996E+01  0.34195826020E+01 -0.17560342580E+02  0.18726391770E+02  0.00000000000E+00 0. -1.
         11    1    3    3    0    0  0.10822108653E+02 -0.85063960470E+00  0.12379362556E+02  0.16464818279E+02  0.51100000000E-03 0.  1.
        -11    1    3    3    0    0 -0.17587416323E+02  0.52681863756E+01  0.27073279656E+02  0.32711366101E+02  0.51100000000E-03 0. -1.
        -12    1    3    3    0    0  0.12319025711E+01 -0.78371293729E+01 -0.21892299631E+02  0.23285423850E+02  0.00000000000E+00 0.  1.
</event>
<event>
 7    1  0.1692604E-013  0.7246148E+02  0.7816164E-02  0.1226708E+00
        -11   -1    0    0    0    0  0.00000000000E+00  0.00000000000E+00  0.45593999997E+02  0.45594000000E+02  0.51100000000E-03 0.  1.
         11   -1    0    0    0    0 -0.00000000000E+00 -0.00000000000E+00 -0.45593999997E+02  0.45594000000E+02  0.51100000000E-03 0. -1.
    9900012    2    1    2    0    0  0.15473026260E+02  0.10135863448E+02  0.29209761658E+01  0.72461484808E+02  0.69999888638E+02 0.  0.
         12    1    1    2    0    0 -0.15473026260E+02 -0.10135863448E+02 -0.29209761658E+01  0.18726515192E+02  0.00000000000E+00 0. -1.
         11    1    3    3    0    0 -0.11864216359E+02 -0.17145613301E+02 -0.21708909679E+01  0.20962930452E+02  0.51100000000E-03 0. -1.
        -11    1    3    3    0    0  0.19128225935E+02  0.21571783002E+01  0.13782734083E+02  0.23675012242E+02  0.51100000000E-03 0.  1.
        -12    1    3    3    0    0  0.82090166840E+01  0.25124298448E+02 -0.86908669489E+01  0.27823542114E+02  0.00000000000E+00 0.  1.
</event>
<event>
 7    1  0.1692604E-013  0.7246157E+02  0.7816164E-02  0.1226708E+00
        -11   -1    0    0    0    0  0.00000000000E+00  0.00000000000E+00  0.45593999997E+02  0.45594000000E+02  0.51100000000E-03 0.  1.
         11   -1    0    0    0    0 -0.00000000000E+00 -0.00000000000E+00 -0.45593999997E+02  0.45594000000E+02  0.51100000000E-03 0. -1.
    9900012    2    1    2    0    0  0.13785278528E+02 -0.57803982378E+01  0.11279729480E+02  0.72461569346E+02  0.69999998765E+02 0.  0.
         12    1    1    2    0    0 -0.13785278528E+02  0.57803982378E+01 -0.11279729480E+02  0.18726430654E+02  0.00000000000E+00 0. -1.
         11    1    3    3    0    0 -0.79177510181E+01 -0.14272401558E+02  0.76241972438E+01  0.18014455620E+02  0.51100000000E-03 0. -1.
        -11    1    3    3    0    0  0.27430857431E+02 -0.13540930743E+02  0.71492837564E+01  0.31415298873E+02  0.51100000000E-03 0.  1.
         12    1    3    3    0    0 -0.57278278851E+01  0.22032934063E+02 -0.34937515203E+01  0.23031814853E+02  0.00000000000E+00 0. -1.
</event>
<event>
 7    1  0.1692604E-013  0.7246157E+02  0.7816164E-02  0.1226708E+00
        -11   -1    0    0    0    0  0.00000000000E+00  0.00000000000E+00  0.45593999997E+02  0.45594000000E+02  0.51100000000E-03 0.  1.
         11   -1    0    0    0    0 -0.00000000000E+00 -0.00000000000E+00 -0.45593999997E+02  0.45594000000E+02  0.51100000000E-03 0. -1.
    9900012    2    1    2    0    0 -0.15922207363E+02  0.83805156076E+01  0.51893494308E+01  0.72461572774E+02  0.70000003230E+02 0.  0.
         12    1    1    2    0    0  0.15922207363E+02 -0.83805156076E+01 -0.51893494308E+01  0.18726427226E+02  0.00000000000E+00 0. -1.
         11    1    3    3    0    0 -0.11072999475E+02 -0.10778885126E+02 -0.37442700844E+01  0.15900164800E+02  0.51100000000E-03 0. -1.
        -11    1    3    3    0    0 -0.23203641415E+02 -0.15129635311E+01  0.15754775885E+02  0.28087559470E+02  0.51100000000E-03 0.  1.
         12    1    3    3    0    0  0.18354433527E+02  0.20672364265E+02 -0.68211563702E+01  0.28473848504E+02  0.00000000000E+00 0. -1.
</event>
<event>
 7    1  0.1692604E-013  0.7246167E+02  0.7816164E-02  0.1226708E+00
        -11   -1    0    0    0    0  0.00000000000E+00  0.00000000000E+00  0.45593999997E+02  0.45594000000E+02  0.51100000000E-03 0. -1.
         11   -1    0    0    0    0 -0.00000000000E+00 -0.00000000000E+00 -0.45593999997E+02  0.45594000000E+02  0.51100000000E-03 0.  1.
    9900012    2    1    2    0    0 -0.14089161444E+02  0.10818659805E+02 -0.59268359043E+01  0.72461674840E+02  0.70000136190E+02 0.  0.
         12    1    1    2    0    0  0.14089161444E+02 -0.10818659805E+02  0.59268359043E+01  0.18726325160E+02  0.00000000000E+00 0. -1.
         11    1    3    3    0    0  0.55894069387E+01  0.15207274683E+02 -0.14350449594E+02  0.21643430344E+02  0.51100000000E-03 0. -1.
        -11    1    3    3    0    0  0.36585694292E+01 -0.20354687045E+02 -0.17802851754E+01  0.20757356058E+02  0.51100000000E-03 0.  1.
         12    1    3    3    0    0 -0.23337137812E+02  0.15966072166E+02  0.10203898865E+02  0.30060888438E+02  0.00000000000E+00 0. -1.
</event>
<event>
 7    1  0.1692604E-013  0.7246161E+02  0.7816164E-02  0.1226708E+00
        -11   -1    0    0    0    0  0.00000000000E+00  0.00000000000E+00  0.45593999997E+02  0.45594000000E+02  0.51100000000E-03 0. -1.
         11   -1    0    0    0    0 -0.00000000000E+00 -0.00000000000E+00 -0.45593999997E+02  0.45594000000E+02  0.51100000000E-03 0.  1.
    9900012    2    1    2    0    0  0.17935646729E+02  0.53652870092E+01  0.45174168721E+00  0.72461606892E+02  0.70000047675E+02 0.  0.
         12    1    1    2    0    0 -0.17935646729E+02 -0.53652870092E+01 -0.45174168721E+00  0.18726393108E+02  0.00000000000E+00 0. -1.
         11    1    3    3    0    0  0.43679744370E+01  0.58036868027E+01  0.98906758672E+01  0.12271407847E+02  0.51100000000E-03 0. -1.
        -11    1    3    3    0    0  0.13285795578E+02 -0.24710091351E+02  0.92660799041E+01  0.29545917075E+02  0.51100000000E-03 0.  1.
        -12    1    3    3    0    0  0.28187671409E+00  0.24271691558E+02 -0.18705014084E+02  0.30644281970E+02  0.00000000000E+00 0.  1.
</event>
<event>
 7    1  0.1692604E-013  0.7246160E+02  0.7816164E-02  0.1226708E+00
        -11   -1    0    0    0    0  0.00000000000E+00  0.00000000000E+00  0.45593999997E+02  0.45594000000E+02  0.51100000000E-03 0.  1.
         11   -1    0    0    0    0 -0.00000000000E+00 -0.00000000000E+00 -0.45593999997E+02  0.45594000000E+02  0.51100000000E-03 0. -1.
    9900012    2    1    2    0    0 -0.68431950741E+01  0.14571089170E+02  0.95672486503E+01  0.72461596043E+02  0.70000033542E+02 0.  0.
         12    1    1    2    0    0  0.68431950741E+01 -0.14571089170E+02 -0.95672486503E+01  0.18726403957E+02  0.00000000000E+00 0. -1.
         11    1    3    3    0    0 -0.11747782353E+00  0.22587986194E+01  0.60968231445E+01  0.65028628279E+01  0.51100000000E-03 0. -1.
        -11    1    3    3    0    0 -0.11736264434E+02 -0.29332626834E+01  0.31454045151E+02  0.33700161564E+02  0.51100000000E-03 0.  1.
         12    1    3    3    0    0  0.50105471834E+01  0.15245553234E+02 -0.27983619645E+02  0.32258571651E+02  0.00000000000E+00 0. -1.
</event>
<event>
 7    1  0.1692604E-013  0.7246157E+02  0.7816164E-02  0.1226708E+00
        -11   -1    0    0    0    0  0.00000000000E+00  0.00000000000E+00  0.45593999997E+02  0.45594000000E+02  0.51100000000E-03 0.  1.
         11   -1    0    0    0    0 -0.00000000000E+00 -0.00000000000E+00 -0.45593999997E+02  0.45594000000E+02  0.51100000000E-03 0. -1.
    9900012    2    1    2    0    0  0.96011512409E+01 -0.58750103580E+01  0.14966010137E+02  0.72461566509E+02  0.69999995069E+02 0.  0.
         12    1    1    2    0    0 -0.96011512409E+01  0.58750103580E+01 -0.14966010137E+02  0.18726433491E+02  0.00000000000E+00 0. -1.
         11    1    3    3    0    0 -0.45526878637E+01 -0.69452468012E+01  0.23551627888E+02  0.24972837170E+02  0.51100000000E-03 0. -1.
        -11    1    3    3    0    0  0.19811150715E+02 -0.10495886513E+02  0.10267069102E+02  0.24658832790E+02  0.51100000000E-03 0.  1.
        -12    1    3    3    0    0 -0.56573116102E+01  0.11566122956E+02 -0.18852686852E+02  0.22829896549E+02  0.00000000000E+00 0.  1.
</event>
<event>
 7    1  0.1692604E-013  0.7246162E+02  0.7816164E-02  0.1226708E+00
        -11   -1    0    0    0    0  0.00000000000E+00  0.00000000000E+00  0.45593999997E+02  0.45594000000E+02  0.51100000000E-03 0.  1.
         11   -1    0    0    0    0 -0.00000000000E+00 -0.00000000000E+00 -0.45593999997E+02  0.45594000000E+02  0.51100000000E-03 0. -1.
    9900012    2    1    2    0    0  0.40427399208E+01 -0.11962446453E+02  0.13828711539E+02  0.72461624642E+02  0.70000070798E+02 0.  0.
         12    1    1    2    0    0 -0.40427399208E+01  0.11962446453E+02 -0.13828711539E+02  0.18726375358E+02  0.00000000000E+00 0. -1.
         11    1    3    3    0    0  0.50812377043E+01  0.59896722597E+01 -0.37143309465E+01  0.86885789994E+01  0.51100000000E-03 0. -1.
        -11    1    3    3    0    0 -0.19283006002E+02  0.58822434486E+01 -0.10469365327E+02  0.22716573665E+02  0.51100000000E-03 0.  1.
         12    1    3    3    0    0  0.18244508218E+02 -0.23834362162E+02  0.28012407813E+02  0.41056471978E+02  0.00000000000E+00 0. -1.
</event>
<event>
 7    1  0.1692604E-013  0.7246154E+02  0.7816164E-02  0.1226708E+00
        -11   -1    0    0    0    0  0.00000000000E+00  0.00000000000E+00  0.45593999997E+02  0.45594000000E+02  0.51100000000E-03 0.  1.
         11   -1    0    0    0    0 -0.00000000000E+00 -0.00000000000E+00 -0.45593999997E+02  0.45594000000E+02  0.51100000000E-03 0. -1.
    9900012    2    1    2    0    0  0.96537656705E+01 -0.15026401160E+02  0.56296093416E+01  0.72461536779E+02  0.69999956339E+02 0.  0.
         12    1    1    2    0    0 -0.96537656705E+01  0.15026401160E+02 -0.56296093416E+01  0.18726463221E+02  0.00000000000E+00 0. -1.
         11    1    3    3    0    0  0.17801940018E+02 -0.19700339846E+02 -0.12551527165E+01  0.26581720544E+02  0.51100000000E-03 0. -1.
        -11    1    3    3    0    0  0.45433193352E+01 -0.10665413195E+02 -0.13221688565E+02  0.17584249714E+02  0.51100000000E-03 0.  1.
        -12    1    3    3    0    0 -0.12691493683E+02  0.15339351882E+02  0.20106450623E+02  0.28295566521E+02  0.00000000000E+00 0.  1.
</event>
<event>
 7    1  0.1692604E-013  0.7246176E+02  0.7816164E-02  0.1226708E+00
        -11   -1    0    0    0    0  0.00000000000E+00  0.00000000000E+00  0.45593999997E+02  0.45594000000E+02  0.51100000000E-03 0. -1.
         11   -1    0    0    0    0 -0.00000000000E+00 -0.00000000000E+00 -0.45593999997E+02  0.45594000000E+02  0.51100000000E-03 0.  1.
    9900012    2    1    2    0    0  0.15135554705E+02  0.61701243420E+01 -0.91387486583E+01  0.72461756980E+02  0.70000243192E+02 0.  0.
         12    1    1    2    0    0 -0.15135554705E+02 -0.61701243420E+01  0.91387486583E+01  0.18726243020E+02  0.00000000000E+00 0. -1.
         11    1    3    3    0    0  0.34684112015E+02 -0.67191089175E+01 -0.11891886862E+02  0.37276682045E+02  0.51100000000E-03 0. -1.
        -11    1    3    3    0    0  0.56726979343E+01 -0.14169687305E+01  0.19983748294E+01  0.61790617781E+01  0.51100000000E-03 0.  1.
         12    1    3    3    0    0 -0.25221255244E+02  0.14306201990E+02  0.75476337414E+00  0.29006013157E+02  0.00000000000E+00 0. -1.
</event>
<event>
 7    1  0.1692604E-013  0.7246157E+02  0.7816164E-02  0.1226708E+00
        -11   -1    0    0    0    0  0.00000000000E+00  0.00000000000E+00  0.45593999997E+02  0.45594000000E+02  0.51100000000E-03 0.  1.
         11   -1    0    0    0    0 -0.00000000000E+00 -0.00000000000E+00 -0.45593999997E+02  0.45594000000E+02  0.51100000000E-03 0. -1.
    9900012    2    1    2    0    0  0.85314521434E+01  0.87220032747E+01  0.14206345717E+02  0.72461567466E+02  0.69999996316E+02 0.  0.
         12    1    1    2    0    0 -0.85314521434E+01 -0.87220032747E+01 -0.14206345717E+02  0.18726432534E+02  0.00000000000E+00 0. -1.
         11    1    3    3    0    0  0.37024519015E+01 -0.43577115231E+01 -0.57042397622E+01  0.80768899539E+01  0.51100000000E-03 0. -1.
        -11    1    3    3    0    0  0.78691773748E+01 -0.21726483373E+02 -0.19187349645E+01  0.23187185609E+02  0.51100000000E-03 0.  1.
        -12    1    3    3    0    0 -0.30401771329E+01  0.34806198171E+02  0.21829320444E+02  0.41197491904E+02  0.00000000000E+00 0.  1.
</event>
<event>
 7    1  0.1692604E-013  0.7246158E+02  0.7816164E-02  0.1226708E+00
        -11   -1    0    0    0    0  0.00000000000E+00  0.00000000000E+00  0.45593999997E+02  0.45594000000E+02  0.51100000000E-03 0. -1.
         11   -1    0    0    0    0 -0.00000000000E+00 -0.00000000000E+00 -0.45593999997E+02  0.45594000000E+02  0.51100000000E-03 0.  1.
    9900012    2    1    2    0    0 -0.16550671133E+02 -0.13305694782E+01 -0.86593151895E+01  0.72461578301E+02  0.70000010430E+02 0.  0.
         12    1    1    2    0    0  0.16550671133E+02  0.13305694782E+01  0.86593151895E+01  0.18726421699E+02  0.00000000000E+00 0. -1.
         11    1    3    3    0    0 -0.14741734103E+02 -0.18420639899E+02  0.12793515592E+02  0.26838642665E+02  0.51100000000E-03 0. -1.
        -11    1    3    3    0    0  0.69083373868E+01 -0.95050767603E+01 -0.30920908859E+01  0.12150417111E+02  0.51100000000E-03 0.  1.
        -12    1    3    3    0    0 -0.87172744173E+01  0.26595147181E+02 -0.18360739896E+02  0.33472518524E+02  0.00000000000E+00 0.  1.
</event>
<event>
 7    1  0.1692604E-013  0.7246143E+02  0.7816164E-02  0.1226708E+00
        -11   -1    0    0    0    0  0.00000000000E+00  0.00000000000E+00  0.45593999997E+02  0.45594000000E+02  0.51100000000E-03 0.  1.
         11   -1    0    0    0    0 -0.00000000000E+00 -0.00000000000E+00 -0.45593999997E+02  0.45594000000E+02  0.51100000000E-03 0. -1.
    9900012    2    1    2    0    0  0.52394360739E+01  0.15414972568E+01  0.17912464534E+02  0.72461433581E+02  0.69999821905E+02 0.  0.
         12    1    1    2    0    0 -0.52394360739E+01 -0.15414972568E+01 -0.17912464534E+02  0.18726566419E+02  0.00000000000E+00 0. -1.
         11    1    3    3    0    0  0.51558222215E+01 -0.21153119034E+01  0.25625528386E+02  0.26224506717E+02  0.51100000000E-03 0. -1.
        -11    1    3    3    0    0 -0.81514337604E+01  0.66982040623E+01  0.17001763919E+02  0.20009292507E+02  0.51100000000E-03 0.  1.
         12    1    3    3    0    0  0.82350476128E+01 -0.30413949022E+01 -0.24714827771E+02  0.26227634356E+02  0.00000000000E+00 0. -1.
</event>
<event>
 7    1  0.1692604E-013  0.7246167E+02  0.7816164E-02  0.1226708E+00
        -11   -1    0    0    0    0  0.00000000000E+00  0.00000000000E+00  0.45593999997E+02  0.45594000000E+02  0.51100000000E-03 0. -1.
         11   -1    0    0    0    0 -0.00000000000E+00 -0.00000000000E+00 -0.45593999997E+02  0.45594000000E+02  0.51100000000E-03 0.  1.
    9900012    2    1    2    0    0 -0.18580582059E+02 -0.21859433366E+01 -0.81190313859E+00  0.72461666546E+02  0.70000125385E+02 0.  0.
         12    1    1    2    0    0  0.18580582059E+02  0.21859433366E+01  0.81190313859E+00  0.18726333454E+02  0.00000000000E+00 0. -1.
         11    1    3    3    0    0 -0.60330371316E+01 -0.15228533238E+02  0.18788048191E+02  0.24925820281E+02  0.51100000000E-03 0. -1.
        -11    1    3    3    0    0 -0.20915270946E+02 -0.10849865849E+00  0.18757971504E+01  0.20999498706E+02  0.51100000000E-03 0.  1.
         12    1    3    3    0    0  0.83677260179E+01  0.13151088560E+02 -0.21475748480E+02  0.26536347559E+02  0.00000000000E+00 0. -1.
</event>
<event>
 7    1  0.1692604E-013  0.7246182E+02  0.7816164E-02  0.1226707E+00
        -11   -1    0    0    0    0  0.00000000000E+00  0.00000000000E+00  0.45593999997E+02  0.45594000000E+02  0.51100000000E-03 0.  1.
         11   -1    0    0    0    0 -0.00000000000E+00 -0.00000000000E+00 -0.45593999997E+02  0.45594000000E+02  0.51100000000E-03 0. -1.
    9900012    2    1    2    0    0 -0.77703362403E+01  0.11711902332E+02  0.12374283896E+02  0.72461823576E+02  0.70000329946E+02 0.  0.
         12    1    1    2    0    0  0.77703362403E+01 -0.11711902332E+02 -0.12374283896E+02  0.18726176424E+02  0.00000000000E+00 0. -1.
         11    1    3    3    0    0 -0.22111247852E+02 -0.45179855201E+01 -0.88601074026E+01  0.24245019658E+02  0.51100000000E-03 0. -1.
        -11    1    3    3    0    0 -0.13367141258E+01  0.14449637796E+02 -0.68166767364E+01  0.16032651655E+02  0.51100000000E-03 0.  1.
        -12    1    3    3    0    0  0.15677625738E+02  0.17802500561E+01  0.28051068035E+02  0.32184152264E+02  0.00000000000E+00 0.  1.
</event>
<event>
 7    1  0.1692604E-013  0.7246158E+02  0.7816164E-02  0.1226708E+00
        -11   -1    0    0    0    0  0.00000000000E+00  0.00000000000E+00  0.45593999997E+02  0.45594000000E+02  0.51100000000E-03 0. -1.
         11   -1    0    0    0    0 -0.00000000000E+00 -0.00000000000E+00 -0.45593999997E+02  0.45594000000E+02  0.51100000000E-03 0.  1.
    9900012    2    1    2    0    0  0.57026617895E+01 -0.13319399787E+02 -0.11863903158E+02  0.72461575880E+02  0.70000007277E+02 0.  0.
         12    1    1    2    0    0 -0.57026617895E+01  0.13319399787E+02  0.11863903158E+02  0.18726424120E+02  0.00000000000E+00 0. -1.
         11    1    3    3    0    0 -0.97526241236E+00 -0.11261820672E+01 -0.25561521590E+01  0.29586038840E+01  0.51100000000E-03 0. -1.
        -11    1    3    3    0    0  0.21562849321E+01 -0.39891205038E+02 -0.10848016287E+02  0.41396102012E+02  0.51100000000E-03 0.  1.
         12    1    3    3    0    0  0.45216392697E+01  0.27697987318E+02  0.15402652889E+01  0.28106869985E+02  0.00000000000E+00 0. -1.
</event>
<event>
 7    1  0.1692604E-013  0.7246155E+02  0.7816164E-02  0.1226708E+00
        -11   -1    0    0    0    0  0.00000000000E+00  0.00000000000E+00  0.45593999997E+02  0.45594000000E+02  0.51100000000E-03 0. -1.
         11   -1    0    0    0    0 -0.00000000000E+00 -0.00000000000E+00 -0.45593999997E+02  0.45594000000E+02  0.51100000000E-03 0.  1.
    9900012    2    1    2    0    0  0.10784119298E+02  0.51116055129E+01  0.14431013816E+02  0.72461550798E+02  0.69999974602E+02 0.  0.
         12    1    1    2    0    0 -0.10784119298E+02 -0.51116055129E+01 -0.14431013816E+02  0.18726449202E+02  0.00000000000E+00 0. -1.
         11    1    3    3    0    0  0.48937730172E+01  0.14896943323E+02  0.97063969714E+01  0.18441314409E+02  0.51100000000E-03 0. -1.
        -11    1    3    3    0    0 -0.27037871133E+01  0.12908478911E+02 -0.16954588963E+02  0.21480162470E+02  0.51100000000E-03 0.  1.
         12    1    3    3    0    0  0.85941333940E+01 -0.22693816721E+02  0.21679205808E+02  0.32540073919E+02  0.00000000000E+00 0. -1.
</event>
<event>
 7    1  0.1692604E-013  0.7246153E+02  0.7816164E-02  0.1226708E+00
        -11   -1    0    0    0    0  0.00000000000E+00  0.00000000000E+00  0.45593999997E+02  0.45594000000E+02  0.51100000000E-03 0. -1.
         11   -1    0    0    0    0 -0.00000000000E+00 -0.00000000000E+00 -0.45593999997E+02  0.45594000000E+02  0.51100000000E-03 0.  1.
    9900012    2    1    2    0    0  0.50519429628E+01  0.99365628744E+01  0.15047372022E+02  0.72461526381E+02  0.69999942794E+02 0.  0.
         12    1    1    2    0    0 -0.50519429628E+01 -0.99365628744E+01 -0.15047372022E+02  0.18726473619E+02  0.00000000000E+00 0. -1.
         11    1    3    3    0    0 -0.66514158059E+01 -0.82924117177E+01  0.20819698871E+02  0.23376596965E+02  0.51100000000E-03 0. -1.
        -11    1    3    3    0    0 -0.13002299073E+02  0.11112368491E+02  0.91092514581E+01  0.19378415235E+02  0.51100000000E-03 0.  1.
        -12    1    3    3    0    0  0.24705657842E+02  0.71166061016E+01 -0.14881578308E+02  0.29706514180E+02  0.00000000000E+00 0.  1.
</event>
<event>
 7    1  0.1692604E-013  0.7246156E+02  0.7816164E-02  0.1226708E+00
        -11   -1    0    0    0    0  0.00000000000E+00  0.00000000000E+00  0.45593999997E+02  0.45594000000E+02  0.51100000000E-03 0. -1.
         11   -1    0    0    0    0 -0.00000000000E+00 -0.00000000000E+00 -0.45593999997E+02  0.45594000000E+02  0.51100000000E-03 0.  1.
    9900012    2    1    2    0    0 -0.16548050700E+02  0.74517415945E+01 -0.46165977776E+01  0.72461563879E+02  0.69999991642E+02 0.  0.
         12    1    1    2    0    0  0.16548050700E+02 -0.74517415945E+01  0.46165977776E+01  0.18726436121E+02  0.00000000000E+00 0. -1.
         11    1    3    3    0    0 -0.51823096340E+01  0.83202283521E+01 -0.18118889194E+02  0.20600404822E+02  0.51100000000E-03 0. -1.
        -11    1    3    3    0    0 -0.11700770668E+02  0.43578895170E+01 -0.16899425526E+02  0.21011659112E+02  0.51100000000E-03 0.  1.
         12    1    3    3    0    0  0.33502960176E+00 -0.52263762746E+01  0.30401716942E+02  0.30849499944E+02  0.00000000000E+00 0. -1.
</event>
<event>
 7    1  0.1692604E-013  0.7246160E+02  0.7816164E-02  0.1226708E+00
        -11   -1    0    0    0    0  0.00000000000E+00  0.00000000000E+00  0.45593999997E+02  0.45594000000E+02  0.51100000000E-03 0. -1.
         11   -1    0    0    0    0 -0.00000000000E+00 -0.00000000000E+00 -0.45593999997E+02  0.45594000000E+02  0.51100000000E-03 0.  1.
    9900012    2    1    2    0    0  0.15803946278E+02  0.42097648264E+01 -0.91209280618E+01  0.72461597074E+02  0.70000034885E+02 0.  0.
         12    1    1    2    0    0 -0.15803946278E+02 -0.42097648264E+01  0.91209280618E+01  0.18726402926E+02  0.00000000000E+00 0. -1.
         11    1    3    3    0    0 -0.18315351176E+02 -0.16432469015E+02  0.63034541021E+01  0.25401016919E+02  0.51100000000E-03 0. -1.
        -11    1    3    3    0    0  0.12318054735E+02  0.18472336200E+01  0.30932657895E+01  0.12834135655E+02  0.51100000000E-03 0.  1.
        -12    1    3    3    0    0  0.21801242718E+02  0.18795000222E+02 -0.18517647953E+02  0.34226444500E+02  0.00000000000E+00 0.  1.
</event>
<event>
 7    1  0.1692604E-013  0.7246152E+02  0.7816164E-02  0.1226708E+00
        -11   -1    0    0    0    0  0.00000000000E+00  0.00000000000E+00  0.45593999997E+02  0.45594000000E+02  0.51100000000E-03 0. -1.
         11   -1    0    0    0    0 -0.00000000000E+00 -0.00000000000E+00 -0.45593999997E+02  0.45594000000E+02  0.51100000000E-03 0.  1.
    9900012    2    1    2    0    0  0.16122769940E+02  0.76406521959E+01 -0.56883890251E+01  0.72461520186E+02  0.69999934725E+02 0.  0.
         12    1    1    2    0    0 -0.16122769940E+02 -0.76406521959E+01  0.56883890251E+01  0.18726479814E+02  0.00000000000E+00 0. -1.
         11    1    3    3    0    0  0.42800744587E+01 -0.23111460379E+01  0.16395473557E+02  0.17101812384E+02  0.51100000000E-03 0. -1.
        -11    1    3    3    0    0  0.52595294936E-01  0.18514670907E+01  0.15258903834E+02  0.15370908988E+02  0.51100000000E-03 0.  1.
        -12    1    3    3    0    0  0.11790100186E+02  0.81003311431E+01 -0.37342766416E+02  0.39988798815E+02  0.00000000000E+00 0.  1.
</event>
<event>
 7    1  0.1692604E-013  0.7246159E+02  0.7816164E-02  0.1226708E+00
        -11   -1    0    0    0    0  0.00000000000E+00  0.00000000000E+00  0.45593999997E+02  0.45594000000E+02  0.51100000000E-03 0.  1.
         11   -1    0    0    0    0 -0.00000000000E+00 -0.00000000000E+00 -0.45593999997E+02  0.45594000000E+02  0.51100000000E-03 0. -1.
    9900012    2    1    2    0    0 -0.44282472022E+01  0.13262126883E+02  0.12457325331E+02  0.72461592519E+02  0.70000028951E+02 0.  0.
         12    1    1    2    0    0  0.44282472022E+01 -0.13262126883E+02 -0.12457325331E+02  0.18726407481E+02  0.00000000000E+00 0. -1.
         11    1    3    3    0    0 -0.96972620157E+01  0.10586194411E+01 -0.18108900161E+01  0.99215366065E+01  0.51100000000E-03 0. -1.
        -11    1    3    3    0    0  0.12014643002E+01  0.26992151797E+02 -0.13961379560E+02  0.30412824508E+02  0.51100000000E-03 0.  1.
         12    1    3    3    0    0  0.40675505134E+01 -0.14788644355E+02  0.28229594908E+02  0.32127231404E+02  0.00000000000E+00 0. -1.
</event>
<event>
 7    1  0.1692604E-013  0.7246165E+02  0.7816164E-02  0.1226708E+00
        -11   -1    0    0    0    0  0.00000000000E+00  0.00000000000E+00  0.45593999997E+02  0.45594000000E+02  0.51100000000E-03 0. -1.
         11   -1    0    0    0    0 -0.00000000000E+00 -0.00000000000E+00 -0.45593999997E+02  0.45594000000E+02  0.51100000000E-03 0.  1.
    9900012    2    1    2    0    0  0.55106087751E+00  0.10954874162E+02 -0.15177727127E+02  0.72461645930E+02  0.70000098530E+02 0.  0.
         12    1    1    2    0    0 -0.55106087751E+00 -0.10954874162E+02  0.15177727127E+02  0.18726354070E+02  0.00000000000E+00 0. -1.
         11    1    3    3    0    0  0.25029126049E+02  0.23287870910E+02  0.42923124074E+01  0.34455856227E+02  0.51100000000E-03 0. -1.
        -11    1    3    3    0    0 -0.14808600159E+01 -0.83337741291E+01 -0.16136897423E+01  0.86167704198E+01  0.51100000000E-03 0.  1.
        -12    1    3    3    0    0 -0.22997205155E+02 -0.39992226190E+01 -0.17856349793E+02  0.29389019283E+02  0.00000000000E+00 0.  1.
</event>
<event>
 7    1  0.1692604E-013  0.7246157E+02  0.7816164E-02  0.1226708E+00
        -11   -1    0    0    0    0  0.00000000000E+00  0.00000000000E+00  0.45593999997E+02  0.45594000000E+02  0.51100000000E-03 0.  1.
         11   -1    0    0    0    0 -0.00000000000E+00 -0.00000000000E+00 -0.45593999997E+02  0.45594000000E+02  0.51100000000E-03 0. -1.
    9900012    2    1    2    0    0  0.52489869296E+01  0.17042444628E+02  0.57168516917E+01  0.72461570122E+02  0.69999999776E+02 0.  0.
         12    1    1    2    0    0 -0.52489869296E+01 -0.17042444628E+02 -0.57168516917E+01  0.18726429878E+02  0.00000000000E+00 0. -1.
         11    1    3    3    0    0  0.22557058912E+02  0.10801828365E+02 -0.19781161981E+02  0.31887219578E+02  0.51100000000E-03 0. -1.
        -11    1    3    3    0    0  0.46223704567E+01  0.38290963527E+00 -0.18847256314E+01  0.50065077044E+01  0.51100000000E-03 0.  1.
        -12    1    3    3    0    0 -0.21930442439E+02  0.58577066278E+01  0.27382739304E+02  0.35567842840E+02  0.00000000000E+00 0.  1.
</event>
<event>
 7    1  0.1692604E-013  0.7246160E+02  0.7816164E-02  0.1226708E+00
        -11   -1    0    0    0    0  0.00000000000E+00  0.00000000000E+00  0.45593999997E+02  0.45594000000E+02  0.51100000000E-03 0. -1.
         11   -1    0    0    0    0 -0.00000000000E+00 -0.00000000000E+00 -0.45593999997E+02  0.45594000000E+02  0.51100000000E-03 0.  1.
    9900012    2    1    2    0    0 -0.37050328344E+01  0.17147431196E+02 -0.65510651440E+01  0.72461598331E+02  0.70000036523E+02 0.  0.
         12    1    1    2    0    0  0.37050328344E+01 -0.17147431196E+02  0.65510651440E+01  0.18726401669E+02  0.00000000000E+00 0. -1.
         11    1    3    3    0    0  0.13867802608E+02 -0.99801352680E+01  0.60230211030E+01  0.18116175993E+02  0.51100000000E-03 0. -1.
        -11    1    3    3    0    0  0.49364639091E+01 -0.74532858019E+00 -0.17484764895E+02  0.18183541853E+02  0.51100000000E-03 0.  1.
         12    1    3    3    0    0 -0.22509299352E+02  0.27872895044E+02  0.49106786479E+01  0.36161880485E+02  0.00000000000E+00 0. -1.
</event>
<event>
 7    1  0.1692604E-013  0.7246156E+02  0.7816164E-02  0.1226708E+00
        -11   -1    0    0    0    0  0.00000000000E+00  0.00000000000E+00  0.45593999997E+02  0.45594000000E+02  0.51100000000E-03 0.  1.
         11   -1    0    0    0    0 -0.00000000000E+00 -0.00000000000E+00 -0.45593999997E+02  0.45594000000E+02  0.51100000000E-03 0. -1.
    9900012    2    1    2    0    0  0.13082003781E+02  0.12038754857E+02  0.58829649571E+01  0.72461555647E+02  0.69999980919E+02 0.  0.
         12    1    1    2    0    0 -0.13082003781E+02 -0.12038754857E+02 -0.58829649571E+01  0.18726444353E+02  0.00000000000E+00 0. -1.
         11    1    3    3    0    0 -0.45334991934E+01  0.16173889817E+02 -0.51234322683E+01  0.17561232451E+02  0.51100000000E-03 0. -1.
        -11    1    3    3    0    0  0.14482016957E+02  0.61709899452E+01  0.29534841876E+02  0.33468146303E+02  0.51100000000E-03 0.  1.
        -12    1    3    3    0    0  0.31334860180E+01 -0.10306124905E+02 -0.18528444651E+02  0.21432176893E+02  0.00000000000E+00 0.  1.
</event>
<event>
 7    1  0.1692604E-013  0.7246161E+02  0.7816164E-02  0.1226708E+00
        -11   -1    0    0    0    0  0.00000000000E+00  0.00000000000E+00  0.45593999997E+02  0.45594000000E+02  0.51100000000E-03 0. -1.
         11   -1    0    0    0    0 -0.00000000000E+00 -0.00000000000E+00 -0.45593999997E+02  0.45594000000E+02  0.51100000000E-03 0.  1.
    9900012    2    1    2    0    0 -0.16609078542E+02  0.10155963647E+00  0.86490412637E+01  0.72461609019E+02  0.70000050446E+02 0.  0.
         12    1    1    2    0    0  0.16609078542E+02 -0.10155963647E+00 -0.86490412637E+01  0.18726390981E+02  0.00000000000E+00 0. -1.
         11    1    3    3    0    0 -0.62008448405E+01 -0.17992338530E+02  0.26858029204E+02  0.32916993416E+02  0.51100000000E-03 0. -1.
        -11    1    3    3    0    0 -0.13908668702E+02  0.86260068880E+01  0.24525230013E+01  0.16549136812E+02  0.51100000000E-03 0.  1.
         12    1    3    3    0    0  0.35004350001E+01  0.94678912786E+01 -0.20661510942E+02  0.22995478792E+02  0.00000000000E+00 0. -1.
</event>
<event>
 7    1  0.1692604E-013  0.7246162E+02  0.7816164E-02  0.1226708E+00
        -11   -1    0    0    0    0  0.00000000000E+00  0.00000000000E+00  0.45593999997E+02  0.45594000000E+02  0.51100000000E-03 0. -1.
         11   -1    0    0    0    0 -0.00000000000E+00 -0.00000000000E+00 -0.45593999997E+02  0.45594000000E+02  0.51100000000E-03 0.  1.
    9900012    2    1    2    0    0 -0.12529078672E+02  0.10433551908E+02 -0.92108807162E+01  0.72461624447E+02  0.70000070544E+02 0.  0.
         12    1    1    2    0    0  0.12529078672E+02 -0.10433551908E+02  0.92108807162E+01  0.18726375553E+02  0.00000000000E+00 0. -1.
         11    1    3    3    0    0 -0.18016128471E+02 -0.26935964510E+01 -0.42260858779E+01  0.18700164412E+02  0.51100000000E-03 0. -1.
        -11    1    3    3    0    0 -0.20600579108E+02 -0.56731222721E+01 -0.23944425420E+01  0.21501198368E+02  0.51100000000E-03 0.  1.
         12    1    3    3    0    0  0.26087628907E+02  0.18800270631E+02 -0.25903522963E+01  0.32260261667E+02  0.00000000000E+00 0. -1.
</event>
<event>
 7    1  0.1692604E-013  0.7246154E+02  0.7816164E-02  0.1226708E+00
        -11   -1    0    0    0    0  0.00000000000E+00  0.00000000000E+00  0.45593999997E+02  0.45594000000E+02  0.51100000000E-03 0.  1.
         11   -1    0    0    0    0 -0.00000000000E+00 -0.00000000000E+00 -0.45593999997E+02  0.45594000000E+02  0.51100000000E-03 0. -1.
    9900012    2    1    2    0    0 -0.10214951874E+02 -0.71401846000E+01  0.13976863221E+02  0.72461543223E+02  0.69999964734E+02 0.  0.
         12    1    1    2    0    0  0.10214951874E+02  0.71401846000E+01 -0.13976863221E+02  0.18726456777E+02  0.00000000000E+00 0. -1.
         11    1    3    3    0    0  0.22852552167E+02  0.10467910666E+01 -0.13719745181E+02  0.26675200471E+02  0.51100000000E-03 0. -1.
        -11    1    3    3    0    0  0.31204679531E+00  0.47947866825E+00 -0.84546311409E+00  0.10208237528E+01  0.51100000000E-03 0.  1.
        -12    1    3    3    0    0 -0.33379550837E+02 -0.86664543349E+01  0.28542071516E+02  0.44765518999E+02  0.00000000000E+00 0.  1.
</event>
<event>
 7    1  0.1692604E-013  0.7246157E+02  0.7816164E-02  0.1226708E+00
        -11   -1    0    0    0    0  0.00000000000E+00  0.00000000000E+00  0.45593999997E+02  0.45594000000E+02  0.51100000000E-03 0. -1.
         11   -1    0    0    0    0 -0.00000000000E+00 -0.00000000000E+00 -0.45593999997E+02  0.45594000000E+02  0.51100000000E-03 0.  1.
    9900012    2    1    2    0    0 -0.58270167080E+01  0.57695035456E+01 -0.16835611076E+02  0.72461572279E+02  0.70000002585E+02 0.  0.
         12    1    1    2    0    0  0.58270167080E+01 -0.57695035456E+01  0.16835611076E+02  0.18726427721E+02  0.00000000000E+00 0. -1.
         11    1    3    3    0    0  0.65192730644E+01 -0.66588174986E+01  0.94561641850E+01  0.13276287626E+02  0.51100000000E-03 0.  1.
        -11    1    3    3    0    0  0.12042274823E+02  0.14952115946E+02  0.46038429605E+01  0.19742784110E+02  0.51100000000E-03 0. -1.
        -12    1    3    3    0    0 -0.24388564595E+02 -0.25237949014E+01 -0.30895618222E+02  0.39442500543E+02  0.00000000000E+00 0.  1.
</event>
<event>
 7    1  0.1692604E-013  0.7246159E+02  0.7816164E-02  0.1226708E+00
        -11   -1    0    0    0    0  0.00000000000E+00  0.00000000000E+00  0.45593999997E+02  0.45594000000E+02  0.51100000000E-03 0. -1.
         11   -1    0    0    0    0 -0.00000000000E+00 -0.00000000000E+00 -0.45593999997E+02  0.45594000000E+02  0.51100000000E-03 0.  1.
    9900012    2    1    2    0    0 -0.25730230776E+01  0.15151909165E+02 -0.10699427865E+02  0.72461586682E+02  0.70000021348E+02 0.  0.
         12    1    1    2    0    0  0.25730230776E+01 -0.15151909165E+02  0.10699427865E+02  0.18726413318E+02  0.00000000000E+00 0. -1.
         11    1    3    3    0    0 -0.19168622223E+02 -0.56953601957E+01 -0.63417191959E+01  0.20978336643E+02  0.51100000000E-03 0. -1.
        -11    1    3    3    0    0 -0.11467266779E+02  0.50211961220E+01  0.10182093678E+02  0.16136469558E+02  0.51100000000E-03 0.  1.
        -12    1    3    3    0    0  0.28062865925E+02  0.15826073239E+02 -0.14539802347E+02  0.35346780481E+02  0.00000000000E+00 0.  1.
</event>
<event>
 7    1  0.1692604E-013  0.7246155E+02  0.7816164E-02  0.1226708E+00
        -11   -1    0    0    0    0  0.00000000000E+00  0.00000000000E+00  0.45593999997E+02  0.45594000000E+02  0.51100000000E-03 0. -1.
         11   -1    0    0    0    0 -0.00000000000E+00 -0.00000000000E+00 -0.45593999997E+02  0.45594000000E+02  0.51100000000E-03 0.  1.
    9900012    2    1    2    0    0  0.10072848321E+02  0.14531073737E+02 -0.61697142759E+01  0.72461554755E+02  0.69999979757E+02 0.  0.
         12    1    1    2    0    0 -0.10072848321E+02 -0.14531073737E+02  0.61697142759E+01  0.18726445245E+02  0.00000000000E+00 0. -1.
         11    1    3    3    0    0  0.11949493923E+02 -0.40327662830E+01  0.30368397766E+01  0.12972124151E+02  0.51100000000E-03 0. -1.
        -11    1    3    3    0    0 -0.21992313734E+02 -0.91687330406E+01  0.66323256352E+00  0.23836262430E+02  0.51100000000E-03 0.  1.
         12    1    3    3    0    0  0.20115668132E+02  0.27732573061E+02 -0.98697866160E+01  0.35653168174E+02  0.00000000000E+00 0. -1.
</event>
<event>
 7    1  0.1692604E-013  0.7246157E+02  0.7816164E-02  0.1226708E+00
        -11   -1    0    0    0    0  0.00000000000E+00  0.00000000000E+00  0.45593999997E+02  0.45594000000E+02  0.51100000000E-03 0.  1.
         11   -1    0    0    0    0 -0.00000000000E+00 -0.00000000000E+00 -0.45593999997E+02  0.45594000000E+02  0.51100000000E-03 0. -1.
    9900012    2    1    2    0    0 -0.12886553716E+02  0.48154964256E+01  0.12705390826E+02  0.72461568719E+02  0.69999997947E+02 0.  0.
         12    1    1    2    0    0  0.12886553716E+02 -0.48154964256E+01 -0.12705390826E+02  0.18726431281E+02  0.00000000000E+00 0. -1.
         11    1    3    3    0    0 -0.93678579284E+01 -0.18282760872E+02  0.29934783520E+00  0.20545211526E+02  0.51100000000E-03 0. -1.
        -11    1    3    3    0    0 -0.37601682666E+00  0.91303743852E+00  0.25795178310E+02  0.25814070782E+02  0.51100000000E-03 0.  1.
        -12    1    3    3    0    0 -0.31426789605E+01  0.22185219859E+02 -0.13389135319E+02  0.26102286410E+02  0.00000000000E+00 0.  1.
</event>
<event>
 7    1  0.1692604E-013  0.7246158E+02  0.7816164E-02  0.1226708E+00
        -11   -1    0    0    0    0  0.00000000000E+00  0.00000000000E+00  0.45593999997E+02  0.45594000000E+02  0.51100000000E-03 0.  1.
         11   -1    0    0    0    0 -0.00000000000E+00 -0.00000000000E+00 -0.45593999997E+02  0.45594000000E+02  0.51100000000E-03 0. -1.
    9900012    2    1    2    0    0 -0.13056588093E+02 -0.98958243271E+01  0.90706682615E+01  0.72461578707E+02  0.70000010959E+02 0.  0.
         12    1    1    2    0    0  0.13056588093E+02  0.98958243271E+01 -0.90706682615E+01  0.18726421293E+02  0.00000000000E+00 0. -1.
         11    1    3    3    0    0 -0.25375216348E+02 -0.14975565942E+01 -0.87660353592E+01  0.26888429791E+02  0.51100000000E-03 0. -1.
        -11    1    3    3    0    0 -0.11689469479E+02 -0.12860887384E+02  0.56000536592E+01  0.18259428311E+02  0.51100000000E-03 0.  1.
         12    1    3    3    0    0  0.24008097734E+02  0.44626196511E+01  0.12236649962E+02  0.27313720604E+02  0.00000000000E+00 0. -1.
</event>
<event>
 7    1  0.1692604E-013  0.7246153E+02  0.7816164E-02  0.1226708E+00
        -11   -1    0    0    0    0  0.00000000000E+00  0.00000000000E+00  0.45593999997E+02  0.45594000000E+02  0.51100000000E-03 0. -1.
         11   -1    0    0    0    0 -0.00000000000E+00 -0.00000000000E+00 -0.45593999997E+02  0.45594000000E+02  0.51100000000E-03 0.  1.
    9900012    2    1    2    0    0 -0.15209990994E+02 -0.65314920273E+01 -0.87565073976E+01  0.72461531140E+02  0.69999948994E+02 0.  0.
         12    1    1    2    0    0  0.15209990994E+02  0.65314920273E+01  0.87565073976E+01  0.18726468860E+02  0.00000000000E+00 0. -1.
         11    1    3    3    0    0 -0.15009414135E+02 -0.23663489400E+02 -0.10926815843E+02  0.30077209777E+02  0.51100000000E-03 0. -1.
        -11    1    3    3    0    0 -0.13201142499E+02  0.11646223017E+01 -0.11601149350E+02  0.17612869581E+02  0.51100000000E-03 0.  1.
        -12    1    3    3    0    0  0.13000565639E+02  0.15967375071E+02  0.13771457795E+02  0.24771451782E+02  0.00000000000E+00 0.  1.
</event>
<event>
 7    1  0.1692604E-013  0.7246188E+02  0.7816164E-02  0.1226707E+00
        -11   -1    0    0    0    0  0.00000000000E+00  0.00000000000E+00  0.45593999997E+02  0.45594000000E+02  0.51100000000E-03 0.  1.
         11   -1    0    0    0    0 -0.00000000000E+00 -0.00000000000E+00 -0.45593999997E+02  0.45594000000E+02  0.51100000000E-03 0. -1.
    9900012    2    1    2    0    0  0.94384519181E+01 -0.97901970805E+01  0.12873822096E+02  0.72461878436E+02  0.70000401410E+02 0.  0.
         12    1    1    2    0    0 -0.94384519181E+01  0.97901970805E+01 -0.12873822096E+02  0.18726121564E+02  0.00000000000E+00 0. -1.
         11    1    3    3    0    0  0.10312458841E+02  0.12247393496E+02  0.30092788730E+01  0.16291139137E+02  0.51100000000E-03 0. -1.
        -11    1    3    3    0    0 -0.16431458954E+02  0.93757275975E+01  0.93725607356E+01  0.21112603022E+02  0.51100000000E-03 0.  1.
        -12    1    3    3    0    0  0.15557452031E+02 -0.31413318174E+02  0.49198248748E+00  0.35058136276E+02  0.00000000000E+00 0.  1.
</event>
<event>
 7    1  0.1692604E-013  0.7246174E+02  0.7816164E-02  0.1226708E+00
        -11   -1    0    0    0    0  0.00000000000E+00  0.00000000000E+00  0.45593999997E+02  0.45594000000E+02  0.51100000000E-03 0.  1.
         11   -1    0    0    0    0 -0.00000000000E+00 -0.00000000000E+00 -0.45593999997E+02  0.45594000000E+02  0.51100000000E-03 0. -1.
    9900012    2    1    2    0    0 -0.12128776342E+01 -0.56170799217E+01  0.17822746773E+02  0.72461736050E+02  0.70000215927E+02 0.  0.
         12    1    1    2    0    0  0.12128776342E+01  0.56170799217E+01 -0.17822746773E+02  0.18726263950E+02  0.00000000000E+00 0. -1.
         11    1    3    3    0    0 -0.15347447652E+02  0.85032090580E+01  0.41145733251E+01  0.18021610018E+02  0.51100000000E-03 0. -1.
        -11    1    3    3    0    0  0.13640547572E+02  0.16728733122E+02  0.30575172981E+01  0.21800538118E+02  0.51100000000E-03 0.  1.
         12    1    3    3    0    0  0.49402244619E+00 -0.30849022102E+02  0.10650656149E+02  0.32639587915E+02  0.00000000000E+00 0. -1.
</event>
<event>
 7    1  0.1692604E-013  0.7246161E+02  0.7816164E-02  0.1226708E+00
        -11   -1    0    0    0    0  0.00000000000E+00  0.00000000000E+00  0.45593999997E+02  0.45594000000E+02  0.51100000000E-03 0.  1.
         11   -1    0    0    0    0 -0.00000000000E+00 -0.00000000000E+00 -0.45593999997E+02  0.45594000000E+02  0.51100000000E-03 0. -1.
    9900012    2    1    2    0    0 -0.29379954627E+01 -0.14846436295E+02  0.11028567341E+02  0.72461607246E+02  0.70000048136E+02 0.  0.
         12    1    1    2    0    0  0.29379954627E+01  0.14846436295E+02 -0.11028567341E+02  0.18726392754E+02  0.00000000000E+00 0. -1.
         11    1    3    3    0    0 -0.15874870821E+02  0.45710751527E+01  0.43600309533E+00  0.16525627087E+02  0.51100000000E-03 0. -1.
        -11    1    3    3    0    0  0.89650280251E+01  0.99551438938E+01 -0.12530270513E+02  0.18343508302E+02  0.51100000000E-03 0.  1.
        -12    1    3    3    0    0  0.39718473337E+01 -0.29372655342E+02  0.23122834758E+02  0.37592471857E+02  0.00000000000E+00 0.  1.
</event>
<event>
 7    1  0.1692604E-013  0.7246156E+02  0.7816164E-02  0.1226708E+00
        -11   -1    0    0    0    0  0.00000000000E+00  0.00000000000E+00  0.45593999997E+02  0.45594000000E+02  0.51100000000E-03 0. -1.
         11   -1    0    0    0    0 -0.00000000000E+00 -0.00000000000E+00 -0.45593999997E+02  0.45594000000E+02  0.51100000000E-03 0.  1.
    9900012    2    1    2    0    0  0.11826284903E+02 -0.87088732729E+01 -0.11617835562E+02  0.72461559029E+02  0.69999985325E+02 0.  0.
         12    1    1    2    0    0 -0.11826284903E+02  0.87088732729E+01  0.11617835562E+02  0.18726440971E+02  0.00000000000E+00 0. -1.
         11    1    3    3    0    0 -0.32084213574E+01  0.96378260808E+01 -0.11246464428E+02  0.15154689755E+02  0.51100000000E-03 0. -1.
        -11    1    3    3    0    0  0.22263321621E+02 -0.16236818065E+02 -0.21452410364E+02  0.34921278058E+02  0.51100000000E-03 0.  1.
         12    1    3    3    0    0 -0.72286153611E+01 -0.21098812884E+01  0.21081039230E+02  0.22385591217E+02  0.00000000000E+00 0. -1.
</event>
<event>
 7    1  0.2064668E-013  0.7246167E+02  0.7816164E-02  0.1226708E+00
        -11   -1    0    0    0    0  0.00000000000E+00  0.00000000000E+00  0.45593999997E+02  0.45594000000E+02  0.51100000000E-03 0. -1.
         11   -1    0    0    0    0 -0.00000000000E+00 -0.00000000000E+00 -0.45593999997E+02  0.45594000000E+02  0.51100000000E-03 0.  1.
    9900012    2    1    2    0    0  0.89714251020E+00  0.73843842446E+01 -0.17185498654E+02  0.72461672027E+02  0.70000132526E+02 0.  0.
         12    1    1    2    0    0 -0.89714251020E+00 -0.73843842446E+01  0.17185498654E+02  0.18726327973E+02  0.00000000000E+00 0. -1.
         11    1    3    3    0    0 -0.21512616933E+01 -0.20427983183E+02  0.10613235449E+02  0.23120795634E+02  0.51100000000E-03 0. -1.
        -11    1    3    3    0    0  0.69611704874E+01  0.61128888264E+01 -0.25549250085E+02  0.27177002861E+02  0.51100000000E-03 0.  1.
        -12    1    3    3    0    0 -0.39127662840E+01  0.21699478601E+02 -0.22494840188E+01  0.22163873531E+02  0.00000000000E+00 0.  1.
</event>
<event>
 7    1  0.1692604E-013  0.7246150E+02  0.7816164E-02  0.1226708E+00
        -11   -1    0    0    0    0  0.00000000000E+00  0.00000000000E+00  0.45593999997E+02  0.45594000000E+02  0.51100000000E-03 0. -1.
         11   -1    0    0    0    0 -0.00000000000E+00 -0.00000000000E+00 -0.45593999997E+02  0.45594000000E+02  0.51100000000E-03 0.  1.
    9900012    2    1    2    0    0 -0.17628160982E+01  0.14820292126E+02 -0.11310753755E+02  0.72461501934E+02  0.69999910948E+02 0.  0.
         12    1    1    2    0    0  0.17628160982E+01 -0.14820292126E+02  0.11310753755E+02  0.18726498066E+02  0.00000000000E+00 0. -1.
         11    1    3    3    0    0 -0.23745038553E+02  0.66722661413E+01 -0.67467609036E+01  0.25570779697E+02  0.51100000000E-03 0. -1.
        -11    1    3    3    0    0 -0.94659568408E+01  0.20187087270E+01 -0.10527411967E+02  0.14300556871E+02  0.51100000000E-03 0.  1.
         12    1    3    3    0    0  0.31448179296E+02  0.61293172582E+01  0.59634191155E+01  0.32590165366E+02  0.00000000000E+00 0. -1.
</event>
<event>
 7    1  0.1692604E-013  0.7246150E+02  0.7816164E-02  0.1226708E+00
        -11   -1    0    0    0    0  0.00000000000E+00  0.00000000000E+00  0.45593999997E+02  0.45594000000E+02  0.51100000000E-03 0. -1.
         11   -1    0    0    0    0 -0.00000000000E+00 -0.00000000000E+00 -0.45593999997E+02  0.45594000000E+02  0.51100000000E-03 0.  1.
    9900012    2    1    2    0    0  0.80616836555E+01 -0.13699604494E+02  0.99000972957E+01  0.72461499176E+02  0.69999907355E+02 0.  0.
         12    1    1    2    0    0 -0.80616836555E+01  0.13699604494E+02 -0.99000972957E+01  0.18726500824E+02  0.00000000000E+00 0. -1.
         11    1    3    3    0    0  0.96474356132E+01 -0.20239091175E+02 -0.13470882673E+02  0.26156423795E+02  0.51100000000E-03 0. -1.
        -11    1    3    3    0    0 -0.23374562543E+01  0.12000153821E+02 -0.78973720435E+01  0.14554582746E+02  0.51100000000E-03 0.  1.
         12    1    3    3    0    0  0.75170429655E+00 -0.54606671398E+01  0.31268352012E+02  0.31750492634E+02  0.00000000000E+00 0. -1.
</event>
<event>
 7    1  0.1692604E-013  0.7246158E+02  0.7816164E-02  0.1226708E+00
        -11   -1    0    0    0    0  0.00000000000E+00  0.00000000000E+00  0.45593999997E+02  0.45594000000E+02  0.51100000000E-03 0. -1.
         11   -1    0    0    0    0 -0.00000000000E+00 -0.00000000000E+00 -0.45593999997E+02  0.45594000000E+02  0.51100000000E-03 0.  1.
    9900012    2    1    2    0    0  0.12982869878E+02 -0.66490601421E+01 -0.11743678001E+02  0.72461577917E+02  0.70000009930E+02 0.  0.
         12    1    1    2    0    0 -0.12982869878E+02  0.66490601421E+01  0.11743678001E+02  0.18726422083E+02  0.00000000000E+00 0. -1.
         11    1    3    3    0    0  0.73695642264E+00 -0.77811586884E+01 -0.26668632872E+02  0.27790385295E+02  0.51100000000E-03 0. -1.
        -11    1    3    3    0    0  0.57918981764E+01 -0.12068457522E+00 -0.13924799953E+02  0.15081800398E+02  0.51100000000E-03 0.  1.
         12    1    3    3    0    0  0.64540152793E+01  0.12527831216E+01  0.28849754824E+02  0.29589392224E+02  0.00000000000E+00 0. -1.
</event>
<event>
 7    1  0.1692604E-013  0.7246156E+02  0.7816164E-02  0.1226708E+00
        -11   -1    0    0    0    0  0.00000000000E+00  0.00000000000E+00  0.45593999997E+02  0.45594000000E+02  0.51100000000E-03 0. -1.
         11   -1    0    0    0    0 -0.00000000000E+00 -0.00000000000E+00 -0.45593999997E+02  0.45594000000E+02  0.51100000000E-03 0.  1.
    9900012    2    1    2    0    0 -0.14209390027E+02 -0.73302216587E+01 -0.97488831502E+01  0.72461557808E+02  0.69999983734E+02 0.  0.
         12    1    1    2    0    0  0.14209390027E+02  0.73302216587E+01  0.97488831502E+01  0.18726442192E+02  0.00000000000E+00 0. -1.
         11    1    3    3    0    0  0.35814148057E+01 -0.10003323191E+02 -0.66495689755E+00  0.10645899437E+02  0.51100000000E-03 0. -1.
        -11    1    3    3    0    0  0.97685635212E+01 -0.11002776534E+02 -0.23589151816E+02  0.27801690747E+02  0.51100000000E-03 0.  1.
        -12    1    3    3    0    0 -0.27559368354E+02  0.13675878066E+02  0.14505225563E+02  0.34013967625E+02  0.00000000000E+00 0.  1.
</event>
<event>
 7    1  0.1692604E-013  0.7246161E+02  0.7816164E-02  0.1226708E+00
        -11   -1    0    0    0    0  0.00000000000E+00  0.00000000000E+00  0.45593999997E+02  0.45594000000E+02  0.51100000000E-03 0.  1.
         11   -1    0    0    0    0 -0.00000000000E+00 -0.00000000000E+00 -0.45593999997E+02  0.45594000000E+02  0.51100000000E-03 0. -1.
    9900012    2    1    2    0    0  0.15165292694E+02  0.38214073734E+01  0.10299929652E+02  0.72461606657E+02  0.70000047369E+02 0.  0.
         12    1    1    2    0    0 -0.15165292694E+02 -0.38214073734E+01 -0.10299929652E+02  0.18726393343E+02  0.00000000000E+00 0. -1.
         11    1    3    3    0    0  0.89804962533E+01 -0.23097121060E+02  0.17715244401E+01  0.24844810591E+02  0.51100000000E-03 0. -1.
        -11    1    3    3    0    0  0.19465535936E+02  0.92341441946E+01 -0.44138627897E+01  0.21992241661E+02  0.51100000000E-03 0.  1.
        -12    1    3    3    0    0 -0.13280739496E+02  0.17684384238E+02  0.12942268001E+02  0.25624554405E+02  0.00000000000E+00 0.  1.
</event>
<event>
 7    1  0.1692604E-013  0.7246154E+02  0.7816164E-02  0.1226708E+00
        -11   -1    0    0    0    0  0.00000000000E+00  0.00000000000E+00  0.45593999997E+02  0.45594000000E+02  0.51100000000E-03 0.  1.
         11   -1    0    0    0    0 -0.00000000000E+00 -0.00000000000E+00 -0.45593999997E+02  0.45594000000E+02  0.51100000000E-03 0. -1.
    9900012    2    1    2    0    0  0.15205974857E+01  0.15792931100E+02  0.99474363250E+01  0.72461538004E+02  0.69999957935E+02 0.  0.
         12    1    1    2    0    0 -0.15205974857E+01 -0.15792931100E+02 -0.99474363250E+01  0.18726461996E+02  0.00000000000E+00 0. -1.
         11    1    3    3    0    0 -0.39046971915E+01  0.17567441965E+01 -0.78145774634E+01  0.89106919777E+01  0.51100000000E-03 0. -1.
        -11    1    3    3    0    0  0.87430391916E+01 -0.19942007684E+02 -0.52262229639E+01  0.22392807138E+02  0.51100000000E-03 0.  1.
        -12    1    3    3    0    0 -0.33177445144E+01  0.33978194588E+02  0.22988236752E+02  0.41158038888E+02  0.00000000000E+00 0.  1.
</event>
<event>
 7    1  0.1692604E-013  0.7246154E+02  0.7816164E-02  0.1226708E+00
        -11   -1    0    0    0    0  0.00000000000E+00  0.00000000000E+00  0.45593999997E+02  0.45594000000E+02  0.51100000000E-03 0.  1.
         11   -1    0    0    0    0 -0.00000000000E+00 -0.00000000000E+00 -0.45593999997E+02  0.45594000000E+02  0.51100000000E-03 0. -1.
    9900012    2    1    2    0    0 -0.81874748942E+01  0.14553012213E+02  0.84767565920E+01  0.72461539792E+02  0.69999960265E+02 0.  0.
         12    1    1    2    0    0  0.81874748942E+01 -0.14553012213E+02 -0.84767565920E+01  0.18726460208E+02  0.00000000000E+00 0. -1.
         11    1    3    3    0    0 -0.23402327667E+02  0.17304863431E+02  0.16379139766E+02  0.33397656479E+02  0.51100000000E-03 0. -1.
        -11    1    3    3    0    0 -0.76921995142E+00 -0.13649360425E+02  0.63119150458E+01  0.15057789052E+02  0.51100000000E-03 0.  1.
         12    1    3    3    0    0  0.15984072724E+02  0.10897509207E+02 -0.14214298220E+02  0.24006094260E+02  0.00000000000E+00 0. -1.
</event>
<event>
 7    1  0.1692604E-013  0.7246151E+02  0.7816164E-02  0.1226708E+00
        -11   -1    0    0    0    0  0.00000000000E+00  0.00000000000E+00  0.45593999997E+02  0.45594000000E+02  0.51100000000E-03 0. -1.
         11   -1    0    0    0    0 -0.00000000000E+00 -0.00000000000E+00 -0.45593999997E+02  0.45594000000E+02  0.51100000000E-03 0.  1.
    9900012    2    1    2    0    0 -0.94881501075E+01  0.14987885422E+02 -0.60016492599E+01  0.72461508184E+02  0.69999919090E+02 0.  0.
         12    1    1    2    0    0  0.94881501075E+01 -0.14987885422E+02  0.60016492599E+01  0.18726491816E+02  0.00000000000E+00 0. -1.
         11    1    3    3    0    0  0.91344966118E+01 -0.74628797462E+01 -0.14244011011E+02  0.18493930150E+02  0.51100000000E-03 0. -1.
        -11    1    3    3    0    0  0.14315478398E+01 -0.10046956043E+02 -0.75446451261E+01  0.12645644518E+02  0.51100000000E-03 0.  1.
         12    1    3    3    0    0 -0.20054194559E+02  0.32497721211E+02  0.15787006878E+02  0.41321933516E+02  0.00000000000E+00 0. -1.
</event>
<event>
 7    1  0.1692604E-013  0.7246162E+02  0.7816164E-02  0.1226708E+00
        -11   -1    0    0    0    0  0.00000000000E+00  0.00000000000E+00  0.45593999997E+02  0.45594000000E+02  0.51100000000E-03 0. -1.
         11   -1    0    0    0    0 -0.00000000000E+00 -0.00000000000E+00 -0.45593999997E+02  0.45594000000E+02  0.51100000000E-03 0.  1.
    9900012    2    1    2    0    0 -0.81536646064E+01 -0.94778615652E+01 -0.13941486408E+02  0.72461624226E+02  0.70000070256E+02 0.  0.
         12    1    1    2    0    0  0.81536646064E+01  0.94778615652E+01  0.13941486408E+02  0.18726375774E+02  0.00000000000E+00 0. -1.
         11    1    3    3    0    0  0.26844367276E+02 -0.38323668078E+00 -0.28865230769E+01  0.27001832170E+02  0.51100000000E-03 0. -1.
        -11    1    3    3    0    0 -0.34285828022E+01  0.56935977524E+01 -0.80936300590E+01  0.10472778198E+02  0.51100000000E-03 0.  1.
        -12    1    3    3    0    0 -0.31569449080E+02 -0.14788222637E+02 -0.29613332719E+01  0.34987013858E+02  0.00000000000E+00 0.  1.
</event>
<event>
 7    1  0.1692604E-013  0.7246158E+02  0.7816164E-02  0.1226708E+00
        -11   -1    0    0    0    0  0.00000000000E+00  0.00000000000E+00  0.45593999997E+02  0.45594000000E+02  0.51100000000E-03 0.  1.
         11   -1    0    0    0    0 -0.00000000000E+00 -0.00000000000E+00 -0.45593999997E+02  0.45594000000E+02  0.51100000000E-03 0. -1.
    9900012    2    1    2    0    0  0.14399292114E+01 -0.13682646463E+02  0.12703955570E+02  0.72461582897E+02  0.70000016418E+02 0.  0.
         12    1    1    2    0    0 -0.14399292114E+01  0.13682646463E+02 -0.12703955570E+02  0.18726417103E+02  0.00000000000E+00 0. -1.
         11    1    3    3    0    0 -0.58886880206E+01 -0.11588553565E+02  0.62331580886E+01  0.14416084085E+02  0.51100000000E-03 0. -1.
        -11    1    3    3    0    0 -0.14874803705E+02  0.31807305417E+01  0.24584140272E+02  0.28909458404E+02  0.51100000000E-03 0.  1.
         12    1    3    3    0    0  0.22203420937E+02 -0.52748234400E+01 -0.18113342791E+02  0.29136040408E+02  0.00000000000E+00 0. -1.
</event>
<event>
 7    1  0.1692604E-013  0.7246153E+02  0.7816164E-02  0.1226708E+00
        -11   -1    0    0    0    0  0.00000000000E+00  0.00000000000E+00  0.45593999997E+02  0.45594000000E+02  0.51100000000E-03 0. -1.
         11   -1    0    0    0    0 -0.00000000000E+00 -0.00000000000E+00 -0.45593999997E+02  0.45594000000E+02  0.51100000000E-03 0.  1.
    9900012    2    1    2    0    0  0.16289752738E+02  0.91786817614E+01 -0.10375020044E+01  0.72461530670E+02  0.69999948382E+02 0.  0.
         12    1    1    2    0    0 -0.16289752738E+02 -0.91786817614E+01  0.10375020044E+01  0.18726469330E+02  0.00000000000E+00 0. -1.
         11    1    3    3    0    0 -0.40647686550E+01 -0.32134177225E+01  0.48582036332E+01  0.71028543896E+01  0.51100000000E-03 0. -1.
        -11    1    3    3    0    0  0.19999610693E+02 -0.20070078135E+02  0.88767165143E+01  0.29691557059E+02  0.51100000000E-03 0.  1.
         12    1    3    3    0    0  0.35491069996E+00  0.32462177619E+02 -0.14772422152E+02  0.35667119222E+02  0.00000000000E+00 0. -1.
</event>
<event>
 7    1  0.1692604E-013  0.7246157E+02  0.7816164E-02  0.1226708E+00
        -11   -1    0    0    0    0  0.00000000000E+00  0.00000000000E+00  0.45593999997E+02  0.45594000000E+02  0.51100000000E-03 0. -1.
         11   -1    0    0    0    0 -0.00000000000E+00 -0.00000000000E+00 -0.45593999997E+02  0.45594000000E+02  0.51100000000E-03 0.  1.
    9900012    2    1    2    0    0  0.15113403894E+02  0.11052307049E+02  0.33286532691E+00  0.72461567673E+02  0.69999996586E+02 0.  0.
         12    1    1    2    0    0 -0.15113403894E+02 -0.11052307049E+02 -0.33286532691E+00  0.18726432327E+02  0.00000000000E+00 0. -1.
         11    1    3    3    0    0  0.11529099361E+02  0.52051869089E+01  0.21541389700E+02  0.24980904173E+02  0.51100000000E-03 0. -1.
        -11    1    3    3    0    0  0.19544062486E+02  0.69665975910E+01 -0.23465757115E+02  0.31323244048E+02  0.51100000000E-03 0.  1.
        -12    1    3    3    0    0 -0.15959757954E+02 -0.11194774508E+01  0.22572327415E+01  0.16157419452E+02  0.00000000000E+00 0.  1.
</event>
<event>
 7    1  0.1692604E-013  0.7246152E+02  0.7816164E-02  0.1226708E+00
        -11   -1    0    0    0    0  0.00000000000E+00  0.00000000000E+00  0.45593999997E+02  0.45594000000E+02  0.51100000000E-03 0. -1.
         11   -1    0    0    0    0 -0.00000000000E+00 -0.00000000000E+00 -0.45593999997E+02  0.45594000000E+02  0.51100000000E-03 0.  1.
    9900012    2    1    2    0    0  0.84767342943E+01  0.16536124558E+02 -0.23200131078E+01  0.72461524077E+02  0.69999939793E+02 0.  0.
         12    1    1    2    0    0 -0.84767342943E+01 -0.16536124558E+02  0.23200131078E+01  0.18726475923E+02  0.00000000000E+00 0. -1.
         11    1    3    3    0    0 -0.13653177333E+02  0.51109116084E+01  0.25168037169E+02  0.29085404655E+02  0.51100000000E-03 0. -1.
        -11    1    3    3    0    0  0.87690189681E+01  0.80604130105E+01  0.77252093254E+00  0.11935775652E+02  0.51100000000E-03 0.  1.
        -12    1    3    3    0    0  0.13360892659E+02  0.33647999390E+01 -0.28260571209E+02  0.31440343770E+02  0.00000000000E+00 0.  1.
</event>
<event>
 7    1  0.1692604E-013  0.7246163E+02  0.7816164E-02  0.1226708E+00
        -11   -1    0    0    0    0  0.00000000000E+00  0.00000000000E+00  0.45593999997E+02  0.45594000000E+02  0.51100000000E-03 0. -1.
         11   -1    0    0    0    0 -0.00000000000E+00 -0.00000000000E+00 -0.45593999997E+02  0.45594000000E+02  0.51100000000E-03 0.  1.
    9900012    2    1    2    0    0  0.62431944031E+01  0.16792313467E+02  0.54513777223E+01  0.72461633908E+02  0.70000082869E+02 0.  0.
         12    1    1    2    0    0 -0.62431944031E+01 -0.16792313467E+02 -0.54513777223E+01  0.18726366092E+02  0.00000000000E+00 0. -1.
         11    1    3    3    0    0 -0.11781561548E+02  0.24453303965E+02  0.15774610050E+02  0.31394387872E+02  0.51100000000E-03 0. -1.
        -11    1    3    3    0    0 -0.88073902454E+01  0.20335063406E+01  0.30753004735E+01  0.95479183195E+01  0.51100000000E-03 0.  1.
        -12    1    3    3    0    0  0.26832146197E+02 -0.96944968389E+01 -0.13398532802E+02  0.31519327717E+02  0.00000000000E+00 0.  1.
</event>
<event>
 7    1  0.1692604E-013  0.7246161E+02  0.7816164E-02  0.1226708E+00
        -11   -1    0    0    0    0  0.00000000000E+00  0.00000000000E+00  0.45593999997E+02  0.45594000000E+02  0.51100000000E-03 0.  1.
         11   -1    0    0    0    0 -0.00000000000E+00 -0.00000000000E+00 -0.45593999997E+02  0.45594000000E+02  0.51100000000E-03 0. -1.
    9900012    2    1    2    0    0 -0.44401731642E+01  0.11923575751E+02  0.13740115107E+02  0.72461613281E+02  0.70000055998E+02 0.  0.
         12    1    1    2    0    0  0.44401731642E+01 -0.11923575751E+02 -0.13740115107E+02  0.18726386719E+02  0.00000000000E+00 0. -1.
         11    1    3    3    0    0 -0.11848589014E+02  0.77224290880E+01  0.10990218617E+02  0.17911166298E+02  0.51100000000E-03 0. -1.
        -11    1    3    3    0    0  0.14163694799E+02  0.23137332043E+02  0.15008167250E+02  0.31003088055E+02  0.51100000000E-03 0.  1.
         12    1    3    3    0    0 -0.67552789494E+01 -0.18936185381E+02 -0.12258270761E+02  0.23547358928E+02  0.00000000000E+00 0. -1.
</event>
<event>
 7    1  0.1692604E-013  0.7246162E+02  0.7816164E-02  0.1226708E+00
        -11   -1    0    0    0    0  0.00000000000E+00  0.00000000000E+00  0.45593999997E+02  0.45594000000E+02  0.51100000000E-03 0.  1.
         11   -1    0    0    0    0 -0.00000000000E+00 -0.00000000000E+00 -0.45593999997E+02  0.45594000000E+02  0.51100000000E-03 0. -1.
    9900012    2    1    2    0    0  0.14200821523E+02 -0.42267243302E+01 -0.11452022169E+02  0.72461619083E+02  0.70000063557E+02 0.  0.
         12    1    1    2    0    0 -0.14200821523E+02  0.42267243302E+01  0.11452022169E+02  0.18726380917E+02  0.00000000000E+00 0. -1.
         11    1    3    3    0    0 -0.58447247728E+01  0.26238231351E+02 -0.19659050780E+01  0.26953114387E+02  0.51100000000E-03 0. -1.
        -11    1    3    3    0    0 -0.14285569485E+01  0.36244077931E+01 -0.24703431189E+01  0.46129927587E+01  0.51100000000E-03 0.  1.
        -12    1    3    3    0    0  0.21474103244E+02 -0.34089363474E+02 -0.70157739717E+01  0.40895511938E+02  0.00000000000E+00 0.  1.
</event>
<event>
 7    1  0.1692604E-013  0.7246161E+02  0.7816164E-02  0.1226708E+00
        -11   -1    0    0    0    0  0.00000000000E+00  0.00000000000E+00  0.45593999997E+02  0.45594000000E+02  0.51100000000E-03 0. -1.
         11   -1    0    0    0    0 -0.00000000000E+00 -0.00000000000E+00 -0.45593999997E+02  0.45594000000E+02  0.51100000000E-03 0.  1.
    9900012    2    1    2    0    0  0.15885188909E+02  0.67653285135E+01 -0.72504329438E+01  0.72461610214E+02  0.70000052002E+02 0.  0.
         12    1    1    2    0    0 -0.15885188909E+02 -0.67653285135E+01  0.72504329438E+01  0.18726389786E+02  0.00000000000E+00 0. -1.
         11    1    3    3    0    0  0.17745372865E+02  0.27211633103E+02 -0.18450819696E+02  0.37360460141E+02  0.51100000000E-03 0. -1.
        -11    1    3    3    0    0  0.52368585313E+01  0.17585199081E+01 -0.43906040803E+01  0.70565206721E+01  0.51100000000E-03 0.  1.
         12    1    3    3    0    0 -0.70970424873E+01 -0.22204824498E+02  0.15590990833E+02  0.28044629400E+02  0.00000000000E+00 0. -1.
</event>
<event>
 7    1  0.1692604E-013  0.7246157E+02  0.7816164E-02  0.1226708E+00
        -11   -1    0    0    0    0  0.00000000000E+00  0.00000000000E+00  0.45593999997E+02  0.45594000000E+02  0.51100000000E-03 0. -1.
         11   -1    0    0    0    0 -0.00000000000E+00 -0.00000000000E+00 -0.45593999997E+02  0.45594000000E+02  0.51100000000E-03 0.  1.
    9900012    2    1    2    0    0  0.16309664630E-01 -0.18550338615E+02 -0.25620356337E+01  0.72461565333E+02  0.69999993537E+02 0.  0.
         12    1    1    2    0    0 -0.16309664630E-01  0.18550338615E+02  0.25620356337E+01  0.18726434667E+02  0.00000000000E+00 0. -1.
         11    1    3    3    0    0  0.90446729267E+01 -0.23123627597E+02  0.24081556323E+02  0.34589443719E+02  0.51100000000E-03 0. -1.
        -11    1    3    3    0    0 -0.59127891202E+01  0.47467713400E+01  0.29340864381E+01  0.81302999220E+01  0.51100000000E-03 0.  1.
        -12    1    3    3    0    0 -0.31155741419E+01 -0.17348235810E+00 -0.29577678395E+02  0.29741821692E+02  0.00000000000E+00 0.  1.
</event>
<event>
 7    1  0.1692604E-013  0.7246156E+02  0.7816164E-02  0.1226708E+00
        -11   -1    0    0    0    0  0.00000000000E+00  0.00000000000E+00  0.45593999997E+02  0.45594000000E+02  0.51100000000E-03 0. -1.
         11   -1    0    0    0    0 -0.00000000000E+00 -0.00000000000E+00 -0.45593999997E+02  0.45594000000E+02  0.51100000000E-03 0.  1.
    9900012    2    1    2    0    0  0.13535447686E+02  0.12080055275E+02 -0.46414881872E+01  0.72461561681E+02  0.69999988780E+02 0.  0.
         12    1    1    2    0    0 -0.13535447686E+02 -0.12080055275E+02  0.46414881872E+01  0.18726438319E+02  0.00000000000E+00 0. -1.
         11    1    3    3    0    0 -0.16982455595E+01  0.29970572728E+01 -0.32322715746E+01  0.47237665131E+01  0.51100000000E-03 0. -1.
        -11    1    3    3    0    0  0.30045426169E+02  0.32853297470E+01 -0.25042022439E+02  0.39250782327E+02  0.51100000000E-03 0.  1.
         12    1    3    3    0    0 -0.14811732923E+02  0.57976682555E+01  0.23632805826E+02  0.28487012841E+02  0.00000000000E+00 0. -1.
</event>
<event>
 7    1  0.1692604E-013  0.7246159E+02  0.7816164E-02  0.1226708E+00
        -11   -1    0    0    0    0  0.00000000000E+00  0.00000000000E+00  0.45593999997E+02  0.45594000000E+02  0.51100000000E-03 0.  1.
         11   -1    0    0    0    0 -0.00000000000E+00 -0.00000000000E+00 -0.45593999997E+02  0.45594000000E+02  0.51100000000E-03 0. -1.
    9900012    2    1    2    0    0 -0.48400843816E+01  0.90404571285E+01  0.15669142853E+02  0.72461592986E+02  0.70000029560E+02 0.  0.
         12    1    1    2    0    0  0.48400843816E+01 -0.90404571285E+01 -0.15669142853E+02  0.18726407014E+02  0.00000000000E+00 0. -1.
         11    1    3    3    0    0  0.21259646340E+02  0.19101650898E+02 -0.20488330888E+01  0.28653853962E+02  0.51100000000E-03 0. -1.
        -11    1    3    3    0    0 -0.33713844370E+00  0.81282518562E+01  0.62188828302E+01  0.10239953344E+02  0.51100000000E-03 0.  1.
        -12    1    3    3    0    0 -0.25762592278E+02 -0.18189445626E+02  0.11499093112E+02  0.33567785680E+02  0.00000000000E+00 0.  1.
</event>
<event>
 7    1  0.1692604E-013  0.7246158E+02  0.7816164E-02  0.1226708E+00
        -11   -1    0    0    0    0  0.00000000000E+00  0.00000000000E+00  0.45593999997E+02  0.45594000000E+02  0.51100000000E-03 0. -1.
         11   -1    0    0    0    0 -0.00000000000E+00 -0.00000000000E+00 -0.45593999997E+02  0.45594000000E+02  0.51100000000E-03 0.  1.
    9900012    2    1    2    0    0 -0.43276316596E+01 -0.16639028475E+02  0.74224752780E+01  0.72461580064E+02  0.70000012727E+02 0.  0.
         12    1    1    2    0    0  0.43276316596E+01  0.16639028475E+02 -0.74224752780E+01  0.18726419936E+02  0.00000000000E+00 0. -1.
         11    1    3    3    0    0  0.12790037148E+02 -0.10660675625E+02  0.21002989867E+02  0.26802250626E+02  0.51100000000E-03 0.  1.
        -11    1    3    3    0    0 -0.56650700509E+01 -0.91274341685E+01  0.12810507715E+02  0.16718617807E+02  0.51100000000E-03 0. -1.
         12    1    3    3    0    0 -0.11452598757E+02  0.31490813186E+01 -0.26391022304E+02  0.28940711631E+02  0.00000000000E+00 0. -1.
</event>
<event>
 7    1  0.1692604E-013  0.7246161E+02  0.7816164E-02  0.1226708E+00
        -11   -1    0    0    0    0  0.00000000000E+00  0.00000000000E+00  0.45593999997E+02  0.45594000000E+02  0.51100000000E-03 0.  1.
         11   -1    0    0    0    0 -0.00000000000E+00 -0.00000000000E+00 -0.45593999997E+02  0.45594000000E+02  0.51100000000E-03 0. -1.
    9900012    2    1    2    0    0  0.14021469122E+02  0.12181773534E+01  0.12352818126E+02  0.72461610384E+02  0.70000052224E+02 0.  0.
         12    1    1    2    0    0 -0.14021469122E+02 -0.12181773534E+01 -0.12352818126E+02  0.18726389616E+02  0.00000000000E+00 0. -1.
         11    1    3    3    0    0  0.27324356628E+02  0.68262973635E+01 -0.20235472955E+02  0.34679866880E+02  0.51100000000E-03 0. -1.
        -11    1    3    3    0    0  0.74367208958E+00  0.25021791644E+01  0.25785700050E+01  0.36691923198E+01  0.51100000000E-03 0.  1.
        -12    1    3    3    0    0 -0.14046559596E+02 -0.81102991746E+01  0.30009721076E+02  0.34112551184E+02  0.00000000000E+00 0.  1.
</event>
<event>
 7    1  0.1692604E-013  0.7246154E+02  0.7816164E-02  0.1226708E+00
        -11   -1    0    0    0    0  0.00000000000E+00  0.00000000000E+00  0.45593999997E+02  0.45594000000E+02  0.51100000000E-03 0. -1.
         11   -1    0    0    0    0 -0.00000000000E+00 -0.00000000000E+00 -0.45593999997E+02  0.45594000000E+02  0.51100000000E-03 0.  1.
    9900012    2    1    2    0    0 -0.33773413420E+01 -0.59096789204E+01 -0.17445620362E+02  0.72461537192E+02  0.69999956879E+02 0.  0.
         12    1    1    2    0    0  0.33773413420E+01  0.59096789204E+01  0.17445620362E+02  0.18726462808E+02  0.00000000000E+00 0. -1.
         11    1    3    3    0    0  0.30229787445E+01  0.74250402102E+01 -0.16062059710E+02  0.17951584470E+02  0.51100000000E-03 0. -1.
        -11    1    3    3    0    0 -0.15174039886E+02  0.11065030875E+02 -0.16064143194E+02  0.24713216941E+02  0.51100000000E-03 0.  1.
         12    1    3    3    0    0  0.87737197995E+01 -0.24399750006E+02  0.14680582543E+02  0.29796735782E+02  0.00000000000E+00 0. -1.
</event>
<event>
 7    1  0.1692604E-013  0.7246161E+02  0.7816164E-02  0.1226708E+00
        -11   -1    0    0    0    0  0.00000000000E+00  0.00000000000E+00  0.45593999997E+02  0.45594000000E+02  0.51100000000E-03 0.  1.
         11   -1    0    0    0    0 -0.00000000000E+00 -0.00000000000E+00 -0.45593999997E+02  0.45594000000E+02  0.51100000000E-03 0. -1.
    9900012    2    1    2    0    0  0.24614828211E+01 -0.14858404329E+02  0.11128636828E+02  0.72461611279E+02  0.70000053390E+02 0.  0.
         12    1    1    2    0    0 -0.24614828211E+01  0.14858404329E+02 -0.11128636828E+02  0.18726388721E+02  0.00000000000E+00 0. -1.
         11    1    3    3    0    0 -0.12477294219E+02 -0.28374246958E+01 -0.10031957331E+02  0.16259582347E+02  0.51100000000E-03 0. -1.
        -11    1    3    3    0    0  0.20561093443E+02  0.11493199120E+02 -0.75932964486E+00  0.23567536386E+02  0.51100000000E-03 0.  1.
        -12    1    3    3    0    0 -0.56223164025E+01 -0.23514178752E+02  0.21919923805E+02  0.32634492546E+02  0.00000000000E+00 0.  1.
</event>
<event>
 7    1  0.1692604E-013  0.7246155E+02  0.7816164E-02  0.1226708E+00
        -11   -1    0    0    0    0  0.00000000000E+00  0.00000000000E+00  0.45593999997E+02  0.45594000000E+02  0.51100000000E-03 0.  1.
         11   -1    0    0    0    0 -0.00000000000E+00 -0.00000000000E+00 -0.45593999997E+02  0.45594000000E+02  0.51100000000E-03 0. -1.
    9900012    2    1    2    0    0  0.12540658153E+02  0.13903297393E+02 -0.33174781641E+00  0.72461552341E+02  0.69999976612E+02 0.  0.
         12    1    1    2    0    0 -0.12540658153E+02 -0.13903297393E+02  0.33174781641E+00  0.18726447659E+02  0.00000000000E+00 0. -1.
         11    1    3    3    0    0  0.50052834345E+01  0.12601247041E+02  0.12442079514E+02  0.18402435495E+02  0.51100000000E-03 0. -1.
        -11    1    3    3    0    0 -0.18529344964E+02  0.65466877873E+01  0.70679532449E+01  0.20884245477E+02  0.51100000000E-03 0.  1.
         12    1    3    3    0    0  0.26064719683E+02 -0.52446374354E+01 -0.19841780575E+02  0.33174871369E+02  0.00000000000E+00 0. -1.
</event>
<event>
 7    1  0.1692604E-013  0.7246153E+02  0.7816164E-02  0.1226708E+00
        -11   -1    0    0    0    0  0.00000000000E+00  0.00000000000E+00  0.45593999997E+02  0.45594000000E+02  0.51100000000E-03 0.  1.
         11   -1    0    0    0    0 -0.00000000000E+00 -0.00000000000E+00 -0.45593999997E+02  0.45594000000E+02  0.51100000000E-03 0. -1.
    9900012    2    1    2    0    0 -0.85992204147E+01  0.10096869488E+02  0.13220716540E+02  0.72461529136E+02  0.69999946383E+02 0.  0.
         12    1    1    2    0    0  0.85992204147E+01 -0.10096869488E+02 -0.13220716540E+02  0.18726470864E+02  0.00000000000E+00 0. -1.
         11    1    3    3    0    0  0.54392994646E+01  0.52564825885E+01 -0.13753826639E+01  0.76881900082E+01  0.51100000000E-03 0. -1.
        -11    1    3    3    0    0  0.20714777360E+02 -0.10733847025E+02 -0.16078390308E+01  0.23385949193E+02  0.51100000000E-03 0.  1.
         12    1    3    3    0    0 -0.34753297239E+02  0.15574233924E+02  0.16203938235E+02  0.41387389935E+02  0.00000000000E+00 0. -1.
</event>
<event>
 7    1  0.1692604E-013  0.7246141E+02  0.7816164E-02  0.1226708E+00
        -11   -1    0    0    0    0  0.00000000000E+00  0.00000000000E+00  0.45593999997E+02  0.45594000000E+02  0.51100000000E-03 0. -1.
         11   -1    0    0    0    0 -0.00000000000E+00 -0.00000000000E+00 -0.45593999997E+02  0.45594000000E+02  0.51100000000E-03 0.  1.
    9900012    2    1    2    0    0 -0.44445659510E+01 -0.18182383273E+02 -0.57598460194E+00  0.72461414987E+02  0.69999797683E+02 0.  0.
         12    1    1    2    0    0  0.44445659510E+01  0.18182383273E+02  0.57598460194E+00  0.18726585013E+02  0.00000000000E+00 0. -1.
         11    1    3    3    0    0 -0.15627793383E+01 -0.60366856188E+01 -0.11389514216E+02  0.12984794448E+02  0.51100000000E-03 0. -1.
        -11    1    3    3    0    0  0.43443005890E+01 -0.29820404370E+02 -0.95002469359E+01  0.31597217543E+02  0.51100000000E-03 0.  1.
         12    1    3    3    0    0 -0.72260872016E+01  0.17674706715E+02  0.20313776550E+02  0.27879402996E+02  0.00000000000E+00 0. -1.
</event>
<event>
 7    1  0.1692604E-013  0.7246155E+02  0.7816164E-02  0.1226708E+00
        -11   -1    0    0    0    0  0.00000000000E+00  0.00000000000E+00  0.45593999997E+02  0.45594000000E+02  0.51100000000E-03 0.  1.
         11   -1    0    0    0    0 -0.00000000000E+00 -0.00000000000E+00 -0.45593999997E+02  0.45594000000E+02  0.51100000000E-03 0. -1.
    9900012    2    1    2    0    0  0.97332005928E+00 -0.16544233547E+02 -0.87189885218E+01  0.72461554090E+02  0.69999978891E+02 0.  0.
         12    1    1    2    0    0 -0.97332005928E+00  0.16544233547E+02  0.87189885218E+01  0.18726445910E+02  0.00000000000E+00 0. -1.
         11    1    3    3    0    0 -0.10248445715E+01  0.18030419811E+02  0.17489994478E+01  0.18144016763E+02  0.51100000000E-03 0. -1.
        -11    1    3    3    0    0 -0.76988148311E+01 -0.82148551382E+01  0.13369653936E+02  0.17478651017E+02  0.51100000000E-03 0.  1.
         12    1    3    3    0    0  0.96969794619E+01 -0.26359798220E+02 -0.23837641906E+02  0.36838886309E+02  0.00000000000E+00 0. -1.
</event>
<event>
 7    1  0.1692604E-013  0.7246156E+02  0.7816164E-02  0.1226708E+00
        -11   -1    0    0    0    0  0.00000000000E+00  0.00000000000E+00  0.45593999997E+02  0.45594000000E+02  0.51100000000E-03 0.  1.
         11   -1    0    0    0    0 -0.00000000000E+00 -0.00000000000E+00 -0.45593999997E+02  0.45594000000E+02  0.51100000000E-03 0. -1.
    9900012    2    1    2    0    0  0.13942720241E+02  0.91836082147E+01  0.84818342938E+01  0.72461558252E+02  0.69999984312E+02 0.  0.
         12    1    1    2    0    0 -0.13942720241E+02 -0.91836082147E+01 -0.84818342938E+01  0.18726441748E+02  0.00000000000E+00 0. -1.
         11    1    3    3    0    0 -0.85882637870E+00 -0.56573206886E+01 -0.13142307445E+02  0.14333984281E+02  0.51100000000E-03 0. -1.
        -11    1    3    3    0    0  0.28583415493E+01  0.32491246553E+02  0.12168254358E+02  0.34812607391E+02  0.51100000000E-03 0.  1.
         12    1    3    3    0    0  0.11943205070E+02 -0.17650317649E+02  0.94558873810E+01  0.23314966580E+02  0.00000000000E+00 0. -1.
</event>
<event>
 7    1  0.1692604E-013  0.7246174E+02  0.7816164E-02  0.1226708E+00
        -11   -1    0    0    0    0  0.00000000000E+00  0.00000000000E+00  0.45593999997E+02  0.45594000000E+02  0.51100000000E-03 0.  1.
         11   -1    0    0    0    0 -0.00000000000E+00 -0.00000000000E+00 -0.45593999997E+02  0.45594000000E+02  0.51100000000E-03 0. -1.
    9900012    2    1    2    0    0 -0.13900109383E+02  0.10494670548E+02  0.68790781325E+01  0.72461738582E+02  0.70000219225E+02 0.  0.
         12    1    1    2    0    0  0.13900109383E+02 -0.10494670548E+02 -0.68790781325E+01  0.18726261418E+02  0.00000000000E+00 0. -1.
         11    1    3    3    0    0  0.24478839915E+01 -0.17175702357E+02 -0.15881724302E+02  0.23520757950E+02  0.51100000000E-03 0. -1.
        -11    1    3    3    0    0  0.78761780570E+01  0.29921465111E+01  0.21937243573E+01  0.87062936055E+01  0.51100000000E-03 0.  1.
        -12    1    3    3    0    0 -0.24224171431E+02  0.24678226393E+02  0.20567078077E+02  0.40234687026E+02  0.00000000000E+00 0.  1.
</event>
<event>
 7    1  0.1692604E-013  0.7246158E+02  0.7816164E-02  0.1226708E+00
        -11   -1    0    0    0    0  0.00000000000E+00  0.00000000000E+00  0.45593999997E+02  0.45594000000E+02  0.51100000000E-03 0.  1.
         11   -1    0    0    0    0 -0.00000000000E+00 -0.00000000000E+00 -0.45593999997E+02  0.45594000000E+02  0.51100000000E-03 0. -1.
    9900012    2    1    2    0    0 -0.49032967077E+01  0.11033735132E+02  0.14314090886E+02  0.72461579428E+02  0.70000011898E+02 0.  0.
         12    1    1    2    0    0  0.49032967077E+01 -0.11033735132E+02 -0.14314090886E+02  0.18726420572E+02  0.00000000000E+00 0. -1.
         11    1    3    3    0    0  0.12121516965E+02  0.12174575501E+02 -0.15542702368E+02  0.23167370574E+02  0.51100000000E-03 0. -1.
        -11    1    3    3    0    0  0.21679244616E+01  0.23754398026E+00 -0.72088426012E+01  0.75315161505E+01  0.51100000000E-03 0.  1.
        -12    1    3    3    0    0 -0.19192738134E+02 -0.13783843495E+01  0.37065635855E+02  0.41762692703E+02  0.00000000000E+00 0.  1.
</event>
<event>
 7    1  0.1692604E-013  0.7246158E+02  0.7816164E-02  0.1226708E+00
        -11   -1    0    0    0    0  0.00000000000E+00  0.00000000000E+00  0.45593999997E+02  0.45594000000E+02  0.51100000000E-03 0.  1.
         11   -1    0    0    0    0 -0.00000000000E+00 -0.00000000000E+00 -0.45593999997E+02  0.45594000000E+02  0.51100000000E-03 0. -1.
    9900012    2    1    2    0    0  0.59953712604E+01 -0.11260557445E+02  0.13708913304E+02  0.72461576570E+02  0.70000008175E+02 0.  0.
         12    1    1    2    0    0 -0.59953712604E+01  0.11260557445E+02 -0.13708913304E+02  0.18726423430E+02  0.00000000000E+00 0. -1.
         11    1    3    3    0    0 -0.21957363889E+02 -0.22115487379E+01  0.13995365218E+02  0.26132107160E+02  0.51100000000E-03 0. -1.
        -11    1    3    3    0    0  0.90193194860E+01 -0.21329072775E+02  0.35824441847E+01  0.23433125614E+02  0.51100000000E-03 0.  1.
        -12    1    3    3    0    0  0.18933415664E+02  0.12280064068E+02 -0.38688960990E+01  0.22896343796E+02  0.00000000000E+00 0.  1.
</event>
<event>
 7    1  0.1692604E-013  0.7246164E+02  0.7816164E-02  0.1226708E+00
        -11   -1    0    0    0    0  0.00000000000E+00  0.00000000000E+00  0.45593999997E+02  0.45594000000E+02  0.51100000000E-03 0.  1.
         11   -1    0    0    0    0 -0.00000000000E+00 -0.00000000000E+00 -0.45593999997E+02  0.45594000000E+02  0.51100000000E-03 0. -1.
    9900012    2    1    2    0    0  0.50251707674E+01  0.10356102057E+00  0.18039219297E+02  0.72461641599E+02  0.70000092887E+02 0.  0.
         12    1    1    2    0    0 -0.50251707674E+01 -0.10356102057E+00 -0.18039219297E+02  0.18726358401E+02  0.00000000000E+00 0. -1.
         11    1    3    3    0    0  0.66134174699E+01  0.48153494487E+01 -0.21477181709E+02  0.22982476267E+02  0.51100000000E-03 0. -1.
        -11    1    3    3    0    0 -0.23721834187E+01  0.12168445065E+02  0.12443793810E+02  0.17565486447E+02  0.51100000000E-03 0.  1.
        -12    1    3    3    0    0  0.78393671619E+00 -0.16880233493E+02  0.27072607197E+02  0.31913678885E+02  0.00000000000E+00 0.  1.
</event>
<event>
 7    1  0.1692604E-013  0.7246164E+02  0.7816164E-02  0.1226708E+00
        -11   -1    0    0    0    0  0.00000000000E+00  0.00000000000E+00  0.45593999997E+02  0.45594000000E+02  0.51100000000E-03 0. -1.
         11   -1    0    0    0    0 -0.00000000000E+00 -0.00000000000E+00 -0.45593999997E+02  0.45594000000E+02  0.51100000000E-03 0.  1.
    9900012    2    1    2    0    0 -0.14231778767E+02 -0.11473227093E+02 -0.40617753190E+01  0.72461641957E+02  0.70000093354E+02 0.  0.
         12    1    1    2    0    0  0.14231778767E+02  0.11473227093E+02  0.40617753190E+01  0.18726358043E+02  0.00000000000E+00 0. -1.
         11    1    3    3    0    0  0.39595990931E+01  0.27034665423E+01 -0.25599715896E+02  0.26044819265E+02  0.51100000000E-03 0. -1.
        -11    1    3    3    0    0 -0.16725368069E+02 -0.80283153123E+01 -0.49367979869E+01  0.19198014440E+02  0.51100000000E-03 0.  1.
         12    1    3    3    0    0 -0.14660097914E+01 -0.61483783226E+01  0.26474738564E+02  0.27218808253E+02  0.00000000000E+00 0. -1.
</event>
<event>
 7    1  0.1692604E-013  0.7246158E+02  0.7816164E-02  0.1226708E+00
        -11   -1    0    0    0    0  0.00000000000E+00  0.00000000000E+00  0.45593999997E+02  0.45594000000E+02  0.51100000000E-03 0.  1.
         11   -1    0    0    0    0 -0.00000000000E+00 -0.00000000000E+00 -0.45593999997E+02  0.45594000000E+02  0.51100000000E-03 0. -1.
    9900012    2    1    2    0    0 -0.17588949584E+02  0.18063920060E+01  0.61680166704E+01  0.72461584721E+02  0.70000018794E+02 0.  0.
         12    1    1    2    0    0  0.17588949584E+02 -0.18063920060E+01 -0.61680166704E+01  0.18726415279E+02  0.00000000000E+00 0. -1.
         11    1    3    3    0    0 -0.10612231211E+01 -0.57866116134E+01 -0.17398305144E+01  0.61349880975E+01  0.51100000000E-03 0. -1.
        -11    1    3    3    0    0  0.15417923372E+02 -0.17796461773E+02 -0.38528359385E+01  0.23859395587E+02  0.51100000000E-03 0.  1.
        -12    1    3    3    0    0 -0.31945649835E+02  0.25389465393E+02  0.11760683123E+02  0.42467201036E+02  0.00000000000E+00 0.  1.
</event>
<event>
 7    1  0.1692604E-013  0.7246162E+02  0.7816164E-02  0.1226708E+00
        -11   -1    0    0    0    0  0.00000000000E+00  0.00000000000E+00  0.45593999997E+02  0.45594000000E+02  0.51100000000E-03 0.  1.
         11   -1    0    0    0    0 -0.00000000000E+00 -0.00000000000E+00 -0.45593999997E+02  0.45594000000E+02  0.51100000000E-03 0. -1.
    9900012    2    1    2    0    0  0.13374599719E+02  0.12624748681E+02 -0.35232261647E+01  0.72461619690E+02  0.70000064347E+02 0.  0.
         12    1    1    2    0    0 -0.13374599719E+02 -0.12624748681E+02  0.35232261647E+01  0.18726380310E+02  0.00000000000E+00 0. -1.
         11    1    3    3    0    0 -0.12044574900E+02 -0.56703233799E+01 -0.15604134922E+02  0.20511298805E+02  0.51100000000E-03 0. -1.
        -11    1    3    3    0    0 -0.50034674172E+01  0.18257480083E+02 -0.71970898875E+00  0.18944346029E+02  0.51100000000E-03 0.  1.
        -12    1    3    3    0    0  0.30422642035E+02  0.37591978366E-01  0.12800617746E+02  0.33005974857E+02  0.00000000000E+00 0.  1.
</event>
<event>
 7    1  0.1692604E-013  0.7246152E+02  0.7816164E-02  0.1226708E+00
        -11   -1    0    0    0    0  0.00000000000E+00  0.00000000000E+00  0.45593999997E+02  0.45594000000E+02  0.51100000000E-03 0.  1.
         11   -1    0    0    0    0 -0.00000000000E+00 -0.00000000000E+00 -0.45593999997E+02  0.45594000000E+02  0.51100000000E-03 0. -1.
    9900012    2    1    2    0    0 -0.17769106646E+02 -0.14491629308E+01  0.57306189410E+01  0.72461515609E+02  0.69999928762E+02 0.  0.
         12    1    1    2    0    0  0.17769106646E+02  0.14491629308E+01 -0.57306189410E+01  0.18726484391E+02  0.00000000000E+00 0. -1.
         11    1    3    3    0    0 -0.11475682079E+02 -0.19425478578E+02 -0.25226531013E+02  0.33844029967E+02  0.51100000000E-03 0. -1.
        -11    1    3    3    0    0 -0.41210264592E+01 -0.69561474726E+00  0.42740291301E+01  0.59777976061E+01  0.51100000000E-03 0.  1.
        -12    1    3    3    0    0 -0.21723981078E+01  0.18671930395E+02  0.26683120824E+02  0.32639688036E+02  0.00000000000E+00 0.  1.
</event>
<event>
 7    1  0.1692604E-013  0.7246160E+02  0.7816164E-02  0.1226708E+00
        -11   -1    0    0    0    0  0.00000000000E+00  0.00000000000E+00  0.45593999997E+02  0.45594000000E+02  0.51100000000E-03 0.  1.
         11   -1    0    0    0    0 -0.00000000000E+00 -0.00000000000E+00 -0.45593999997E+02  0.45594000000E+02  0.51100000000E-03 0. -1.
    9900012    2    1    2    0    0 -0.50628108085E+01  0.42170526556E+01  0.17528907579E+02  0.72461596520E+02  0.70000034163E+02 0.  0.
         12    1    1    2    0    0  0.50628108085E+01 -0.42170526556E+01 -0.17528907579E+02  0.18726403480E+02  0.00000000000E+00 0. -1.
         11    1    3    3    0    0  0.49393805546E+01 -0.13947989601E+01  0.78552743064E+01  0.93834044510E+01  0.51100000000E-03 0. -1.
        -11    1    3    3    0    0  0.17007298765E+02  0.22657884112E+02 -0.34667063135E+01  0.28542003725E+02  0.51100000000E-03 0.  1.
         12    1    3    3    0    0 -0.27009490128E+02 -0.17046032496E+02  0.13140339587E+02  0.34536188344E+02  0.00000000000E+00 0. -1.
</event>
<event>
 7    1  0.1692604E-013  0.7246159E+02  0.7816164E-02  0.1226708E+00
        -11   -1    0    0    0    0  0.00000000000E+00  0.00000000000E+00  0.45593999997E+02  0.45594000000E+02  0.51100000000E-03 0. -1.
         11   -1    0    0    0    0 -0.00000000000E+00 -0.00000000000E+00 -0.45593999997E+02  0.45594000000E+02  0.51100000000E-03 0.  1.
    9900012    2    1    2    0    0 -0.29694251176E+01 -0.96256469908E+01 -0.15786323216E+02  0.72461586403E+02  0.70000020985E+02 0.  0.
         12    1    1    2    0    0  0.29694251176E+01  0.96256469908E+01  0.15786323216E+02  0.18726413597E+02  0.00000000000E+00 0. -1.
         11    1    3    3    0    0 -0.10310152461E+02 -0.20318421489E+02 -0.43010863952E+01  0.23186997218E+02  0.51100000000E-03 0. -1.
        -11    1    3    3    0    0 -0.17189408510E+02  0.60321087125E+00 -0.14609461077E+02  0.22567143849E+02  0.51100000000E-03 0.  1.
         12    1    3    3    0    0  0.24530135854E+02  0.10089563627E+02  0.31242242564E+01  0.26707445336E+02  0.00000000000E+00 0. -1.
</event>
<event>
 7    1  0.1692604E-013  0.7246156E+02  0.7816164E-02  0.1226708E+00
        -11   -1    0    0    0    0  0.00000000000E+00  0.00000000000E+00  0.45593999997E+02  0.45594000000E+02  0.51100000000E-03 0.  1.
         11   -1    0    0    0    0 -0.00000000000E+00 -0.00000000000E+00 -0.45593999997E+02  0.45594000000E+02  0.51100000000E-03 0. -1.
    9900012    2    1    2    0    0  0.12711247577E+02  0.71369567597E+01  0.11754464260E+02  0.72461564226E+02  0.69999992095E+02 0.  0.
         12    1    1    2    0    0 -0.12711247577E+02 -0.71369567597E+01 -0.11754464260E+02  0.18726435774E+02  0.00000000000E+00 0. -1.
         11    1    3    3    0    0 -0.55432892352E+01  0.64987982094E+01 -0.96840896736E+01  0.12912940284E+02  0.51100000000E-03 0. -1.
        -11    1    3    3    0    0  0.57029584029E+00  0.14215969053E+02  0.31893913570E+02  0.34923355173E+02  0.51100000000E-03 0.  1.
         12    1    3    3    0    0  0.17684240972E+02 -0.13577810503E+02 -0.10455359636E+02  0.24625268769E+02  0.00000000000E+00 0. -1.
</event>
<event>
 7    1  0.1692604E-013  0.7246131E+02  0.7816164E-02  0.1226709E+00
        -11   -1    0    0    0    0  0.00000000000E+00  0.00000000000E+00  0.45593999997E+02  0.45594000000E+02  0.51100000000E-03 0.  1.
         11   -1    0    0    0    0 -0.00000000000E+00 -0.00000000000E+00 -0.45593999997E+02  0.45594000000E+02  0.51100000000E-03 0. -1.
    9900012    2    1    2    0    0  0.53275750285E+01 -0.17016509880E+02  0.57222507168E+01  0.72461312694E+02  0.69999664427E+02 0.  0.
         12    1    1    2    0    0 -0.53275750285E+01  0.17016509880E+02 -0.57222507168E+01  0.18726687306E+02  0.00000000000E+00 0. -1.
         11    1    3    3    0    0 -0.57946317296E+01 -0.30519440080E+02  0.27053506209E+02  0.41193521070E+02  0.51100000000E-03 0.  1.
        -11    1    3    3    0    0  0.37291967183E+01  0.32681775063E+01  0.14978969565E+01  0.51799216142E+01  0.51100000000E-03 0. -1.
        -12    1    3    3    0    0  0.73930100399E+01  0.10234752693E+02 -0.22829152448E+02  0.26087870010E+02  0.00000000000E+00 0.  1.
</event>
<event>
 7    1  0.1692604E-013  0.7246158E+02  0.7816164E-02  0.1226708E+00
        -11   -1    0    0    0    0  0.00000000000E+00  0.00000000000E+00  0.45593999997E+02  0.45594000000E+02  0.51100000000E-03 0.  1.
         11   -1    0    0    0    0 -0.00000000000E+00 -0.00000000000E+00 -0.45593999997E+02  0.45594000000E+02  0.51100000000E-03 0. -1.
    9900012    2    1    2    0    0 -0.11663399773E+02  0.37122177636E+01  0.14172625005E+02  0.72461581375E+02  0.70000014435E+02 0.  0.
         12    1    1    2    0    0  0.11663399773E+02 -0.37122177636E+01 -0.14172625005E+02  0.18726418625E+02  0.00000000000E+00 0. -1.
         11    1    3    3    0    0  0.83253470608E+01  0.22400292124E+02  0.79926576851E+01  0.25198552896E+02  0.51100000000E-03 0. -1.
        -11    1    3    3    0    0  0.10644478546E+02 -0.18375849508E+01 -0.28147458835E+01  0.11162635738E+02  0.51100000000E-03 0.  1.
        -12    1    3    3    0    0 -0.30633225380E+02 -0.16850489409E+02  0.89947132031E+01  0.36100392742E+02  0.00000000000E+00 0.  1.
</event>
<event>
 7    1  0.1692604E-013  0.7246158E+02  0.7816164E-02  0.1226708E+00
        -11   -1    0    0    0    0  0.00000000000E+00  0.00000000000E+00  0.45593999997E+02  0.45594000000E+02  0.51100000000E-03 0. -1.
         11   -1    0    0    0    0 -0.00000000000E+00 -0.00000000000E+00 -0.45593999997E+02  0.45594000000E+02  0.51100000000E-03 0.  1.
    9900012    2    1    2    0    0 -0.25500013344E+01 -0.18549212362E+02 -0.32123811099E+00  0.72461575355E+02  0.70000006593E+02 0.  0.
         12    1    1    2    0    0  0.25500013344E+01  0.18549212362E+02  0.32123811099E+00  0.18726424645E+02  0.00000000000E+00 0. -1.
         11    1    3    3    0    0 -0.39514335928E+01  0.19529401600E+01 -0.41483100494E+01  0.60527910284E+01  0.51100000000E-03 0.  1.
        -11    1    3    3    0    0 -0.28058868737E+02 -0.65444031896E+01 -0.10679188554E+02  0.30727420919E+02  0.51100000000E-03 0. -1.
         12    1    3    3    0    0  0.29460300995E+02 -0.13957749332E+02  0.14506260493E+02  0.35681363408E+02  0.00000000000E+00 0. -1.
</event>
<event>
 7    1  0.1692604E-013  0.7246168E+02  0.7816164E-02  0.1226708E+00
        -11   -1    0    0    0    0  0.00000000000E+00  0.00000000000E+00  0.45593999997E+02  0.45594000000E+02  0.51100000000E-03 0.  1.
         11   -1    0    0    0    0 -0.00000000000E+00 -0.00000000000E+00 -0.45593999997E+02  0.45594000000E+02  0.51100000000E-03 0. -1.
    9900012    2    1    2    0    0 -0.28612304227E+01  0.42615974625E+01  0.18009087264E+02  0.72461679578E+02  0.70000142362E+02 0.  0.
         12    1    1    2    0    0  0.28612304227E+01 -0.42615974625E+01 -0.18009087264E+02  0.18726320422E+02  0.00000000000E+00 0. -1.
         11    1    3    3    0    0 -0.79080213123E+01 -0.73177493998E+01  0.22050194210E+02  0.24541746522E+02  0.51100000000E-03 0. -1.
        -11    1    3    3    0    0 -0.69853997232E+01 -0.85922393021E+01  0.14323676447E+02  0.18104974254E+02  0.51100000000E-03 0.  1.
         12    1    3    3    0    0  0.12032190613E+02  0.20171586164E+02 -0.18364783393E+02  0.29814958803E+02  0.00000000000E+00 0. -1.
</event>
<event>
 7    1  0.1692604E-013  0.7246174E+02  0.7816164E-02  0.1226708E+00
        -11   -1    0    0    0    0  0.00000000000E+00  0.00000000000E+00  0.45593999997E+02  0.45594000000E+02  0.51100000000E-03 0.  1.
         11   -1    0    0    0    0 -0.00000000000E+00 -0.00000000000E+00 -0.45593999997E+02  0.45594000000E+02  0.51100000000E-03 0. -1.
    9900012    2    1    2    0    0  0.10198687505E+02 -0.15701135113E+02 -0.36589132221E+00  0.72461741775E+02  0.70000223385E+02 0.  0.
         12    1    1    2    0    0 -0.10198687505E+02  0.15701135113E+02  0.36589132221E+00  0.18726258225E+02  0.00000000000E+00 0. -1.
         11    1    3    3    0    0  0.73944723154E+01 -0.11539433761E+02 -0.30838015028E+02  0.33746406083E+02  0.51100000000E-03 0. -1.
        -11    1    3    3    0    0  0.43784194566E+01 -0.57294106730E+00 -0.27899013156E+01  0.52232526280E+01  0.51100000000E-03 0.  1.
        -12    1    3    3    0    0 -0.15742042665E+01 -0.35887602841E+01  0.33262025021E+02  0.33492083064E+02  0.00000000000E+00 0.  1.
</event>
<event>
 7    1  0.1692604E-013  0.7246179E+02  0.7816164E-02  0.1226707E+00
        -11   -1    0    0    0    0  0.00000000000E+00  0.00000000000E+00  0.45593999997E+02  0.45594000000E+02  0.51100000000E-03 0. -1.
         11   -1    0    0    0    0 -0.00000000000E+00 -0.00000000000E+00 -0.45593999997E+02  0.45594000000E+02  0.51100000000E-03 0.  1.
    9900012    2    1    2    0    0  0.17707410712E+02 -0.28775463176E+01 -0.53701328826E+01  0.72461788580E+02  0.70000284358E+02 0.  0.
         12    1    1    2    0    0 -0.17707410712E+02  0.28775463176E+01  0.53701328826E+01  0.18726211420E+02  0.00000000000E+00 0. -1.
         11    1    3    3    0    0  0.22798884912E+02  0.56042835148E+01 -0.14141243648E+02  0.27407515741E+02  0.51100000000E-03 0. -1.
        -11    1    3    3    0    0  0.17714715485E+02 -0.11239133561E+02  0.18431285676E+01  0.21060066265E+02  0.51100000000E-03 0.  1.
         12    1    3    3    0    0 -0.22806189685E+02  0.27573037286E+01  0.69279821977E+01  0.23994206574E+02  0.00000000000E+00 0. -1.
</event>
<event>
 7    1  0.1692604E-013  0.7246154E+02  0.7816164E-02  0.1226708E+00
        -11   -1    0    0    0    0  0.00000000000E+00  0.00000000000E+00  0.45593999997E+02  0.45594000000E+02  0.51100000000E-03 0. -1.
         11   -1    0    0    0    0 -0.00000000000E+00 -0.00000000000E+00 -0.45593999997E+02  0.45594000000E+02  0.51100000000E-03 0.  1.
    9900012    2    1    2    0    0 -0.50029202282E+01 -0.57375588174E+01 -0.17109395318E+02  0.72461542776E+02  0.69999964153E+02 0.  0.
         12    1    1    2    0    0  0.50029202282E+01  0.57375588174E+01  0.17109395318E+02  0.18726457224E+02  0.00000000000E+00 0. -1.
         11    1    3    3    0    0 -0.45646149884E+00 -0.16965031015E+00  0.63048682494E+01  0.63236462766E+01  0.51100000000E-03 0. -1.
        -11    1    3    3    0    0  0.27497112575E+02  0.21287670495E+01 -0.39411846140E+01  0.27859572601E+02  0.51100000000E-03 0.  1.
        -12    1    3    3    0    0 -0.32043571304E+02 -0.76966755568E+01 -0.19473078954E+02  0.38278323899E+02  0.00000000000E+00 0.  1.
</event>
<event>
 7    1  0.1692604E-013  0.7246154E+02  0.7816164E-02  0.1226708E+00
        -11   -1    0    0    0    0  0.00000000000E+00  0.00000000000E+00  0.45593999997E+02  0.45594000000E+02  0.51100000000E-03 0.  1.
         11   -1    0    0    0    0 -0.00000000000E+00 -0.00000000000E+00 -0.45593999997E+02  0.45594000000E+02  0.51100000000E-03 0. -1.
    9900012    2    1    2    0    0  0.77506256726E+01  0.14895428633E+02  0.82906217413E+01  0.72461537404E+02  0.69999957155E+02 0.  0.
         12    1    1    2    0    0 -0.77506256726E+01 -0.14895428633E+02 -0.82906217413E+01  0.18726462596E+02  0.00000000000E+00 0. -1.
         11    1    3    3    0    0  0.68514456854E+00  0.63147380475E+01 -0.23340736106E+01  0.67670702353E+01  0.51100000000E-03 0. -1.
        -11    1    3    3    0    0  0.17876047107E+02  0.16246942007E+02 -0.20616941663E+02  0.31758061473E+02  0.51100000000E-03 0.  1.
         12    1    3    3    0    0 -0.10810566003E+02 -0.76662514213E+01  0.31241637015E+02  0.33936405696E+02  0.00000000000E+00 0. -1.
</event>
<event>
 7    1  0.1692604E-013  0.7246158E+02  0.7816164E-02  0.1226708E+00
        -11   -1    0    0    0    0  0.00000000000E+00  0.00000000000E+00  0.45593999997E+02  0.45594000000E+02  0.51100000000E-03 0.  1.
         11   -1    0    0    0    0 -0.00000000000E+00 -0.00000000000E+00 -0.45593999997E+02  0.45594000000E+02  0.51100000000E-03 0. -1.
    9900012    2    1    2    0    0  0.17584104055E+02  0.41401198414E+00  0.64270184557E+01  0.72461583163E+02  0.70000016763E+02 0.  0.
         12    1    1    2    0    0 -0.17584104055E+02 -0.41401198414E+00 -0.64270184557E+01  0.18726416837E+02  0.00000000000E+00 0. -1.
         11    1    3    3    0    0 -0.10939590590E+02 -0.66407692646E+01 -0.22059067800E+02  0.25502488725E+02  0.51100000000E-03 0. -1.
        -11    1    3    3    0    0 -0.32893993569E+01 -0.78664621710E+00  0.70086662034E+01  0.77820538813E+01  0.51100000000E-03 0.  1.
        -12    1    3    3    0    0  0.31813094002E+02  0.78414274658E+01  0.21477420052E+02  0.39177040556E+02  0.00000000000E+00 0.  1.
</event>
<event>
 7    1  0.1692604E-013  0.7246157E+02  0.7816164E-02  0.1226708E+00
        -11   -1    0    0    0    0  0.00000000000E+00  0.00000000000E+00  0.45593999997E+02  0.45594000000E+02  0.51100000000E-03 0. -1.
         11   -1    0    0    0    0 -0.00000000000E+00 -0.00000000000E+00 -0.45593999997E+02  0.45594000000E+02  0.51100000000E-03 0.  1.
    9900012    2    1    2    0    0 -0.94558140396E+01  0.15930181801E+02  0.27379051453E+01  0.72461568521E+02  0.69999997690E+02 0.  0.
         12    1    1    2    0    0  0.94558140396E+01 -0.15930181801E+02 -0.27379051453E+01  0.18726431479E+02  0.00000000000E+00 0. -1.
         11    1    3    3    0    0  0.56088394485E+01 -0.42425617310E+01 -0.36548067165E+01  0.79256559601E+01  0.51100000000E-03 0. -1.
        -11    1    3    3    0    0  0.83712477177E+00 -0.17450016459E+02 -0.10447003013E+02  0.20355434766E+02  0.51100000000E-03 0.  1.
         12    1    3    3    0    0 -0.15901778260E+02  0.37622759991E+02  0.16839714874E+02  0.44180477795E+02  0.00000000000E+00 0. -1.
</event>
<event>
 7    1  0.1692604E-013  0.7246154E+02  0.7816164E-02  0.1226708E+00
        -11   -1    0    0    0    0  0.00000000000E+00  0.00000000000E+00  0.45593999997E+02  0.45594000000E+02  0.51100000000E-03 0.  1.
         11   -1    0    0    0    0 -0.00000000000E+00 -0.00000000000E+00 -0.45593999997E+02  0.45594000000E+02  0.51100000000E-03 0. -1.
    9900012    2    1    2    0    0 -0.10430261651E+02  0.15552597910E+02 -0.80597019040E-01  0.72461543962E+02  0.69999965698E+02 0.  0.
         12    1    1    2    0    0  0.10430261651E+02 -0.15552597910E+02  0.80597019040E-01  0.18726456038E+02  0.00000000000E+00 0. -1.
         11    1    3    3    0    0 -0.85666771215E+00  0.27149840035E+02 -0.19704519288E+02  0.33557648519E+02  0.51100000000E-03 0. -1.
        -11    1    3    3    0    0 -0.43711270557E+01  0.79845007303E+01  0.15874047127E+02  0.18298753403E+02  0.51100000000E-03 0.  1.
        -12    1    3    3    0    0 -0.52024668828E+01 -0.19581742856E+02  0.37498751421E+01  0.20605142040E+02  0.00000000000E+00 0.  1.
</event>
<event>
 7    1  0.1692604E-013  0.7246167E+02  0.7816164E-02  0.1226708E+00
        -11   -1    0    0    0    0  0.00000000000E+00  0.00000000000E+00  0.45593999997E+02  0.45594000000E+02  0.51100000000E-03 0. -1.
         11   -1    0    0    0    0 -0.00000000000E+00 -0.00000000000E+00 -0.45593999997E+02  0.45594000000E+02  0.51100000000E-03 0.  1.
    9900012    2    1    2    0    0 -0.69014169313E+01  0.10236258698E+02 -0.14080661666E+02  0.72461666116E+02  0.70000124825E+02 0.  0.
         12    1    1    2    0    0  0.69014169313E+01 -0.10236258698E+02  0.14080661666E+02  0.18726333884E+02  0.00000000000E+00 0. -1.
         11    1    3    3    0    0 -0.34808997766E+01 -0.77447143782E+01  0.74444022109E+01  0.11292315466E+02  0.51100000000E-03 0. -1.
        -11    1    3    3    0    0  0.12241902886E+02 -0.12935448317E+02  0.38429202109E+01  0.18219715844E+02  0.51100000000E-03 0.  1.
         12    1    3    3    0    0 -0.15662420041E+02  0.30916421393E+02 -0.25367984088E+02  0.42949634806E+02  0.00000000000E+00 0. -1.
</event>
<event>
 7    1  0.1692604E-013  0.7246111E+02  0.7816164E-02  0.1226709E+00
        -11   -1    0    0    0    0  0.00000000000E+00  0.00000000000E+00  0.45593999997E+02  0.45594000000E+02  0.51100000000E-03 0.  1.
         11   -1    0    0    0    0 -0.00000000000E+00 -0.00000000000E+00 -0.45593999997E+02  0.45594000000E+02  0.51100000000E-03 0. -1.
    9900012    2    1    2    0    0  0.18577922044E+01  0.17540848976E+02  0.62899586173E+01  0.72461111468E+02  0.69999402291E+02 0.  0.
         12    1    1    2    0    0 -0.18577922044E+01 -0.17540848976E+02 -0.62899586173E+01  0.18726888532E+02  0.00000000000E+00 0. -1.
         11    1    3    3    0    0 -0.12148527398E+00  0.80820741842E+01  0.29528216268E-01  0.80830411336E+01  0.51100000000E-03 0. -1.
        -11    1    3    3    0    0 -0.19056441153E+02  0.56668970572E+01  0.27704952020E+02  0.34100235165E+02  0.51100000000E-03 0.  1.
        -12    1    3    3    0    0  0.21035718631E+02  0.37918777345E+01 -0.21444521619E+02  0.30277835169E+02  0.00000000000E+00 0.  1.
</event>
<event>
 7    1  0.1692604E-013  0.7246157E+02  0.7816164E-02  0.1226708E+00
        -11   -1    0    0    0    0  0.00000000000E+00  0.00000000000E+00  0.45593999997E+02  0.45594000000E+02  0.51100000000E-03 0. -1.
         11   -1    0    0    0    0 -0.00000000000E+00 -0.00000000000E+00 -0.45593999997E+02  0.45594000000E+02  0.51100000000E-03 0.  1.
    9900012    2    1    2    0    0  0.55809929438E+01 -0.93548765215E+01 -0.15232135659E+02  0.72461570716E+02  0.70000000550E+02 0.  0.
         12    1    1    2    0    0 -0.55809929438E+01  0.93548765215E+01  0.15232135659E+02  0.18726429284E+02  0.00000000000E+00 0. -1.
         11    1    3    3    0    0  0.25288027795E+02 -0.95088881605E+01 -0.59309479449E+01  0.27660069551E+02  0.51100000000E-03 0. -1.
        -11    1    3    3    0    0  0.68344337047E+01  0.53019805812E+01 -0.14865306561E+02  0.17198773838E+02  0.51100000000E-03 0.  1.
        -12    1    3    3    0    0 -0.26541468556E+02 -0.51479689422E+01  0.55641188460E+01  0.27602727326E+02  0.00000000000E+00 0.  1.
</event>
<event>
 7    1  0.1692604E-013  0.7246156E+02  0.7816164E-02  0.1226708E+00
        -11   -1    0    0    0    0  0.00000000000E+00  0.00000000000E+00  0.45593999997E+02  0.45594000000E+02  0.51100000000E-03 0. -1.
         11   -1    0    0    0    0 -0.00000000000E+00 -0.00000000000E+00 -0.45593999997E+02  0.45594000000E+02  0.51100000000E-03 0.  1.
    9900012    2    1    2    0    0 -0.52690768363E+01 -0.10796505835E+02 -0.14364948613E+02  0.72461562603E+02  0.69999989980E+02 0.  0.
         12    1    1    2    0    0  0.52690768363E+01  0.10796505835E+02  0.14364948613E+02  0.18726437397E+02  0.00000000000E+00 0. -1.
         11    1    3    3    0    0  0.62460609168E+00 -0.96439219262E+01 -0.20172610812E+02  0.22368048420E+02  0.51100000000E-03 0. -1.
        -11    1    3    3    0    0  0.45587607859E+01 -0.70226345984E+01 -0.19975774438E+02  0.21659438156E+02  0.51100000000E-03 0.  1.
         12    1    3    3    0    0 -0.10452443714E+02  0.58700506892E+01  0.25783436637E+02  0.28434076026E+02  0.00000000000E+00 0. -1.
</event>
<event>
 7    1  0.1692604E-013  0.7246159E+02  0.7816164E-02  0.1226708E+00
        -11   -1    0    0    0    0  0.00000000000E+00  0.00000000000E+00  0.45593999997E+02  0.45594000000E+02  0.51100000000E-03 0. -1.
         11   -1    0    0    0    0 -0.00000000000E+00 -0.00000000000E+00 -0.45593999997E+02  0.45594000000E+02  0.51100000000E-03 0.  1.
    9900012    2    1    2    0    0 -0.15936705595E+02 -0.83391316181E+01 -0.52114042887E+01  0.72461589879E+02  0.70000025512E+02 0.  0.
         12    1    1    2    0    0  0.15936705595E+02  0.83391316181E+01  0.52114042887E+01  0.18726410121E+02  0.00000000000E+00 0. -1.
         11    1    3    3    0    0 -0.54539886556E+01  0.62114256460E+01  0.16983633556E+02  0.18888398816E+02  0.51100000000E-03 0.  1.
        -11    1    3    3    0    0  0.72988825202E+01 -0.24026735664E+02 -0.22328703084E+01  0.25209986568E+02  0.51100000000E-03 0. -1.
        -12    1    3    3    0    0 -0.17781599460E+02  0.94761783996E+01 -0.19962167537E+02  0.28363204494E+02  0.00000000000E+00 0.  1.
</event>
<event>
 7    1  0.1692604E-013  0.7246163E+02  0.7816164E-02  0.1226708E+00
        -11   -1    0    0    0    0  0.00000000000E+00  0.00000000000E+00  0.45593999997E+02  0.45594000000E+02  0.51100000000E-03 0. -1.
         11   -1    0    0    0    0 -0.00000000000E+00 -0.00000000000E+00 -0.45593999997E+02  0.45594000000E+02  0.51100000000E-03 0.  1.
    9900012    2    1    2    0    0  0.16739699756E+02 -0.78742231154E+01 -0.29079277606E+01  0.72461628716E+02  0.70000076106E+02 0.  0.
         12    1    1    2    0    0 -0.16739699756E+02  0.78742231154E+01  0.29079277606E+01  0.18726371284E+02  0.00000000000E+00 0. -1.
         11    1    3    3    0    0  0.20556659701E+02  0.17695579912E+01  0.73556711058E+01  0.21904645426E+02  0.51100000000E-03 0. -1.
        -11    1    3    3    0    0  0.18806802159E+02  0.67997354815E+01 -0.10501068442E+02  0.22587710126E+02  0.51100000000E-03 0.  1.
         12    1    3    3    0    0 -0.22623762104E+02 -0.16443516588E+02  0.23746957526E+00  0.27969273164E+02  0.00000000000E+00 0. -1.
</event>
<event>
 7    1  0.1692604E-013  0.7246159E+02  0.7816164E-02  0.1226708E+00
        -11   -1    0    0    0    0  0.00000000000E+00  0.00000000000E+00  0.45593999997E+02  0.45594000000E+02  0.51100000000E-03 0.  1.
         11   -1    0    0    0    0 -0.00000000000E+00 -0.00000000000E+00 -0.45593999997E+02  0.45594000000E+02  0.51100000000E-03 0. -1.
    9900012    2    1    2    0    0  0.82248063422E+01 -0.15452409954E+02 -0.66523578264E+01  0.72461594114E+02  0.70000031029E+02 0.  0.
         12    1    1    2    0    0 -0.82248063422E+01  0.15452409954E+02  0.66523578264E+01  0.18726405886E+02  0.00000000000E+00 0. -1.
         11    1    3    3    0    0  0.15230029426E+02 -0.24800745194E+02 -0.26546120306E+02  0.39391969512E+02  0.51100000000E-03 0. -1.
        -11    1    3    3    0    0  0.85123723153E+01  0.57810486136E+01  0.98482939666E+01  0.14243240496E+02  0.51100000000E-03 0.  1.
        -12    1    3    3    0    0 -0.15517595399E+02  0.35672866258E+01  0.10045468513E+02  0.18826384106E+02  0.00000000000E+00 0.  1.
</event>
<event>
 7    1  0.1692604E-013  0.7246152E+02  0.7816164E-02  0.1226708E+00
        -11   -1    0    0    0    0  0.00000000000E+00  0.00000000000E+00  0.45593999997E+02  0.45594000000E+02  0.51100000000E-03 0. -1.
         11   -1    0    0    0    0 -0.00000000000E+00 -0.00000000000E+00 -0.45593999997E+02  0.45594000000E+02  0.51100000000E-03 0.  1.
    9900012    2    1    2    0    0  0.21465328136E+00  0.17129321049E+02  0.75644859489E+01  0.72461517060E+02  0.69999930652E+02 0.  0.
         12    1    1    2    0    0 -0.21465328136E+00 -0.17129321049E+02 -0.75644859489E+01  0.18726482940E+02  0.00000000000E+00 0. -1.
         11    1    3    3    0    0 -0.15617142504E+00  0.19659870122E+02  0.34548937798E+02  0.39751276532E+02  0.51100000000E-03 0. -1.
        -11    1    3    3    0    0 -0.89064504596E+01 -0.68648560928E+00 -0.11445070249E+02  0.14518462575E+02  0.51100000000E-03 0.  1.
        -12    1    3    3    0    0  0.92772751660E+01 -0.18440634634E+01 -0.15539381600E+02  0.18191777952E+02  0.00000000000E+00 0.  1.
</event>
<event>
 7    1  0.1692604E-013  0.7246159E+02  0.7816164E-02  0.1226708E+00
        -11   -1    0    0    0    0  0.00000000000E+00  0.00000000000E+00  0.45593999997E+02  0.45594000000E+02  0.51100000000E-03 0. -1.
         11   -1    0    0    0    0 -0.00000000000E+00 -0.00000000000E+00 -0.45593999997E+02  0.45594000000E+02  0.51100000000E-03 0.  1.
    9900012    2    1    2    0    0 -0.12741063928E+02  0.19071195441E+01 -0.13590687196E+02  0.72461585676E+02  0.70000020038E+02 0.  0.
         12    1    1    2    0    0  0.12741063928E+02 -0.19071195441E+01  0.13590687196E+02  0.18726414324E+02  0.00000000000E+00 0. -1.
         11    1    3    3    0    0 -0.12264212321E+02  0.20006072367E+02 -0.23327171974E+02  0.33087925109E+02  0.51100000000E-03 0. -1.
        -11    1    3    3    0    0  0.34146535739E+01 -0.64821725692E+01 -0.12209838149E+02  0.14239331731E+02  0.51100000000E-03 0.  1.
         12    1    3    3    0    0 -0.38915051804E+01 -0.11616780254E+02  0.21946322927E+02  0.25134328837E+02  0.00000000000E+00 0. -1.
</event>
<event>
 7    1  0.1692604E-013  0.7246162E+02  0.7816164E-02  0.1226708E+00
        -11   -1    0    0    0    0  0.00000000000E+00  0.00000000000E+00  0.45593999997E+02  0.45594000000E+02  0.51100000000E-03 0.  1.
         11   -1    0    0    0    0 -0.00000000000E+00 -0.00000000000E+00 -0.45593999997E+02  0.45594000000E+02  0.51100000000E-03 0. -1.
    9900012    2    1    2    0    0 -0.25832525023E+01  0.11513259878E+02  0.14541280364E+02  0.72461623385E+02  0.70000069160E+02 0.  0.
         12    1    1    2    0    0  0.25832525023E+01 -0.11513259878E+02 -0.14541280364E+02  0.18726376615E+02  0.00000000000E+00 0. -1.
         11    1    3    3    0    0  0.89440950698E+01 -0.16078907887E+02  0.57852221419E+01  0.19287221442E+02  0.51100000000E-03 0. -1.
        -11    1    3    3    0    0 -0.23604780402E+02  0.16326905096E+01  0.19250217320E+01  0.23739356459E+02  0.51100000000E-03 0.  1.
        -12    1    3    3    0    0  0.12077432830E+02  0.25959477255E+02  0.68310364899E+01  0.29435045484E+02  0.00000000000E+00 0.  1.
</event>
<event>
 7    1  0.1692604E-013  0.7246157E+02  0.7816164E-02  0.1226708E+00
        -11   -1    0    0    0    0  0.00000000000E+00  0.00000000000E+00  0.45593999997E+02  0.45594000000E+02  0.51100000000E-03 0.  1.
         11   -1    0    0    0    0 -0.00000000000E+00 -0.00000000000E+00 -0.45593999997E+02  0.45594000000E+02  0.51100000000E-03 0. -1.
    9900012    2    1    2    0    0  0.87303551520E+01  0.16188972328E+02 -0.35181075889E+01  0.72461574630E+02  0.70000005648E+02 0.  0.
         12    1    1    2    0    0 -0.87303551520E+01 -0.16188972328E+02  0.35181075889E+01  0.18726425370E+02  0.00000000000E+00 0. -1.
         11    1    3    3    0    0  0.56281156928E+01 -0.23795945645E+02 -0.20206686047E+01  0.24535806839E+02  0.51100000000E-03 0. -1.
        -11    1    3    3    0    0  0.66883229218E+01  0.90335886408E+00  0.46577659332E+01  0.82002746596E+01  0.51100000000E-03 0.  1.
        -12    1    3    3    0    0 -0.35860834626E+01  0.39081559109E+02 -0.61552049174E+01  0.39725493132E+02  0.00000000000E+00 0.  1.
</event>
<event>
 7    1  0.1692604E-013  0.7246165E+02  0.7816164E-02  0.1226708E+00
        -11   -1    0    0    0    0  0.00000000000E+00  0.00000000000E+00  0.45593999997E+02  0.45594000000E+02  0.51100000000E-03 0. -1.
         11   -1    0    0    0    0 -0.00000000000E+00 -0.00000000000E+00 -0.45593999997E+02  0.45594000000E+02  0.51100000000E-03 0.  1.
    9900012    2    1    2    0    0 -0.15849987729E+02  0.91243909934E+01  0.40248729497E+01  0.72461648934E+02  0.70000102442E+02 0.  0.
         12    1    1    2    0    0  0.15849987729E+02 -0.91243909934E+01 -0.40248729497E+01  0.18726351066E+02  0.00000000000E+00 0. -1.
         11    1    3    3    0    0  0.39398016663E+01 -0.63671771666E+00  0.12257011724E+01  0.41749000282E+01  0.51100000000E-03 0. -1.
        -11    1    3    3    0    0 -0.52027861757E+01  0.23755852722E+02  0.27275148344E+02  0.36542348584E+02  0.51100000000E-03 0.  1.
         12    1    3    3    0    0 -0.14587003219E+02 -0.13994744012E+02 -0.24475976567E+02  0.31744400322E+02  0.00000000000E+00 0. -1.
</event>
<event>
 7    1  0.1692604E-013  0.7246153E+02  0.7816164E-02  0.1226708E+00
        -11   -1    0    0    0    0  0.00000000000E+00  0.00000000000E+00  0.45593999997E+02  0.45594000000E+02  0.51100000000E-03 0. -1.
         11   -1    0    0    0    0 -0.00000000000E+00 -0.00000000000E+00 -0.45593999997E+02  0.45594000000E+02  0.51100000000E-03 0.  1.
    9900012    2    1    2    0    0  0.44442283146E+01 -0.17988823016E+02 -0.27077343766E+01  0.72461528248E+02  0.69999945227E+02 0.  0.
         12    1    1    2    0    0 -0.44442283146E+01  0.17988823016E+02  0.27077343766E+01  0.18726471752E+02  0.00000000000E+00 0. -1.
         11    1    3    3    0    0  0.25535544111E+02 -0.20275381929E+02 -0.14762811230E+02  0.35792397532E+02  0.51100000000E-03 0. -1.
        -11    1    3    3    0    0 -0.18461587388E+02 -0.71487879988E+01 -0.16026772060E+01  0.19862123583E+02  0.51100000000E-03 0.  1.
        -12    1    3    3    0    0 -0.26297284092E+01  0.94353469114E+01  0.13657754059E+02  0.16807007133E+02  0.00000000000E+00 0.  1.
</event>
<event>
 7    1  0.1692604E-013  0.7246161E+02  0.7816164E-02  0.1226708E+00
        -11   -1    0    0    0    0  0.00000000000E+00  0.00000000000E+00  0.45593999997E+02  0.45594000000E+02  0.51100000000E-03 0.  1.
         11   -1    0    0    0    0 -0.00000000000E+00 -0.00000000000E+00 -0.45593999997E+02  0.45594000000E+02  0.51100000000E-03 0. -1.
    9900012    2    1    2    0    0 -0.10230324002E+02  0.46458225858E+01  0.14981141135E+02  0.72461607224E+02  0.70000048108E+02 0.  0.
         12    1    1    2    0    0  0.10230324002E+02 -0.46458225858E+01 -0.14981141135E+02  0.18726392776E+02  0.00000000000E+00 0. -1.
         11    1    3    3    0    0 -0.44415823086E+01  0.20283530322E+01  0.44661138890E+01  0.66172534301E+01  0.51100000000E-03 0. -1.
        -11    1    3    3    0    0 -0.13868368557E+02  0.30345705426E+02  0.15062740084E+02  0.36607097991E+02  0.51100000000E-03 0.  1.
         12    1    3    3    0    0  0.80796268635E+01 -0.27728235872E+02 -0.45477128377E+01  0.29237255803E+02  0.00000000000E+00 0. -1.
</event>
<event>
 7    1  0.1692604E-013  0.7246156E+02  0.7816164E-02  0.1226708E+00
        -11   -1    0    0    0    0  0.00000000000E+00  0.00000000000E+00  0.45593999997E+02  0.45594000000E+02  0.51100000000E-03 0. -1.
         11   -1    0    0    0    0 -0.00000000000E+00 -0.00000000000E+00 -0.45593999997E+02  0.45594000000E+02  0.51100000000E-03 0.  1.
    9900012    2    1    2    0    0  0.56126798638E+01 -0.17503100528E+02  0.35803537365E+01  0.72461557833E+02  0.69999983767E+02 0.  0.
         12    1    1    2    0    0 -0.56126798638E+01  0.17503100528E+02 -0.35803537365E+01  0.18726442167E+02  0.00000000000E+00 0. -1.
         11    1    3    3    0    0 -0.52540360538E+01  0.81477938671E+01 -0.10152210841E+02  0.14037764244E+02  0.51100000000E-03 0. -1.
        -11    1    3    3    0    0  0.44880050066E+01  0.65401853529E+01 -0.13580798441E+02  0.15727501389E+02  0.51100000000E-03 0.  1.
         12    1    3    3    0    0  0.63787109110E+01 -0.32191079748E+02  0.27313363018E+02  0.42696292200E+02  0.00000000000E+00 0. -1.
</event>
<event>
 7    1  0.1692604E-013  0.7246152E+02  0.7816164E-02  0.1226708E+00
        -11   -1    0    0    0    0  0.00000000000E+00  0.00000000000E+00  0.45593999997E+02  0.45594000000E+02  0.51100000000E-03 0. -1.
         11   -1    0    0    0    0 -0.00000000000E+00 -0.00000000000E+00 -0.45593999997E+02  0.45594000000E+02  0.51100000000E-03 0.  1.
    9900012    2    1    2    0    0 -0.10395915405E+02 -0.14393724307E+02  0.59520308535E+01  0.72461520678E+02  0.69999935365E+02 0.  0.
         12    1    1    2    0    0  0.10395915405E+02  0.14393724307E+02 -0.59520308535E+01  0.18726479322E+02  0.00000000000E+00 0. -1.
         11    1    3    3    0    0 -0.13718528747E+01 -0.19311799549E+01  0.29345942734E+00  0.23869551786E+01  0.51100000000E-03 0. -1.
        -11    1    3    3    0    0  0.73325801274E+01 -0.30296933480E+02  0.24302911345E+02  0.39525971332E+02  0.51100000000E-03 0.  1.
         12    1    3    3    0    0 -0.16356642658E+02  0.17834389128E+02 -0.18644339918E+02  0.30548594167E+02  0.00000000000E+00 0. -1.
</event>
<event>
 7    1  0.1692604E-013  0.7246156E+02  0.7816164E-02  0.1226708E+00
        -11   -1    0    0    0    0  0.00000000000E+00  0.00000000000E+00  0.45593999997E+02  0.45594000000E+02  0.51100000000E-03 0.  1.
         11   -1    0    0    0    0 -0.00000000000E+00 -0.00000000000E+00 -0.45593999997E+02  0.45594000000E+02  0.51100000000E-03 0. -1.
    9900012    2    1    2    0    0 -0.69832713245E+01  0.17004434350E+02 -0.35724920420E+01  0.72461559725E+02  0.69999986232E+02 0.  0.
         12    1    1    2    0    0  0.69832713245E+01 -0.17004434350E+02  0.35724920420E+01  0.18726440275E+02  0.00000000000E+00 0. -1.
         11    1    3    3    0    0 -0.77578769041E+01 -0.15949105105E+01 -0.82480351498E+01  0.11434967323E+02  0.51100000000E-03 0. -1.
        -11    1    3    3    0    0 -0.95680196622E+01  0.37762274008E+02  0.11915080980E+01  0.38973786451E+02  0.51100000000E-03 0.  1.
         12    1    3    3    0    0  0.10342625242E+02 -0.19162929147E+02  0.34840350098E+01  0.22052805951E+02  0.00000000000E+00 0. -1.
</event>
<event>
 7    1  0.1692604E-013  0.7246144E+02  0.7816164E-02  0.1226708E+00
        -11   -1    0    0    0    0  0.00000000000E+00  0.00000000000E+00  0.45593999997E+02  0.45594000000E+02  0.51100000000E-03 0.  1.
         11   -1    0    0    0    0 -0.00000000000E+00 -0.00000000000E+00 -0.45593999997E+02  0.45594000000E+02  0.51100000000E-03 0. -1.
    9900012    2    1    2    0    0  0.83464048324E+01 -0.16414853153E+02 -0.34020699758E+01  0.72461442447E+02  0.69999833455E+02 0.  0.
         12    1    1    2    0    0 -0.83464048324E+01  0.16414853153E+02  0.34020699758E+01  0.18726557553E+02  0.00000000000E+00 0. -1.
         11    1    3    3    0    0 -0.12700335953E+01  0.17242182389E+02 -0.20983132347E+02  0.27188190124E+02  0.51100000000E-03 0. -1.
        -11    1    3    3    0    0  0.40932642824E+01 -0.78889351457E+01 -0.53212377120E+01  0.10358845557E+02  0.51100000000E-03 0.  1.
        -12    1    3    3    0    0  0.55231741453E+01 -0.25768100397E+02  0.22902300083E+02  0.34914406766E+02  0.00000000000E+00 0.  1.
</event>
<event>
 7    1  0.1692604E-013  0.7246161E+02  0.7816164E-02  0.1226708E+00
        -11   -1    0    0    0    0  0.00000000000E+00  0.00000000000E+00  0.45593999997E+02  0.45594000000E+02  0.51100000000E-03 0.  1.
         11   -1    0    0    0    0 -0.00000000000E+00 -0.00000000000E+00 -0.45593999997E+02  0.45594000000E+02  0.51100000000E-03 0. -1.
    9900012    2    1    2    0    0 -0.18516721130E+01  0.48434740440E+01  0.17994161864E+02  0.72461607084E+02  0.70000047926E+02 0.  0.
         12    1    1    2    0    0  0.18516721130E+01 -0.48434740440E+01 -0.17994161864E+02  0.18726392916E+02  0.00000000000E+00 0. -1.
         11    1    3    3    0    0  0.23006490119E+02  0.21728518178E+01 -0.50738732863E+01  0.23659333528E+02  0.51100000000E-03 0. -1.
        -11    1    3    3    0    0 -0.44781412820E+00 -0.12271984467E+02  0.39062114844E+00  0.12286363392E+02  0.51100000000E-03 0.  1.
        -12    1    3    3    0    0 -0.24410348103E+02  0.14942606693E+02  0.22677414002E+02  0.36515910165E+02  0.00000000000E+00 0.  1.
</event>
<event>
 7    1  0.1692604E-013  0.7246154E+02  0.7816164E-02  0.1226708E+00
        -11   -1    0    0    0    0  0.00000000000E+00  0.00000000000E+00  0.45593999997E+02  0.45594000000E+02  0.51100000000E-03 0. -1.
         11   -1    0    0    0    0 -0.00000000000E+00 -0.00000000000E+00 -0.45593999997E+02  0.45594000000E+02  0.51100000000E-03 0.  1.
    9900012    2    1    2    0    0 -0.10339217518E+02 -0.56465989700E+01 -0.14556681305E+02  0.72461535587E+02  0.69999954787E+02 0.  0.
         12    1    1    2    0    0  0.10339217518E+02  0.56465989700E+01  0.14556681305E+02  0.18726464413E+02  0.00000000000E+00 0. -1.
         11    1    3    3    0    0  0.12224941567E+02 -0.99802930996E+01 -0.26243908351E+01  0.15998214719E+02  0.51100000000E-03 0. -1.
        -11    1    3    3    0    0 -0.32704215353E+01  0.89865198195E+00 -0.29770652301E+02  0.29963226980E+02  0.51100000000E-03 0.  1.
         12    1    3    3    0    0 -0.19293737550E+02  0.34350421477E+01  0.17838361831E+02  0.26500093887E+02  0.00000000000E+00 0. -1.
</event>
<event>
 7    1  0.1692604E-013  0.7246159E+02  0.7816164E-02  0.1226708E+00
        -11   -1    0    0    0    0  0.00000000000E+00  0.00000000000E+00  0.45593999997E+02  0.45594000000E+02  0.51100000000E-03 0.  1.
         11   -1    0    0    0    0 -0.00000000000E+00 -0.00000000000E+00 -0.45593999997E+02  0.45594000000E+02  0.51100000000E-03 0. -1.
    9900012    2    1    2    0    0  0.55794153780E+01 -0.12664026927E+02  0.12616299189E+02  0.72461589260E+02  0.70000024707E+02 0.  0.
         12    1    1    2    0    0 -0.55794153780E+01  0.12664026927E+02 -0.12616299189E+02  0.18726410740E+02  0.00000000000E+00 0. -1.
         11    1    3    3    0    0 -0.10317482801E+02  0.12653188758E+02  0.96294678937E+01  0.18954690429E+02  0.51100000000E-03 0. -1.
        -11    1    3    3    0    0  0.22716201329E+02 -0.15417482806E+02 -0.15445817745E+02  0.31500759752E+02  0.51100000000E-03 0.  1.
         12    1    3    3    0    0 -0.68193031501E+01 -0.98997328790E+01  0.18432649040E+02  0.22006139079E+02  0.00000000000E+00 0. -1.
</event>
<event>
 7    1  0.1692604E-013  0.7246155E+02  0.7816164E-02  0.1226708E+00
        -11   -1    0    0    0    0  0.00000000000E+00  0.00000000000E+00  0.45593999997E+02  0.45594000000E+02  0.51100000000E-03 0.  1.
         11   -1    0    0    0    0 -0.00000000000E+00 -0.00000000000E+00 -0.45593999997E+02  0.45594000000E+02  0.51100000000E-03 0. -1.
    9900012    2    1    2    0    0 -0.17737103227E+02 -0.30253689930E+01 -0.51886803286E+01  0.72461545665E+02  0.69999967915E+02 0.  0.
         12    1    1    2    0    0  0.17737103227E+02  0.30253689930E+01  0.51886803286E+01  0.18726454335E+02  0.00000000000E+00 0. -1.
         11    1    3    3    0    0  0.42829983296E+01  0.14248344324E+02 -0.15779862094E+02  0.21687863856E+02  0.51100000000E-03 0. -1.
        -11    1    3    3    0    0  0.55571621692E+01 -0.34522769898E+01 -0.11224508259E+02  0.12991914936E+02  0.51100000000E-03 0.  1.
        -12    1    3    3    0    0 -0.27577263726E+02 -0.13821436328E+02  0.21815690025E+02  0.37781766872E+02  0.00000000000E+00 0.  1.
</event>
<event>
 7    1  0.1692604E-013  0.7246161E+02  0.7816164E-02  0.1226708E+00
        -11   -1    0    0    0    0  0.00000000000E+00  0.00000000000E+00  0.45593999997E+02  0.45594000000E+02  0.51100000000E-03 0. -1.
         11   -1    0    0    0    0 -0.00000000000E+00 -0.00000000000E+00 -0.45593999997E+02  0.45594000000E+02  0.51100000000E-03 0.  1.
    9900012    2    1    2    0    0 -0.64503473711E+01 -0.17136206382E+01 -0.17496688682E+02  0.72461612421E+02  0.70000054878E+02 0.  0.
         12    1    1    2    0    0  0.64503473711E+01  0.17136206382E+01  0.17496688682E+02  0.18726387579E+02  0.00000000000E+00 0. -1.
         11    1    3    3    0    0 -0.16253554377E+02 -0.12160811762E+02 -0.24470567555E+02  0.31794214085E+02  0.51100000000E-03 0. -1.
        -11    1    3    3    0    0 -0.52290769142E+01  0.14049669696E+02 -0.97585195638E+01  0.17887570217E+02  0.51100000000E-03 0.  1.
         12    1    3    3    0    0  0.15032283920E+02 -0.36024785716E+01  0.16732398436E+02  0.22779828119E+02  0.00000000000E+00 0. -1.
</event>
<event>
 7    1  0.1692604E-013  0.7246156E+02  0.7816164E-02  0.1226708E+00
        -11   -1    0    0    0    0  0.00000000000E+00  0.00000000000E+00  0.45593999997E+02  0.45594000000E+02  0.51100000000E-03 0.  1.
         11   -1    0    0    0    0 -0.00000000000E+00 -0.00000000000E+00 -0.45593999997E+02  0.45594000000E+02  0.51100000000E-03 0. -1.
    9900012    2    1    2    0    0  0.17351600809E+01  0.15663076638E+02  0.10116157957E+02  0.72461564085E+02  0.69999991911E+02 0.  0.
         12    1    1    2    0    0 -0.17351600809E+01 -0.15663076638E+02 -0.10116157957E+02  0.18726435915E+02  0.00000000000E+00 0. -1.
         11    1    3    3    0    0  0.28120601269E+02  0.98663315231E+01 -0.57370103139E+01  0.30348410190E+02  0.51100000000E-03 0. -1.
        -11    1    3    3    0    0 -0.47567383645E+01  0.12293297085E+02 -0.19908095174E+01  0.13330980304E+02  0.51100000000E-03 0.  1.
        -12    1    3    3    0    0 -0.21628702823E+02 -0.64965519694E+01  0.17843977788E+02  0.28782173591E+02  0.00000000000E+00 0.  1.
</event>
<event>
 7    1  0.1692604E-013  0.7246158E+02  0.7816164E-02  0.1226708E+00
        -11   -1    0    0    0    0  0.00000000000E+00  0.00000000000E+00  0.45593999997E+02  0.45594000000E+02  0.51100000000E-03 0. -1.
         11   -1    0    0    0    0 -0.00000000000E+00 -0.00000000000E+00 -0.45593999997E+02  0.45594000000E+02  0.51100000000E-03 0.  1.
    9900012    2    1    2    0    0  0.55232711396E+01 -0.11540674865E+02 -0.13674248323E+02  0.72461581025E+02  0.70000013979E+02 0.  0.
         12    1    1    2    0    0 -0.55232711396E+01  0.11540674865E+02  0.13674248323E+02  0.18726418975E+02  0.00000000000E+00 0. -1.
         11    1    3    3    0    0 -0.11918942571E+01 -0.90953009884E+01  0.15269070756E+02  0.17812625691E+02  0.51100000000E-03 0. -1.
        -11    1    3    3    0    0 -0.17643746262E+02 -0.10623750398E+02 -0.14315049745E+02  0.25081596922E+02  0.51100000000E-03 0.  1.
         12    1    3    3    0    0  0.24358911659E+02  0.81783765212E+01 -0.14628269334E+02  0.29567358412E+02  0.00000000000E+00 0. -1.
</event>
<event>
 7    1  0.1692604E-013  0.7246165E+02  0.7816164E-02  0.1226708E+00
        -11   -1    0    0    0    0  0.00000000000E+00  0.00000000000E+00  0.45593999997E+02  0.45594000000E+02  0.51100000000E-03 0. -1.
         11   -1    0    0    0    0 -0.00000000000E+00 -0.00000000000E+00 -0.45593999997E+02  0.45594000000E+02  0.51100000000E-03 0.  1.
    9900012    2    1    2    0    0  0.13480065570E+02  0.18524433720E+01 -0.12865944381E+02  0.72461648539E+02  0.70000101928E+02 0.  0.
         12    1    1    2    0    0 -0.13480065570E+02 -0.18524433720E+01  0.12865944381E+02  0.18726351461E+02  0.00000000000E+00 0. -1.
         11    1    3    3    0    0  0.32512010429E+02 -0.10450904988E+02 -0.14000958498E+02  0.36909064961E+02  0.51100000000E-03 0. -1.
        -11    1    3    3    0    0  0.55779042031E+01  0.71754869416E+01  0.45833112357E+01  0.10178770569E+02  0.51100000000E-03 0.  1.
        -12    1    3    3    0    0 -0.24609849062E+02  0.51278614184E+01 -0.34482971189E+01  0.25373813009E+02  0.00000000000E+00 0.  1.
</event>
<event>
 7    1  0.1692604E-013  0.7246156E+02  0.7816164E-02  0.1226708E+00
        -11   -1    0    0    0    0  0.00000000000E+00  0.00000000000E+00  0.45593999997E+02  0.45594000000E+02  0.51100000000E-03 0.  1.
         11   -1    0    0    0    0 -0.00000000000E+00 -0.00000000000E+00 -0.45593999997E+02  0.45594000000E+02  0.51100000000E-03 0. -1.
    9900012    2    1    2    0    0  0.82340613794E+01 -0.93026418706E+01  0.14012161055E+02  0.72461559601E+02  0.69999986070E+02 0.  0.
         12    1    1    2    0    0 -0.82340613794E+01  0.93026418706E+01 -0.14012161055E+02  0.18726440399E+02  0.00000000000E+00 0. -1.
         11    1    3    3    0    0  0.15588799618E+01 -0.18076079245E+02  0.11798015256E+02  0.21641809348E+02  0.51100000000E-03 0.  1.
        -11    1    3    3    0    0 -0.90245573252E+01 -0.77914221496E+01  0.19040163467E+02  0.22465010998E+02  0.51100000000E-03 0. -1.
         12    1    3    3    0    0  0.15699738743E+02  0.16564859524E+02 -0.16826017669E+02  0.28354739255E+02  0.00000000000E+00 0. -1.
</event>
<event>
 7    1  0.1692604E-013  0.7246157E+02  0.7816164E-02  0.1226708E+00
        -11   -1    0    0    0    0  0.00000000000E+00  0.00000000000E+00  0.45593999997E+02  0.45594000000E+02  0.51100000000E-03 0.  1.
         11   -1    0    0    0    0 -0.00000000000E+00 -0.00000000000E+00 -0.45593999997E+02  0.45594000000E+02  0.51100000000E-03 0. -1.
    9900012    2    1    2    0    0 -0.16190622968E+02 -0.54448247550E+01  0.76744182768E+01  0.72461572562E+02  0.70000002954E+02 0.  0.
         12    1    1    2    0    0  0.16190622968E+02  0.54448247550E+01 -0.76744182768E+01  0.18726427438E+02  0.00000000000E+00 0. -1.
         11    1    3    3    0    0 -0.56609201173E+01  0.26447833604E+01  0.41004259298E+01  0.74735793743E+01  0.51100000000E-03 0. -1.
        -11    1    3    3    0    0 -0.16918768407E+02 -0.31360878306E+02  0.14533750485E+02  0.38483494072E+02  0.51100000000E-03 0.  1.
         12    1    3    3    0    0  0.63890655569E+01  0.23271270190E+02 -0.10959758138E+02  0.26504499116E+02  0.00000000000E+00 0. -1.
</event>
<event>
 7    1  0.1692604E-013  0.7246155E+02  0.7816164E-02  0.1226708E+00
        -11   -1    0    0    0    0  0.00000000000E+00  0.00000000000E+00  0.45593999997E+02  0.45594000000E+02  0.51100000000E-03 0.  1.
         11   -1    0    0    0    0 -0.00000000000E+00 -0.00000000000E+00 -0.45593999997E+02  0.45594000000E+02  0.51100000000E-03 0. -1.
    9900012    2    1    2    0    0  0.74367312102E+01 -0.11861411013E+02  0.12437124729E+02  0.72461545081E+02  0.69999967155E+02 0.  0.
         12    1    1    2    0    0 -0.74367312102E+01  0.11861411013E+02 -0.12437124729E+02  0.18726454919E+02  0.00000000000E+00 0. -1.
         11    1    3    3    0    0 -0.10592440723E+02 -0.13652196809E+01  0.78921402759E+01  0.13279665043E+02  0.51100000000E-03 0. -1.
        -11    1    3    3    0    0 -0.12059246462E+01 -0.20144506658E+02  0.23166894093E+02  0.30723938305E+02  0.51100000000E-03 0.  1.
        -12    1    3    3    0    0  0.19235096580E+02  0.96483153267E+01 -0.18621909640E+02  0.28457941734E+02  0.00000000000E+00 0.  1.
</event>
<event>
 7    1  0.1692604E-013  0.7246157E+02  0.7816164E-02  0.1226708E+00
        -11   -1    0    0    0    0  0.00000000000E+00  0.00000000000E+00  0.45593999997E+02  0.45594000000E+02  0.51100000000E-03 0.  1.
         11   -1    0    0    0    0 -0.00000000000E+00 -0.00000000000E+00 -0.45593999997E+02  0.45594000000E+02  0.51100000000E-03 0. -1.
    9900012    2    1    2    0    0  0.22284212357E+01 -0.76225836933E+01  0.16959052466E+02  0.72461572046E+02  0.70000002282E+02 0.  0.
         12    1    1    2    0    0 -0.22284212357E+01  0.76225836933E+01 -0.16959052466E+02  0.18726427954E+02  0.00000000000E+00 0. -1.
         11    1    3    3    0    0 -0.15741429039E+02 -0.24411832087E+02  0.29084539072E+01  0.29192280460E+02  0.51100000000E-03 0. -1.
        -11    1    3    3    0    0 -0.89811771655E+01  0.50607255246E+01 -0.79688803158E+00  0.10339609127E+02  0.51100000000E-03 0.  1.
        -12    1    3    3    0    0  0.26951027440E+02  0.11728522870E+02  0.14847486590E+02  0.32929682459E+02  0.00000000000E+00 0.  1.
</event>
<event>
 7    1  0.1692604E-013  0.7246158E+02  0.7816164E-02  0.1226708E+00
        -11   -1    0    0    0    0  0.00000000000E+00  0.00000000000E+00  0.45593999997E+02  0.45594000000E+02  0.51100000000E-03 0. -1.
         11   -1    0    0    0    0 -0.00000000000E+00 -0.00000000000E+00 -0.45593999997E+02  0.45594000000E+02  0.51100000000E-03 0.  1.
    9900012    2    1    2    0    0  0.97010062799E+01  0.10096834849E+02 -0.12434759217E+02  0.72461579264E+02  0.70000011684E+02 0.  0.
         12    1    1    2    0    0 -0.97010062799E+01 -0.10096834849E+02  0.12434759217E+02  0.18726420736E+02  0.00000000000E+00 0. -1.
         11    1    3    3    0    0  0.22110473019E+02  0.90429552661E+01  0.34730539788E-01  0.23888266231E+02  0.51100000000E-03 0. -1.
        -11    1    3    3    0    0  0.14973101200E+02  0.98474175175E+01 -0.73083049379E+01  0.19353984412E+02  0.51100000000E-03 0.  1.
         12    1    3    3    0    0 -0.27382567938E+02 -0.87935379343E+01 -0.51611848188E+01  0.29219328620E+02  0.00000000000E+00 0. -1.
</event>
<event>
 7    1  0.1692604E-013  0.7246158E+02  0.7816164E-02  0.1226708E+00
        -11   -1    0    0    0    0  0.00000000000E+00  0.00000000000E+00  0.45593999997E+02  0.45594000000E+02  0.51100000000E-03 0. -1.
         11   -1    0    0    0    0 -0.00000000000E+00 -0.00000000000E+00 -0.45593999997E+02  0.45594000000E+02  0.51100000000E-03 0.  1.
    9900012    2    1    2    0    0 -0.16161377419E+02  0.46081441599E+01 -0.82615792901E+01  0.72461580026E+02  0.70000012677E+02 0.  0.
         12    1    1    2    0    0  0.16161377419E+02 -0.46081441599E+01  0.82615792901E+01  0.18726419974E+02  0.00000000000E+00 0. -1.
         11    1    3    3    0    0 -0.33543606796E+02 -0.16166433026E+02 -0.19471755493E+01  0.37286976367E+02  0.51100000000E-03 0. -1.
        -11    1    3    3    0    0  0.76027294213E+01 -0.79484407224E+00 -0.84513054985E+01  0.11395518270E+02  0.51100000000E-03 0.  1.
        -12    1    3    3    0    0  0.97794999562E+01  0.21569421258E+02  0.21369017578E+01  0.23779085389E+02  0.00000000000E+00 0.  1.
</event>
<event>
 7    1  0.1692604E-013  0.7246163E+02  0.7816164E-02  0.1226708E+00
        -11   -1    0    0    0    0  0.00000000000E+00  0.00000000000E+00  0.45593999997E+02  0.45594000000E+02  0.51100000000E-03 0. -1.
         11   -1    0    0    0    0 -0.00000000000E+00 -0.00000000000E+00 -0.45593999997E+02  0.45594000000E+02  0.51100000000E-03 0.  1.
    9900012    2    1    2    0    0  0.26636987262E+01 -0.15834998976E+02 -0.96350617145E+01  0.72461630952E+02  0.70000079018E+02 0.  0.
         12    1    1    2    0    0 -0.26636987262E+01  0.15834998976E+02  0.96350617145E+01  0.18726369048E+02  0.00000000000E+00 0. -1.
         11    1    3    3    0    0  0.15903397013E+02 -0.11360628493E+02 -0.19324760724E+02  0.27485055823E+02  0.51100000000E-03 0. -1.
        -11    1    3    3    0    0 -0.87979854445E+01 -0.19462918781E+02  0.17396583022E+02  0.27547247711E+02  0.51100000000E-03 0.  1.
         12    1    3    3    0    0 -0.44417128418E+01  0.14988548298E+02 -0.77068840128E+01  0.17429327418E+02  0.00000000000E+00 0. -1.
</event>
<event>
 7    1  0.1692604E-013  0.7246158E+02  0.7816164E-02  0.1226708E+00
        -11   -1    0    0    0    0  0.00000000000E+00  0.00000000000E+00  0.45593999997E+02  0.45594000000E+02  0.51100000000E-03 0. -1.
         11   -1    0    0    0    0 -0.00000000000E+00 -0.00000000000E+00 -0.45593999997E+02  0.45594000000E+02  0.51100000000E-03 0.  1.
    9900012    2    1    2    0    0  0.83985848246E+01 -0.16694611924E+00 -0.16736631056E+02  0.72461577032E+02  0.70000008777E+02 0.  0.
         12    1    1    2    0    0 -0.83985848246E+01  0.16694611924E+00  0.16736631056E+02  0.18726422968E+02  0.00000000000E+00 0. -1.
         11    1    3    3    0    0  0.43667250486E+01  0.11158499411E+02  0.99339175457E+01  0.15564803719E+02  0.51100000000E-03 0. -1.
        -11    1    3    3    0    0  0.23359191340E+02  0.61566605547E+01 -0.13975488030E+02  0.27908252456E+02  0.51100000000E-03 0.  1.
        -12    1    3    3    0    0 -0.19327331564E+02 -0.17482106085E+02 -0.12695060572E+02  0.28988520857E+02  0.00000000000E+00 0.  1.
</event>
<event>
 8    1  0.1692604E-013  0.7246151E+02  0.7816164E-02  0.1226708E+00
        -11   -1    0    0    0    0  0.00000000000E+00  0.00000000000E+00  0.45593999997E+02  0.45594000000E+02  0.51100000000E-03 0.  1.
         11   -1    0    0    0    0 -0.00000000000E+00 -0.00000000000E+00 -0.45593999997E+02  0.45594000000E+02  0.51100000000E-03 0. -1.
    9900012    2    1    2    0    0  0.12614996291E+02 -0.67876414550E+01  0.12061151216E+02  0.72461506025E+02  0.69999916277E+02 0.  0.
         23    2    3    3    0    0 -0.84996771791E+00 -0.70862396415E+01  0.71203791373E+00  0.54849101607E+02  0.54378117949E+02 0.  0.
         12    1    1    2    0    0 -0.12614996291E+02  0.67876414550E+01 -0.12061151216E+02  0.18726493975E+02  0.00000000000E+00 0. -1.
         11    1    4    4    0    0  0.61512665776E+01  0.39413162734E+01  0.25664696006E+02  0.26684240214E+02  0.51100000000E-03 0.  1.
        -11    1    4    4    0    0 -0.70012342955E+01 -0.11027555915E+02 -0.24952658092E+02  0.28164861392E+02  0.51100000000E-03 0. -1.
         12    1    3    3    0    0  0.13464964009E+02  0.29859818651E+00  0.11349113303E+02  0.17612404418E+02  0.00000000000E+00 0. -1.
</event>
<event>
 7    1  0.1692604E-013  0.7246162E+02  0.7816164E-02  0.1226708E+00
        -11   -1    0    0    0    0  0.00000000000E+00  0.00000000000E+00  0.45593999997E+02  0.45594000000E+02  0.51100000000E-03 0.  1.
         11   -1    0    0    0    0 -0.00000000000E+00 -0.00000000000E+00 -0.45593999997E+02  0.45594000000E+02  0.51100000000E-03 0. -1.
    9900012    2    1    2    0    0 -0.12034652735E+02  0.49273020299E+01  0.13474647660E+02  0.72461620176E+02  0.70000064980E+02 0.  0.
         12    1    1    2    0    0  0.12034652735E+02 -0.49273020299E+01 -0.13474647660E+02  0.18726379824E+02  0.00000000000E+00 0. -1.
         11    1    3    3    0    0 -0.25116107316E+02 -0.11491398828E+01  0.11694438798E+02  0.27729032948E+02  0.51100000000E-03 0. -1.
        -11    1    3    3    0    0 -0.12791234404E+02 -0.46972778810E+01  0.83036805506E+01  0.15957167920E+02  0.51100000000E-03 0.  1.
         12    1    3    3    0    0  0.25872688985E+02  0.10773719794E+02 -0.65234716888E+01  0.28775419308E+02  0.00000000000E+00 0. -1.
</event>
<event>
 7    1  0.1692604E-013  0.7246157E+02  0.7816164E-02  0.1226708E+00
        -11   -1    0    0    0    0  0.00000000000E+00  0.00000000000E+00  0.45593999997E+02  0.45594000000E+02  0.51100000000E-03 0. -1.
         11   -1    0    0    0    0 -0.00000000000E+00 -0.00000000000E+00 -0.45593999997E+02  0.45594000000E+02  0.51100000000E-03 0.  1.
    9900012    2    1    2    0    0 -0.15871873335E+02  0.88920443363E+01 -0.44378269956E+01  0.72461571508E+02  0.70000001581E+02 0.  0.
         12    1    1    2    0    0  0.15871873335E+02 -0.88920443363E+01  0.44378269956E+01  0.18726428492E+02  0.00000000000E+00 0. -1.
         11    1    3    3    0    0 -0.79156031655E+01 -0.80731326823E+01 -0.58815127106E+01  0.12744584607E+02  0.51100000000E-03 0. -1.
        -11    1    3    3    0    0  0.20125469341E+02 -0.78101059215E+01  0.48107295643E+01  0.22117309735E+02  0.51100000000E-03 0.  1.
         12    1    3    3    0    0 -0.28081739510E+02  0.24775282940E+02 -0.33670438493E+01  0.37599677166E+02  0.00000000000E+00 0. -1.
</event>
<event>
 7    1  0.1692604E-013  0.7246150E+02  0.7816164E-02  0.1226708E+00
        -11   -1    0    0    0    0  0.00000000000E+00  0.00000000000E+00  0.45593999997E+02  0.45594000000E+02  0.51100000000E-03 0.  1.
         11   -1    0    0    0    0 -0.00000000000E+00 -0.00000000000E+00 -0.45593999997E+02  0.45594000000E+02  0.51100000000E-03 0. -1.
    9900012    2    1    2    0    0  0.83471837890E+01  0.11094586388E+02  0.12566483587E+02  0.72461499150E+02  0.69999907322E+02 0.  0.
         12    1    1    2    0    0 -0.83471837890E+01 -0.11094586388E+02 -0.12566483587E+02  0.18726500850E+02  0.00000000000E+00 0. -1.
         11    1    3    3    0    0  0.92649193466E+01  0.18302127443E+02 -0.83468779072E+01  0.22146714666E+02  0.51100000000E-03 0. -1.
        -11    1    3    3    0    0  0.66824320428E+01  0.16826618328E+02  0.89743689280E+00  0.18127199883E+02  0.51100000000E-03 0.  1.
         12    1    3    3    0    0 -0.76001676004E+01 -0.24034159383E+02  0.20015924602E+02  0.32187584601E+02  0.00000000000E+00 0. -1.
</event>
<event>
 7    1  0.1692604E-013  0.7246162E+02  0.7816164E-02  0.1226708E+00
        -11   -1    0    0    0    0  0.00000000000E+00  0.00000000000E+00  0.45593999997E+02  0.45594000000E+02  0.51100000000E-03 0. -1.
         11   -1    0    0    0    0 -0.00000000000E+00 -0.00000000000E+00 -0.45593999997E+02  0.45594000000E+02  0.51100000000E-03 0.  1.
    9900012    2    1    2    0    0  0.13885073058E+02  0.89567537251E+01 -0.88124100538E+01  0.72461621224E+02  0.70000066345E+02 0.  0.
         12    1    1    2    0    0 -0.13885073058E+02 -0.89567537251E+01  0.88124100538E+01  0.18726378776E+02  0.00000000000E+00 0. -1.
         11    1    3    3    0    0 -0.76177397557E+01  0.17010962871E+02  0.18100792721E+01  0.18726430627E+02  0.51100000000E-03 0. -1.
        -11    1    3    3    0    0  0.61183145533E+01  0.63880703221E+00 -0.28168930786E+02  0.28832802661E+02  0.51100000000E-03 0.  1.
         12    1    3    3    0    0  0.15384498260E+02 -0.86930161783E+01  0.17546441460E+02  0.24902387936E+02  0.00000000000E+00 0. -1.
</event>
<event>
 7    1  0.1692604E-013  0.7246144E+02  0.7816164E-02  0.1226708E+00
        -11   -1    0    0    0    0  0.00000000000E+00  0.00000000000E+00  0.45593999997E+02  0.45594000000E+02  0.51100000000E-03 0.  1.
         11   -1    0    0    0    0 -0.00000000000E+00 -0.00000000000E+00 -0.45593999997E+02  0.45594000000E+02  0.51100000000E-03 0. -1.
    9900012    2    1    2    0    0 -0.58120316892E+01 -0.17707087986E+02  0.18339592015E+01  0.72461439087E+02  0.69999829077E+02 0.  0.
         12    1    1    2    0    0  0.58120316892E+01  0.17707087986E+02 -0.18339592015E+01  0.18726560913E+02  0.00000000000E+00 0. -1.
         11    1    3    3    0    0 -0.79307893889E-01  0.14066369401E+02  0.10782281258E+02  0.17723617781E+02  0.51100000000E-03 0. -1.
        -11    1    3    3    0    0  0.13381587031E+02 -0.26538593896E+02 -0.15935557915E+02  0.33723965422E+02  0.51100000000E-03 0.  1.
         12    1    3    3    0    0 -0.19114310827E+02 -0.52348634915E+01  0.69872358585E+01  0.21013855884E+02  0.00000000000E+00 0. -1.
</event>
<event>
 7    1  0.1692604E-013  0.7246158E+02  0.7816164E-02  0.1226708E+00
        -11   -1    0    0    0    0  0.00000000000E+00  0.00000000000E+00  0.45593999997E+02  0.45594000000E+02  0.51100000000E-03 0.  1.
         11   -1    0    0    0    0 -0.00000000000E+00 -0.00000000000E+00 -0.45593999997E+02  0.45594000000E+02  0.51100000000E-03 0. -1.
    9900012    2    1    2    0    0  0.79471010379E+01 -0.16890467936E+02 -0.14947739838E+01  0.72461583598E+02  0.70000017331E+02 0.  0.
         12    1    1    2    0    0 -0.79471010379E+01  0.16890467936E+02  0.14947739838E+01  0.18726416402E+02  0.00000000000E+00 0. -1.
         11    1    3    3    0    0  0.26517275813E+02  0.86223637315E+01  0.76974836215E+01  0.28926844405E+02  0.51100000000E-03 0. -1.
        -11    1    3    3    0    0  0.40845425427E+01  0.27282500430E+01  0.24698646054E+01  0.54979148330E+01  0.51100000000E-03 0.  1.
        -12    1    3    3    0    0 -0.22654717318E+02 -0.28241081710E+02 -0.11662122211E+02  0.38036824360E+02  0.00000000000E+00 0.  1.
</event>
<event>
 7    1  0.1692604E-013  0.7246161E+02  0.7816164E-02  0.1226708E+00
        -11   -1    0    0    0    0  0.00000000000E+00  0.00000000000E+00  0.45593999997E+02  0.45594000000E+02  0.51100000000E-03 0. -1.
         11   -1    0    0    0    0 -0.00000000000E+00 -0.00000000000E+00 -0.45593999997E+02  0.45594000000E+02  0.51100000000E-03 0.  1.
    9900012    2    1    2    0    0 -0.13447867892E+02 -0.39069176162E+00 -0.13026125087E+02  0.72461608845E+02  0.70000050220E+02 0.  0.
         12    1    1    2    0    0  0.13447867892E+02  0.39069176162E+00  0.13026125087E+02  0.18726391155E+02  0.00000000000E+00 0. -1.
         11    1    3    3    0    0 -0.11427830604E+02  0.10013765014E+02 -0.27796828235E+01  0.15446599592E+02  0.51100000000E-03 0. -1.
        -11    1    3    3    0    0 -0.23684393763E+02  0.10632190934E+01  0.94976759199E+01  0.25539905852E+02  0.51100000000E-03 0.  1.
        -12    1    3    3    0    0  0.21664356476E+02 -0.11467675869E+02 -0.19744118183E+02  0.31475103402E+02  0.00000000000E+00 0.  1.
</event>
<event>
 7    1  0.1692604E-013  0.7246154E+02  0.7816164E-02  0.1226708E+00
        -11   -1    0    0    0    0  0.00000000000E+00  0.00000000000E+00  0.45593999997E+02  0.45594000000E+02  0.51100000000E-03 0.  1.
         11   -1    0    0    0    0 -0.00000000000E+00 -0.00000000000E+00 -0.45593999997E+02  0.45594000000E+02  0.51100000000E-03 0. -1.
    9900012    2    1    2    0    0  0.10735948610E+02  0.15340894910E+02 -0.27702711804E+00  0.72461537621E+02  0.69999957437E+02 0.  0.
         12    1    1    2    0    0 -0.10735948610E+02 -0.15340894910E+02  0.27702711804E+00  0.18726462379E+02  0.00000000000E+00 0. -1.
         11    1    3    3    0    0  0.22357529894E+02  0.99758412686E+01  0.16491399863E+02  0.29518516590E+02  0.51100000000E-03 0. -1.
        -11    1    3    3    0    0  0.60812953238E+01  0.83363183260E+01  0.75006405858E+01  0.12756800755E+02  0.51100000000E-03 0.  1.
         12    1    3    3    0    0 -0.17702876607E+02 -0.29712646849E+01 -0.24269067567E+02  0.30186220276E+02  0.00000000000E+00 0. -1.
</event>
<event>
 7    1  0.1692604E-013  0.7246168E+02  0.7816164E-02  0.1226708E+00
        -11   -1    0    0    0    0  0.00000000000E+00  0.00000000000E+00  0.45593999997E+02  0.45594000000E+02  0.51100000000E-03 0.  1.
         11   -1    0    0    0    0 -0.00000000000E+00 -0.00000000000E+00 -0.45593999997E+02  0.45594000000E+02  0.51100000000E-03 0. -1.
    9900012    2    1    2    0    0  0.17642555906E+02  0.57377321165E+01 -0.25482853077E+01  0.72461678772E+02  0.70000141312E+02 0.  0.
         12    1    1    2    0    0 -0.17642555906E+02 -0.57377321165E+01  0.25482853077E+01  0.18726321228E+02  0.00000000000E+00 0. -1.
         11    1    3    3    0    0  0.74176359700E+01 -0.51601354997E+01 -0.16132550095E+02  0.18490740780E+02  0.51100000000E-03 0. -1.
        -11    1    3    3    0    0  0.15138496150E+02 -0.17655883526E+02  0.57795436511E+01  0.23964711846E+02  0.51100000000E-03 0.  1.
        -12    1    3    3    0    0 -0.49135762142E+01  0.28553751142E+02  0.78047211364E+01  0.30006226146E+02  0.00000000000E+00 0.  1.
</event>
<event>
 7    1  0.1692604E-013  0.7246160E+02  0.7816164E-02  0.1226708E+00
        -11   -1    0    0    0    0  0.00000000000E+00  0.00000000000E+00  0.45593999997E+02  0.45594000000E+02  0.51100000000E-03 0. -1.
         11   -1    0    0    0    0 -0.00000000000E+00 -0.00000000000E+00 -0.45593999997E+02  0.45594000000E+02  0.51100000000E-03 0.  1.
    9900012    2    1    2    0    0  0.66519054159E+00 -0.17515356377E+02 -0.65914913566E+01  0.72461602969E+02  0.70000042564E+02 0.  0.
         12    1    1    2    0    0 -0.66519054159E+00  0.17515356377E+02  0.65914913566E+01  0.18726397031E+02  0.00000000000E+00 0. -1.
         11    1    3    3    0    0  0.19303263030E+02  0.69022678927E+01  0.23638441556E+01  0.20636012820E+02  0.51100000000E-03 0. -1.
        -11    1    3    3    0    0 -0.10588781535E+02  0.88587819440E+01  0.52351946762E+01  0.14765079596E+02  0.51100000000E-03 0.  1.
        -12    1    3    3    0    0 -0.80492909532E+01 -0.33276406214E+02 -0.14190530188E+02  0.37060510552E+02  0.00000000000E+00 0.  1.
</event>
<event>
 7    1  0.1692604E-013  0.7246154E+02  0.7816164E-02  0.1226708E+00
        -11   -1    0    0    0    0  0.00000000000E+00  0.00000000000E+00  0.45593999997E+02  0.45594000000E+02  0.51100000000E-03 0.  1.
         11   -1    0    0    0    0 -0.00000000000E+00 -0.00000000000E+00 -0.45593999997E+02  0.45594000000E+02  0.51100000000E-03 0. -1.
    9900012    2    1    2    0    0  0.79251652338E+01  0.97368646212E+01  0.13894808262E+02  0.72461535484E+02  0.69999954653E+02 0.  0.
         12    1    1    2    0    0 -0.79251652338E+01 -0.97368646212E+01 -0.13894808262E+02  0.18726464516E+02  0.00000000000E+00 0. -1.
         11    1    3    3    0    0  0.90471931961E+01  0.16217541129E+02  0.46647033935E+01  0.19147318428E+02  0.51100000000E-03 0. -1.
        -11    1    3    3    0    0 -0.76293295395E+01  0.88047616838E+01 -0.17985299947E+02  0.21428987657E+02  0.51100000000E-03 0.  1.
        -12    1    3    3    0    0  0.65073015772E+01 -0.15285438191E+02  0.27215404816E+02  0.31885229399E+02  0.00000000000E+00 0.  1.
</event>
<event>
 7    1  0.1692604E-013  0.7246154E+02  0.7816164E-02  0.1226708E+00
        -11   -1    0    0    0    0  0.00000000000E+00  0.00000000000E+00  0.45593999997E+02  0.45594000000E+02  0.51100000000E-03 0.  1.
         11   -1    0    0    0    0 -0.00000000000E+00 -0.00000000000E+00 -0.45593999997E+02  0.45594000000E+02  0.51100000000E-03 0. -1.
    9900012    2    1    2    0    0 -0.11293548178E+02  0.79470532838E+01  0.12648330469E+02  0.72461544115E+02  0.69999965897E+02 0.  0.
         12    1    1    2    0    0  0.11293548178E+02 -0.79470532838E+01 -0.12648330469E+02  0.18726455885E+02  0.00000000000E+00 0. -1.
         11    1    3    3    0    0  0.22538310038E+02 -0.92284481545E+01  0.13063694977E+00  0.24354809402E+02  0.51100000000E-03 0. -1.
        -11    1    3    3    0    0 -0.13309967767E+02 -0.61120195748E+01  0.21784901172E-01  0.14646245255E+02  0.51100000000E-03 0.  1.
        -12    1    3    3    0    0 -0.20521890450E+02  0.23287521013E+02  0.12495908618E+02  0.33460489458E+02  0.00000000000E+00 0.  1.
</event>
<event>
 7    1  0.1692604E-013  0.7246101E+02  0.7816164E-02  0.1226710E+00
        -11   -1    0    0    0    0  0.00000000000E+00  0.00000000000E+00  0.45593999997E+02  0.45594000000E+02  0.51100000000E-03 0.  1.
         11   -1    0    0    0    0 -0.00000000000E+00 -0.00000000000E+00 -0.45593999997E+02  0.45594000000E+02  0.51100000000E-03 0. -1.
    9900012    2    1    2    0    0 -0.77903230010E+01 -0.26704704257E+01  0.16819025391E+02  0.72461009856E+02  0.69999269921E+02 0.  0.
         12    1    1    2    0    0  0.77903230010E+01  0.26704704257E+01 -0.16819025391E+02  0.18726990144E+02  0.00000000000E+00 0. -1.
         11    1    3    3    0    0  0.23674192328E+02  0.62796726007E+01  0.69998752041E+01  0.25473514157E+02  0.51100000000E-03 0. -1.
        -11    1    3    3    0    0 -0.24081065540E+02 -0.16223289130E+02  0.17666044150E+02  0.33987967634E+02  0.51100000000E-03 0.  1.
        -12    1    3    3    0    0 -0.73834497895E+01  0.72731461039E+01 -0.78468939624E+01  0.12999528065E+02  0.00000000000E+00 0.  1.
</event>
<event>
 7    1  0.1692604E-013  0.7246159E+02  0.7816164E-02  0.1226708E+00
        -11   -1    0    0    0    0  0.00000000000E+00  0.00000000000E+00  0.45593999997E+02  0.45594000000E+02  0.51100000000E-03 0.  1.
         11   -1    0    0    0    0 -0.00000000000E+00 -0.00000000000E+00 -0.45593999997E+02  0.45594000000E+02  0.51100000000E-03 0. -1.
    9900012    2    1    2    0    0  0.49231806532E+01  0.14772720818E+02  0.10402274773E+02  0.72461593282E+02  0.70000029946E+02 0.  0.
         12    1    1    2    0    0 -0.49231806532E+01 -0.14772720818E+02 -0.10402274773E+02  0.18726406718E+02  0.00000000000E+00 0. -1.
         11    1    3    3    0    0 -0.22480414818E+02  0.28450026869E+02  0.97108434673E+01  0.37537628593E+02  0.51100000000E-03 0. -1.
        -11    1    3    3    0    0  0.73245607794E+00 -0.99874283391E+00 -0.47384624529E+01  0.48976530943E+01  0.51100000000E-03 0.  1.
        -12    1    3    3    0    0  0.26671139393E+02 -0.12678563217E+02  0.54298937583E+01  0.30026311595E+02  0.00000000000E+00 0.  1.
</event>
<event>
 7    1  0.1692604E-013  0.7246154E+02  0.7816164E-02  0.1226708E+00
        -11   -1    0    0    0    0  0.00000000000E+00  0.00000000000E+00  0.45593999997E+02  0.45594000000E+02  0.51100000000E-03 0.  1.
         11   -1    0    0    0    0 -0.00000000000E+00 -0.00000000000E+00 -0.45593999997E+02  0.45594000000E+02  0.51100000000E-03 0. -1.
    9900012    2    1    2    0    0  0.10657720408E+02  0.95451001313E+01 -0.12082394797E+02  0.72461542651E+02  0.69999963989E+02 0.  0.
         12    1    1    2    0    0 -0.10657720408E+02 -0.95451001313E+01  0.12082394797E+02  0.18726457349E+02  0.00000000000E+00 0. -1.
         11    1    3    3    0    0 -0.40623173794E+01 -0.62150397613E+01  0.91816349054E+01  0.11808114224E+02  0.51100000000E-03 0. -1.
        -11    1    3    3    0    0 -0.12194321124E+02 -0.27852968340E+01  0.95469036757E+01  0.15735396918E+02  0.51100000000E-03 0.  1.
         12    1    3    3    0    0  0.26914358911E+02  0.18545436727E+02 -0.30810933378E+02  0.44918031509E+02  0.00000000000E+00 0. -1.
</event>
<event>
 7    1  0.1692604E-013  0.7246167E+02  0.7816164E-02  0.1226708E+00
        -11   -1    0    0    0    0  0.00000000000E+00  0.00000000000E+00  0.45593999997E+02  0.45594000000E+02  0.51100000000E-03 0. -1.
         11   -1    0    0    0    0 -0.00000000000E+00 -0.00000000000E+00 -0.45593999997E+02  0.45594000000E+02  0.51100000000E-03 0.  1.
    9900012    2    1    2    0    0  0.94347592208E+01  0.68874837238E+01  0.14636367253E+02  0.72461672011E+02  0.70000132504E+02 0.  0.
         12    1    1    2    0    0 -0.94347592208E+01 -0.68874837238E+01 -0.14636367253E+02  0.18726327989E+02  0.00000000000E+00 0. -1.
         11    1    3    3    0    0 -0.10363699804E+02 -0.13414845503E+02  0.27847037546E+02  0.32600948665E+02  0.51100000000E-03 0. -1.
        -11    1    3    3    0    0  0.79456457108E+00  0.14820141305E+02  0.19105068581E+01  0.14963888461E+02  0.51100000000E-03 0.  1.
        -12    1    3    3    0    0  0.19003894454E+02  0.54821879215E+01 -0.15121177151E+02  0.24896834884E+02  0.00000000000E+00 0.  1.
</event>
<event>
 7    1  0.1692604E-013  0.7246159E+02  0.7816164E-02  0.1226708E+00
        -11   -1    0    0    0    0  0.00000000000E+00  0.00000000000E+00  0.45593999997E+02  0.45594000000E+02  0.51100000000E-03 0.  1.
         11   -1    0    0    0    0 -0.00000000000E+00 -0.00000000000E+00 -0.45593999997E+02  0.45594000000E+02  0.51100000000E-03 0. -1.
    9900012    2    1    2    0    0 -0.57498160305E+01 -0.26216362842E+01  0.17627964438E+02  0.72461588400E+02  0.70000023586E+02 0.  0.
         12    1    1    2    0    0  0.57498160305E+01  0.26216362842E+01 -0.17627964438E+02  0.18726411600E+02  0.00000000000E+00 0. -1.
         11    1    3    3    0    0 -0.11631700049E+02  0.13973815995E+02  0.32899278180E+02  0.37588914383E+02  0.51100000000E-03 0.  1.
        -11    1    3    3    0    0  0.10634331910E+02  0.24253123071E+01 -0.94215612290E+01  0.14413083335E+02  0.51100000000E-03 0. -1.
        -12    1    3    3    0    0 -0.47524478918E+01 -0.19020764587E+02 -0.58497525128E+01  0.20459590682E+02  0.00000000000E+00 0.  1.
</event>
<event>
 7    1  0.1692604E-013  0.7246154E+02  0.7816164E-02  0.1226708E+00
        -11   -1    0    0    0    0  0.00000000000E+00  0.00000000000E+00  0.45593999997E+02  0.45594000000E+02  0.51100000000E-03 0.  1.
         11   -1    0    0    0    0 -0.00000000000E+00 -0.00000000000E+00 -0.45593999997E+02  0.45594000000E+02  0.51100000000E-03 0. -1.
    9900012    2    1    2    0    0  0.17267302791E+02 -0.33653738861E+01  0.64183303630E+01  0.72461536060E+02  0.69999955403E+02 0.  0.
         12    1    1    2    0    0 -0.17267302791E+02  0.33653738861E+01 -0.64183303630E+01  0.18726463940E+02  0.00000000000E+00 0. -1.
         11    1    3    3    0    0 -0.42413560536E+00  0.68506345297E+01 -0.20796726579E+02  0.21900112354E+02  0.51100000000E-03 0. -1.
        -11    1    3    3    0    0 -0.81378669395E+01 -0.42583386811E+01 -0.36435277783E+01  0.98809727041E+01  0.51100000000E-03 0.  1.
        -12    1    3    3    0    0  0.25829305335E+02 -0.59576697347E+01  0.30858584720E+02  0.40680451002E+02  0.00000000000E+00 0.  1.
</event>
<event>
 7    1  0.1692604E-013  0.7246151E+02  0.7816164E-02  0.1226708E+00
        -11   -1    0    0    0    0  0.00000000000E+00  0.00000000000E+00  0.45593999997E+02  0.45594000000E+02  0.51100000000E-03 0.  1.
         11   -1    0    0    0    0 -0.00000000000E+00 -0.00000000000E+00 -0.45593999997E+02  0.45594000000E+02  0.51100000000E-03 0. -1.
    9900012    2    1    2    0    0 -0.13807851997E+02  0.41989804725E+01  0.11932857366E+02  0.72461513445E+02  0.69999925943E+02 0.  0.
         12    1    1    2    0    0  0.13807851997E+02 -0.41989804725E+01 -0.11932857366E+02  0.18726486555E+02  0.00000000000E+00 0. -1.
         11    1    3    3    0    0  0.37604433289E+00  0.90197690320E+01  0.39548951720E+01  0.98559037543E+01  0.51100000000E-03 0. -1.
        -11    1    3    3    0    0 -0.10472182911E+02  0.10254994266E+02  0.31315177337E+02  0.34575596224E+02  0.51100000000E-03 0.  1.
         12    1    3    3    0    0 -0.37117134188E+01 -0.15075782825E+02 -0.23337215143E+02  0.28030013467E+02  0.00000000000E+00 0. -1.
</event>
<event>
 7    1  0.1692604E-013  0.7246173E+02  0.7816164E-02  0.1226708E+00
        -11   -1    0    0    0    0  0.00000000000E+00  0.00000000000E+00  0.45593999997E+02  0.45594000000E+02  0.51100000000E-03 0.  1.
         11   -1    0    0    0    0 -0.00000000000E+00 -0.00000000000E+00 -0.45593999997E+02  0.45594000000E+02  0.51100000000E-03 0. -1.
    9900012    2    1    2    0    0 -0.10850035701E+02 -0.14645397596E+02 -0.42967598879E+01  0.72461732593E+02  0.70000211424E+02 0.  0.
         12    1    1    2    0    0  0.10850035701E+02  0.14645397596E+02  0.42967598879E+01  0.18726267407E+02  0.00000000000E+00 0. -1.
         11    1    3    3    0    0  0.99907893237E+01 -0.66394224930E+01 -0.15812014973E+02  0.19847358014E+02  0.51100000000E-03 0. -1.
        -11    1    3    3    0    0  0.96373628919E+01 -0.76538688250E+01 -0.95377802130E+01  0.15570154885E+02  0.51100000000E-03 0.  1.
        -12    1    3    3    0    0 -0.30478187916E+02 -0.35210627790E+00  0.21053035298E+02  0.37044219694E+02  0.00000000000E+00 0.  1.
</event>
<event>
 7    1  0.1692604E-013  0.7246160E+02  0.7816164E-02  0.1226708E+00
        -11   -1    0    0    0    0  0.00000000000E+00  0.00000000000E+00  0.45593999997E+02  0.45594000000E+02  0.51100000000E-03 0. -1.
         11   -1    0    0    0    0 -0.00000000000E+00 -0.00000000000E+00 -0.45593999997E+02  0.45594000000E+02  0.51100000000E-03 0.  1.
    9900012    2    1    2    0    0  0.10984125822E+02  0.14214064469E+02 -0.52902968825E+01  0.72461604461E+02  0.70000044508E+02 0.  0.
         12    1    1    2    0    0 -0.10984125822E+02 -0.14214064469E+02  0.52902968825E+01  0.18726395539E+02  0.00000000000E+00 0. -1.
         11    1    3    3    0    0  0.25972234591E+02  0.12085392032E+02  0.64945180920E+01  0.29373328645E+02  0.51100000000E-03 0. -1.
        -11    1    3    3    0    0  0.11439779289E+02 -0.13913122453E+01 -0.11706334879E+02  0.16426885782E+02  0.51100000000E-03 0.  1.
        -12    1    3    3    0    0 -0.26427888058E+02  0.35199846817E+01 -0.78480095781E-01  0.26661390033E+02  0.00000000000E+00 0.  1.
</event>
<event>
 7    1  0.1692604E-013  0.7246161E+02  0.7816164E-02  0.1226708E+00
        -11   -1    0    0    0    0  0.00000000000E+00  0.00000000000E+00  0.45593999997E+02  0.45594000000E+02  0.51100000000E-03 0.  1.
         11   -1    0    0    0    0 -0.00000000000E+00 -0.00000000000E+00 -0.45593999997E+02  0.45594000000E+02  0.51100000000E-03 0. -1.
    9900012    2    1    2    0    0 -0.90851312065E+01 -0.10743230457E+02  0.12358036357E+02  0.72461610271E+02  0.70000052077E+02 0.  0.
         12    1    1    2    0    0  0.90851312065E+01  0.10743230457E+02 -0.12358036357E+02  0.18726389729E+02  0.00000000000E+00 0. -1.
         11    1    3    3    0    0 -0.17309670285E+02 -0.22925778019E+02 -0.45059162604E+00  0.28730106443E+02  0.51100000000E-03 0. -1.
        -11    1    3    3    0    0  0.18216152584E+01  0.15966148326E+02  0.24841287914E+02  0.29585904752E+02  0.51100000000E-03 0.  1.
         12    1    3    3    0    0  0.64029238199E+01 -0.37836007635E+01 -0.12032659931E+02  0.14145599076E+02  0.00000000000E+00 0. -1.
</event>
<event>
 7    1  0.1692604E-013  0.7246151E+02  0.7816164E-02  0.1226708E+00
        -11   -1    0    0    0    0  0.00000000000E+00  0.00000000000E+00  0.45593999997E+02  0.45594000000E+02  0.51100000000E-03 0.  1.
         11   -1    0    0    0    0 -0.00000000000E+00 -0.00000000000E+00 -0.45593999997E+02  0.45594000000E+02  0.51100000000E-03 0. -1.
    9900012    2    1    2    0    0 -0.13556580003E+02 -0.74985014746E+01  0.10520117140E+02  0.72461514735E+02  0.69999927623E+02 0.  0.
         12    1    1    2    0    0  0.13556580003E+02  0.74985014746E+01 -0.10520117140E+02  0.18726485265E+02  0.00000000000E+00 0. -1.
         11    1    3    3    0    0  0.12396468475E+02  0.42287155747E+00  0.21497984693E+02  0.24819641357E+02  0.51100000000E-03 0. -1.
        -11    1    3    3    0    0 -0.13013166734E+02 -0.30104131132E+01  0.13834661816E+02  0.19230261657E+02  0.51100000000E-03 0.  1.
        -12    1    3    3    0    0 -0.12939881743E+02 -0.49109599188E+01 -0.24812529369E+02  0.28411611720E+02  0.00000000000E+00 0.  1.
</event>
<event>
 7    1  0.1692604E-013  0.7246162E+02  0.7816164E-02  0.1226708E+00
        -11   -1    0    0    0    0  0.00000000000E+00  0.00000000000E+00  0.45593999997E+02  0.45594000000E+02  0.51100000000E-03 0. -1.
         11   -1    0    0    0    0 -0.00000000000E+00 -0.00000000000E+00 -0.45593999997E+02  0.45594000000E+02  0.51100000000E-03 0.  1.
    9900012    2    1    2    0    0 -0.17395422433E+02  0.51613859484E+01  0.46299837519E+01  0.72461618180E+02  0.70000062380E+02 0.  0.
         12    1    1    2    0    0  0.17395422433E+02 -0.51613859484E+01 -0.46299837519E+01  0.18726381820E+02  0.00000000000E+00 0. -1.
         11    1    3    3    0    0 -0.31043377592E+01  0.16086476442E+01  0.30378125260E+02  0.30578671566E+02  0.51100000000E-03 0. -1.
        -11    1    3    3    0    0  0.70887457784E+01  0.83779588411E+01 -0.68011103419E+01  0.12911065533E+02  0.51100000000E-03 0.  1.
        -12    1    3    3    0    0 -0.21379830452E+02 -0.48252205369E+01 -0.18947031166E+02  0.28971881081E+02  0.00000000000E+00 0.  1.
</event>
<event>
 7    1  0.1692604E-013  0.7246156E+02  0.7816164E-02  0.1226708E+00
        -11   -1    0    0    0    0  0.00000000000E+00  0.00000000000E+00  0.45593999997E+02  0.45594000000E+02  0.51100000000E-03 0.  1.
         11   -1    0    0    0    0 -0.00000000000E+00 -0.00000000000E+00 -0.45593999997E+02  0.45594000000E+02  0.51100000000E-03 0. -1.
    9900012    2    1    2    0    0 -0.90308156849E+01  0.15524353242E+02 -0.53026712367E+01  0.72461561531E+02  0.69999988584E+02 0.  0.
         12    1    1    2    0    0  0.90308156849E+01 -0.15524353242E+02  0.53026712367E+01  0.18726438469E+02  0.00000000000E+00 0. -1.
         11    1    3    3    0    0  0.40471014055E+01 -0.17195684145E+02 -0.76310108259E+00  0.17681993850E+02  0.51100000000E-03 0. -1.
        -11    1    3    3    0    0 -0.21092607280E+02  0.63268084552E+01  0.93175758950E+01  0.23911164921E+02  0.51100000000E-03 0.  1.
         12    1    3    3    0    0  0.80146901891E+01  0.26393228931E+02 -0.13857146049E+02  0.30868402759E+02  0.00000000000E+00 0. -1.
</event>
<event>
 7    1  0.1692604E-013  0.7246157E+02  0.7816164E-02  0.1226708E+00
        -11   -1    0    0    0    0  0.00000000000E+00  0.00000000000E+00  0.45593999997E+02  0.45594000000E+02  0.51100000000E-03 0.  1.
         11   -1    0    0    0    0 -0.00000000000E+00 -0.00000000000E+00 -0.45593999997E+02  0.45594000000E+02  0.51100000000E-03 0. -1.
    9900012    2    1    2    0    0  0.53431493234E+01  0.16755490591E+02  0.64329927018E+01  0.72461572024E+02  0.70000002254E+02 0.  0.
         12    1    1    2    0    0 -0.53431493234E+01 -0.16755490591E+02 -0.64329927018E+01  0.18726427976E+02  0.00000000000E+00 0. -1.
         11    1    3    3    0    0 -0.39120234371E+01  0.15027619549E+02 -0.15132425298E+02  0.21682333185E+02  0.51100000000E-03 0. -1.
        -11    1    3    3    0    0  0.79251618504E+00  0.14008998546E+02  0.30373593163E+02  0.33457962939E+02  0.51100000000E-03 0.  1.
         12    1    3    3    0    0  0.84626565755E+01 -0.12281127504E+02 -0.88081751634E+01  0.17321275900E+02  0.00000000000E+00 0. -1.
</event>
<event>
 7    1  0.1692604E-013  0.7246149E+02  0.7816164E-02  0.1226708E+00
        -11   -1    0    0    0    0  0.00000000000E+00  0.00000000000E+00  0.45593999997E+02  0.45594000000E+02  0.51100000000E-03 0.  1.
         11   -1    0    0    0    0 -0.00000000000E+00 -0.00000000000E+00 -0.45593999997E+02  0.45594000000E+02  0.51100000000E-03 0. -1.
    9900012    2    1    2    0    0 -0.40243539979E+01  0.14809052483E+02  0.10732133090E+02  0.72461490950E+02  0.69999896639E+02 0.  0.
         12    1    1    2    0    0  0.40243539979E+01 -0.14809052483E+02 -0.10732133090E+02  0.18726509050E+02  0.00000000000E+00 0. -1.
         11    1    3    3    0    0  0.18871055437E+01 -0.43480538497E+01  0.12051936741E+02  0.12950518101E+02  0.51100000000E-03 0. -1.
        -11    1    3    3    0    0 -0.94805388849E+01 -0.14828798930E+02  0.13580763532E+02  0.22230857690E+02  0.51100000000E-03 0.  1.
         12    1    3    3    0    0  0.35690793432E+01  0.33985905263E+02 -0.14900567183E+02  0.37280115159E+02  0.00000000000E+00 0. -1.
</event>
<event>
 7    1  0.1692604E-013  0.7246157E+02  0.7816164E-02  0.1226708E+00
        -11   -1    0    0    0    0  0.00000000000E+00  0.00000000000E+00  0.45593999997E+02  0.45594000000E+02  0.51100000000E-03 0. -1.
         11   -1    0    0    0    0 -0.00000000000E+00 -0.00000000000E+00 -0.45593999997E+02  0.45594000000E+02  0.51100000000E-03 0.  1.
    9900012    2    1    2    0    0  0.26322873129E+01 -0.12145836859E+02 -0.14008169491E+02  0.72461572098E+02  0.70000002349E+02 0.  0.
         12    1    1    2    0    0 -0.26322873129E+01  0.12145836859E+02  0.14008169491E+02  0.18726427902E+02  0.00000000000E+00 0. -1.
         11    1    3    3    0    0  0.25223275582E+02  0.76676480707E+01  0.82482400640E+01  0.27623177269E+02  0.51100000000E-03 0. -1.
        -11    1    3    3    0    0  0.65739300761E+00 -0.99693306050E+01  0.15823097142E+01  0.10115504069E+02  0.51100000000E-03 0.  1.
         12    1    3    3    0    0 -0.23248381276E+02 -0.98441543245E+01 -0.23838719269E+02  0.34722890760E+02  0.00000000000E+00 0. -1.
</event>
<event>
 7    1  0.1692604E-013  0.7246139E+02  0.7816164E-02  0.1226709E+00
        -11   -1    0    0    0    0  0.00000000000E+00  0.00000000000E+00  0.45593999997E+02  0.45594000000E+02  0.51100000000E-03 0. -1.
         11   -1    0    0    0    0 -0.00000000000E+00 -0.00000000000E+00 -0.45593999997E+02  0.45594000000E+02  0.51100000000E-03 0.  1.
    9900012    2    1    2    0    0 -0.83678480973E+01  0.11223027466E+02 -0.12438200672E+02  0.72461386231E+02  0.69999760223E+02 0.  0.
         12    1    1    2    0    0  0.83678480973E+01 -0.11223027466E+02  0.12438200672E+02  0.18726613769E+02  0.00000000000E+00 0. -1.
         11    1    3    3    0    0  0.61718448620E+01  0.96612311335E+01 -0.55607381895E+00  0.11477816620E+02  0.51100000000E-03 0. -1.
        -11    1    3    3    0    0  0.18232833492E+02  0.94838363338E+00  0.10716366556E+02  0.21170171494E+02  0.51100000000E-03 0.  1.
         12    1    3    3    0    0 -0.32772526452E+02  0.61341269961E+00 -0.22598493410E+02  0.39813398116E+02  0.00000000000E+00 0. -1.
</event>
<event>
 7    1  0.1692604E-013  0.7246153E+02  0.7816164E-02  0.1226708E+00
        -11   -1    0    0    0    0  0.00000000000E+00  0.00000000000E+00  0.45593999997E+02  0.45594000000E+02  0.51100000000E-03 0.  1.
         11   -1    0    0    0    0 -0.00000000000E+00 -0.00000000000E+00 -0.45593999997E+02  0.45594000000E+02  0.51100000000E-03 0. -1.
    9900012    2    1    2    0    0 -0.60600193894E+00  0.17764489948E+02  0.58937448415E+01  0.72461532908E+02  0.69999951298E+02 0.  0.
         12    1    1    2    0    0  0.60600193894E+00 -0.17764489948E+02 -0.58937448415E+01  0.18726467092E+02  0.00000000000E+00 0. -1.
         11    1    3    3    0    0  0.12386278538E+02  0.10182444989E+02 -0.22874076888E+02  0.27934306430E+02  0.51100000000E-03 0. -1.
        -11    1    3    3    0    0  0.31117166101E+01  0.69892872846E+01 -0.35350055025E+01  0.84278811792E+01  0.51100000000E-03 0.  1.
        -12    1    3    3    0    0 -0.16103997087E+02  0.59275767517E+00  0.32302827232E+02  0.36099345299E+02  0.00000000000E+00 0.  1.
</event>
<event>
 7    1  0.1692604E-013  0.7246174E+02  0.7816164E-02  0.1226708E+00
        -11   -1    0    0    0    0  0.00000000000E+00  0.00000000000E+00  0.45593999997E+02  0.45594000000E+02  0.51100000000E-03 0.  1.
         11   -1    0    0    0    0 -0.00000000000E+00 -0.00000000000E+00 -0.45593999997E+02  0.45594000000E+02  0.51100000000E-03 0. -1.
    9900012    2    1    2    0    0 -0.15657244762E+02  0.10018489352E+02 -0.22701273495E+01  0.72461737142E+02  0.70000217349E+02 0.  0.
         12    1    1    2    0    0  0.15657244762E+02 -0.10018489352E+02  0.22701273495E+01  0.18726262858E+02  0.00000000000E+00 0. -1.
         11    1    3    3    0    0 -0.16360959583E+02  0.13612564366E+02  0.45244203542E+00  0.21288203568E+02  0.51100000000E-03 0.  1.
        -11    1    3    3    0    0  0.56562234356E+01 -0.26612429867E+02  0.15197543128E+01  0.27249292476E+02  0.51100000000E-03 0. -1.
         12    1    3    3    0    0 -0.49525086146E+01  0.23018354854E+02 -0.42423236978E+01  0.23924241098E+02  0.00000000000E+00 0. -1.
</event>
<event>
 7    1  0.1692604E-013  0.7246155E+02  0.7816164E-02  0.1226708E+00
        -11   -1    0    0    0    0  0.00000000000E+00  0.00000000000E+00  0.45593999997E+02  0.45594000000E+02  0.51100000000E-03 0.  1.
         11   -1    0    0    0    0 -0.00000000000E+00 -0.00000000000E+00 -0.45593999997E+02  0.45594000000E+02  0.51100000000E-03 0. -1.
    9900012    2    1    2    0    0 -0.15576638804E+02  0.10324368596E+02  0.12065626651E+01  0.72461546603E+02  0.69999969138E+02 0.  0.
         12    1    1    2    0    0  0.15576638804E+02 -0.10324368596E+02 -0.12065626651E+01  0.18726453397E+02  0.00000000000E+00 0. -1.
         11    1    3    3    0    0 -0.90791449403E+01 -0.90992333380E+01 -0.11283790625E+02  0.17104117964E+02  0.51100000000E-03 0. -1.
        -11    1    3    3    0    0  0.19801323167E+02 -0.18147712934E+01  0.21110245491E+01  0.19996055084E+02  0.51100000000E-03 0.  1.
        -12    1    3    3    0    0 -0.26298817031E+02  0.21238373228E+02  0.10379328741E+02  0.35361373555E+02  0.00000000000E+00 0.  1.
</event>
<event>
 7    1  0.1692604E-013  0.7246155E+02  0.7816164E-02  0.1226708E+00
        -11   -1    0    0    0    0  0.00000000000E+00  0.00000000000E+00  0.45593999997E+02  0.45594000000E+02  0.51100000000E-03 0.  1.
         11   -1    0    0    0    0 -0.00000000000E+00 -0.00000000000E+00 -0.45593999997E+02  0.45594000000E+02  0.51100000000E-03 0. -1.
    9900012    2    1    2    0    0 -0.47072273064E+01  0.38619210283E+01  0.17708966357E+02  0.72461550460E+02  0.69999974162E+02 0.  0.
         12    1    1    2    0    0  0.47072273064E+01 -0.38619210283E+01 -0.17708966357E+02  0.18726449540E+02  0.00000000000E+00 0. -1.
         11    1    3    3    0    0  0.88336292296E+00 -0.11297399744E+02 -0.16064611503E+02  0.19659178875E+02  0.51100000000E-03 0. -1.
        -11    1    3    3    0    0 -0.10804866091E+01  0.16299386191E+02 -0.22413801485E+01  0.16488214784E+02  0.51100000000E-03 0.  1.
        -12    1    3    3    0    0 -0.45101036203E+01 -0.11400654188E+01  0.36014958008E+02  0.36314156801E+02  0.00000000000E+00 0.  1.
</event>
<event>
 7    1  0.1692604E-013  0.7246158E+02  0.7816164E-02  0.1226708E+00
        -11   -1    0    0    0    0  0.00000000000E+00  0.00000000000E+00  0.45593999997E+02  0.45594000000E+02  0.51100000000E-03 0. -1.
         11   -1    0    0    0    0 -0.00000000000E+00 -0.00000000000E+00 -0.45593999997E+02  0.45594000000E+02  0.51100000000E-03 0.  1.
    9900012    2    1    2    0    0  0.83591784580E+01  0.82227318683E+01 -0.14601018413E+02  0.72461576888E+02  0.70000008590E+02 0.  0.
         12    1    1    2    0    0 -0.83591784580E+01 -0.82227318683E+01  0.14601018413E+02  0.18726423112E+02  0.00000000000E+00 0. -1.
         11    1    3    3    0    0  0.11419741994E+02 -0.85524268925E+01 -0.33133036472E+00  0.14271099923E+02  0.51100000000E-03 0. -1.
        -11    1    3    3    0    0  0.58894101285E+01  0.55596009684E+01 -0.33348608085E+02  0.34317983275E+02  0.51100000000E-03 0.  1.
        -12    1    3    3    0    0 -0.89499736640E+01  0.11215557792E+02  0.19078920037E+02  0.23872493690E+02  0.00000000000E+00 0.  1.
</event>
<event>
 7    1  0.1692604E-013  0.7246158E+02  0.7816164E-02  0.1226708E+00
        -11   -1    0    0    0    0  0.00000000000E+00  0.00000000000E+00  0.45593999997E+02  0.45594000000E+02  0.51100000000E-03 0.  1.
         11   -1    0    0    0    0 -0.00000000000E+00 -0.00000000000E+00 -0.45593999997E+02  0.45594000000E+02  0.51100000000E-03 0. -1.
    9900012    2    1    2    0    0  0.12496544127E+02 -0.13944977556E+02 -0.22973074014E+00  0.72461580418E+02  0.70000013187E+02 0.  0.
         12    1    1    2    0    0 -0.12496544127E+02  0.13944977556E+02  0.22973074014E+00  0.18726419582E+02  0.00000000000E+00 0. -1.
         11    1    3    3    0    0  0.10406404113E+02 -0.10510955127E+02  0.18454426516E+02  0.23650354808E+02  0.51100000000E-03 0. -1.
        -11    1    3    3    0    0  0.23325942825E+02  0.78603648613E+00 -0.80402071606E+01  0.24685266729E+02  0.51100000000E-03 0.  1.
         12    1    3    3    0    0 -0.21235802811E+02 -0.42200589154E+01 -0.10643950095E+02  0.24125958881E+02  0.00000000000E+00 0. -1.
</event>
<event>
 7    1  0.1692604E-013  0.7246150E+02  0.7816164E-02  0.1226708E+00
        -11   -1    0    0    0    0  0.00000000000E+00  0.00000000000E+00  0.45593999997E+02  0.45594000000E+02  0.51100000000E-03 0.  1.
         11   -1    0    0    0    0 -0.00000000000E+00 -0.00000000000E+00 -0.45593999997E+02  0.45594000000E+02  0.51100000000E-03 0. -1.
    9900012    2    1    2    0    0  0.93247899949E+01 -0.14944586903E+02  0.63552755499E+01  0.72461497031E+02  0.69999904560E+02 0.  0.
         12    1    1    2    0    0 -0.93247899949E+01  0.14944586903E+02 -0.63552755499E+01  0.18726502969E+02  0.00000000000E+00 0. -1.
         11    1    3    3    0    0 -0.24885783820E+02  0.71359887470E+00 -0.29650995894E+01  0.25071961940E+02  0.51100000000E-03 0. -1.
        -11    1    3    3    0    0 -0.89345521030E-01 -0.92435171190E+01  0.83882130949E+01  0.12482496166E+02  0.51100000000E-03 0.  1.
        -12    1    3    3    0    0  0.34299919336E+02 -0.64146686585E+01  0.93216204448E+00  0.34907038925E+02  0.00000000000E+00 0.  1.
</event>
<event>
 7    1  0.1692604E-013  0.7246155E+02  0.7816164E-02  0.1226708E+00
        -11   -1    0    0    0    0  0.00000000000E+00  0.00000000000E+00  0.45593999997E+02  0.45594000000E+02  0.51100000000E-03 0.  1.
         11   -1    0    0    0    0 -0.00000000000E+00 -0.00000000000E+00 -0.45593999997E+02  0.45594000000E+02  0.51100000000E-03 0. -1.
    9900012    2    1    2    0    0 -0.96238082644E+01  0.13721428776E+02  0.83537301810E+01  0.72461545421E+02  0.69999967598E+02 0.  0.
         12    1    1    2    0    0  0.96238082644E+01 -0.13721428776E+02 -0.83537301810E+01  0.18726454579E+02  0.00000000000E+00 0. -1.
         11    1    3    3    0    0 -0.27284751810E+02  0.87689668444E+01  0.78220850982E+01  0.29707532317E+02  0.51100000000E-03 0. -1.
        -11    1    3    3    0    0  0.90278551209E+01 -0.48035909503E+01  0.18155843218E+02  0.20837737337E+02  0.51100000000E-03 0.  1.
         12    1    3    3    0    0  0.86330884246E+01  0.97560528819E+01 -0.17624198135E+02  0.21916275767E+02  0.00000000000E+00 0. -1.
</event>
<event>
 7    1  0.1692604E-013  0.7246167E+02  0.7816164E-02  0.1226708E+00
        -11   -1    0    0    0    0  0.00000000000E+00  0.00000000000E+00  0.45593999997E+02  0.45594000000E+02  0.51100000000E-03 0.  1.
         11   -1    0    0    0    0 -0.00000000000E+00 -0.00000000000E+00 -0.45593999997E+02  0.45594000000E+02  0.51100000000E-03 0. -1.
    9900012    2    1    2    0    0  0.96299541990E+01  0.13366410799E+02  0.89038455161E+01  0.72461670394E+02  0.70000130399E+02 0.  0.
         12    1    1    2    0    0 -0.96299541990E+01 -0.13366410799E+02 -0.89038455161E+01  0.18726329606E+02  0.00000000000E+00 0. -1.
         11    1    3    3    0    0  0.13860613453E+01  0.25695965653E+02 -0.18582313059E+00  0.25733992061E+02  0.51100000000E-03 0. -1.
        -11    1    3    3    0    0  0.52706198575E+01  0.14583066572E+02 -0.48851462892E+01  0.16257611105E+02  0.51100000000E-03 0.  1.
        -12    1    3    3    0    0  0.29732729962E+01 -0.26912621427E+02  0.13974814936E+02  0.30470067228E+02  0.00000000000E+00 0.  1.
</event>
<event>
 7    1  0.1692604E-013  0.7246156E+02  0.7816164E-02  0.1226708E+00
        -11   -1    0    0    0    0  0.00000000000E+00  0.00000000000E+00  0.45593999997E+02  0.45594000000E+02  0.51100000000E-03 0.  1.
         11   -1    0    0    0    0 -0.00000000000E+00 -0.00000000000E+00 -0.45593999997E+02  0.45594000000E+02  0.51100000000E-03 0. -1.
    9900012    2    1    2    0    0  0.49330906316E+01  0.50011663077E+01  0.17358927729E+02  0.72461563619E+02  0.69999991304E+02 0.  0.
         12    1    1    2    0    0 -0.49330906316E+01 -0.50011663077E+01 -0.17358927729E+02  0.18726436381E+02  0.00000000000E+00 0. -1.
         11    1    3    3    0    0 -0.64752372125E+01 -0.20893206879E+02  0.30269477890E+02  0.37345630033E+02  0.51100000000E-03 0. -1.
        -11    1    3    3    0    0  0.10410577634E+01 -0.46735093399E+00  0.25864198239E+01  0.28269746955E+01  0.51100000000E-03 0.  1.
        -12    1    3    3    0    0  0.10367270081E+02  0.26361724120E+02 -0.15496969984E+02  0.32288958890E+02  0.00000000000E+00 0.  1.
</event>
<event>
 7    1  0.1692604E-013  0.7246158E+02  0.7816164E-02  0.1226708E+00
        -11   -1    0    0    0    0  0.00000000000E+00  0.00000000000E+00  0.45593999997E+02  0.45594000000E+02  0.51100000000E-03 0. -1.
         11   -1    0    0    0    0 -0.00000000000E+00 -0.00000000000E+00 -0.45593999997E+02  0.45594000000E+02  0.51100000000E-03 0.  1.
    9900012    2    1    2    0    0 -0.12095860411E+02  0.99774384418E+01 -0.10238152019E+02  0.72461578193E+02  0.70000010289E+02 0.  0.
         12    1    1    2    0    0  0.12095860411E+02 -0.99774384418E+01  0.10238152019E+02  0.18726421807E+02  0.00000000000E+00 0. -1.
         11    1    3    3    0    0  0.28416040855E+01 -0.18940236894E+02 -0.18836342771E+01  0.19244619137E+02  0.51100000000E-03 0. -1.
        -11    1    3    3    0    0  0.38477099632E+01 -0.88729209940E+01  0.17348169230E+01  0.98256393657E+01  0.51100000000E-03 0.  1.
        -12    1    3    3    0    0 -0.18785174459E+02  0.37790596330E+02 -0.10089334665E+02  0.43391319690E+02  0.00000000000E+00 0.  1.
</event>
<event>
 7    1  0.1692604E-013  0.7246162E+02  0.7816164E-02  0.1226708E+00
        -11   -1    0    0    0    0  0.00000000000E+00  0.00000000000E+00  0.45593999997E+02  0.45594000000E+02  0.51100000000E-03 0.  1.
         11   -1    0    0    0    0 -0.00000000000E+00 -0.00000000000E+00 -0.45593999997E+02  0.45594000000E+02  0.51100000000E-03 0. -1.
    9900012    2    1    2    0    0 -0.90878690797E+01 -0.16274116463E+02 -0.18002672323E+01  0.72461623063E+02  0.70000068741E+02 0.  0.
         12    1    1    2    0    0  0.90878690797E+01  0.16274116463E+02  0.18002672323E+01  0.18726376937E+02  0.00000000000E+00 0. -1.
         11    1    3    3    0    0 -0.96036827294E+01  0.44800313508E+01  0.11951160072E+01  0.10664413036E+02  0.51100000000E-03 0. -1.
        -11    1    3    3    0    0 -0.11300295277E+02  0.14575593295E+02  0.11598931871E+02  0.21787147911E+02  0.51100000000E-03 0.  1.
         12    1    3    3    0    0  0.11816108927E+02 -0.35329741109E+02 -0.14594315111E+02  0.40010062117E+02  0.00000000000E+00 0. -1.
</event>
<event>
 7    1  0.1692604E-013  0.7246163E+02  0.7816164E-02  0.1226708E+00
        -11   -1    0    0    0    0  0.00000000000E+00  0.00000000000E+00  0.45593999997E+02  0.45594000000E+02  0.51100000000E-03 0. -1.
         11   -1    0    0    0    0 -0.00000000000E+00 -0.00000000000E+00 -0.45593999997E+02  0.45594000000E+02  0.51100000000E-03 0.  1.
    9900012    2    1    2    0    0  0.10688918537E+02  0.14332562839E+02  0.55679104640E+01  0.72461629183E+02  0.70000076713E+02 0.  0.
         12    1    1    2    0    0 -0.10688918537E+02 -0.14332562839E+02 -0.55679104640E+01  0.18726370817E+02  0.00000000000E+00 0. -1.
         11    1    3    3    0    0  0.51754321301E+01 -0.23191949520E+01  0.16748548075E+02  0.17682692834E+02  0.51100000000E-03 0. -1.
        -11    1    3    3    0    0 -0.75949483556E+01 -0.12325057931E+02  0.90619305223E+01  0.17079487070E+02  0.51100000000E-03 0.  1.
        -12    1    3    3    0    0  0.13108434763E+02  0.28976815722E+02 -0.20242568134E+02  0.37699449279E+02  0.00000000000E+00 0.  1.
</event>
<event>
 7    1  0.1692604E-013  0.7246162E+02  0.7816164E-02  0.1226708E+00
        -11   -1    0    0    0    0  0.00000000000E+00  0.00000000000E+00  0.45593999997E+02  0.45594000000E+02  0.51100000000E-03 0.  1.
         11   -1    0    0    0    0 -0.00000000000E+00 -0.00000000000E+00 -0.45593999997E+02  0.45594000000E+02  0.51100000000E-03 0. -1.
    9900012    2    1    2    0    0  0.49863312082E+01  0.15470612911E+02  0.92991335315E+01  0.72461621621E+02  0.70000066863E+02 0.  0.
         12    1    1    2    0    0 -0.49863312082E+01 -0.15470612911E+02 -0.92991335315E+01  0.18726378379E+02  0.00000000000E+00 0. -1.
         11    1    3    3    0    0  0.11048991175E+02 -0.14398377640E+00  0.14929321271E+01  0.11150326628E+02  0.51100000000E-03 0. -1.
        -11    1    3    3    0    0 -0.50058354914E+01 -0.21536288138E+02 -0.36721075980E+01  0.22413265496E+02  0.51100000000E-03 0.  1.
        -12    1    3    3    0    0 -0.10568244754E+01  0.37150884825E+02  0.11478309002E+02  0.38898029497E+02  0.00000000000E+00 0.  1.
</event>
<event>
 7    1  0.1692604E-013  0.7246119E+02  0.7816164E-02  0.1226709E+00
        -11   -1    0    0    0    0  0.00000000000E+00  0.00000000000E+00  0.45593999997E+02  0.45594000000E+02  0.51100000000E-03 0.  1.
         11   -1    0    0    0    0 -0.00000000000E+00 -0.00000000000E+00 -0.45593999997E+02  0.45594000000E+02  0.51100000000E-03 0. -1.
    9900012    2    1    2    0    0  0.26726658967E+01  0.50798831420E+01  0.17825409050E+02  0.72461185975E+02  0.69999499350E+02 0.  0.
         12    1    1    2    0    0 -0.26726658967E+01 -0.50798831420E+01 -0.17825409050E+02  0.18726814025E+02  0.00000000000E+00 0. -1.
         11    1    3    3    0    0 -0.44907840331E+01  0.30792216936E+02  0.24758266606E+02  0.39765557090E+02  0.51100000000E-03 0. -1.
        -11    1    3    3    0    0  0.95166111882E+01 -0.60349822764E+01  0.10777864190E+01  0.11320270465E+02  0.51100000000E-03 0.  1.
        -12    1    3    3    0    0 -0.23531612583E+01 -0.19677351518E+02 -0.80106439748E+01  0.21375358419E+02  0.00000000000E+00 0.  1.
</event>
<event>
 7    1  0.1692604E-013  0.7246157E+02  0.7816164E-02  0.1226708E+00
        -11   -1    0    0    0    0  0.00000000000E+00  0.00000000000E+00  0.45593999997E+02  0.45594000000E+02  0.51100000000E-03 0. -1.
         11   -1    0    0    0    0 -0.00000000000E+00 -0.00000000000E+00 -0.45593999997E+02  0.45594000000E+02  0.51100000000E-03 0.  1.
    9900012    2    1    2    0    0  0.13269331589E+02 -0.67983248089E+01 -0.11330781889E+02  0.72461574841E+02  0.70000005923E+02 0.  0.
         12    1    1    2    0    0 -0.13269331589E+02  0.67983248089E+01  0.11330781889E+02  0.18726425159E+02  0.00000000000E+00 0. -1.
         11    1    3    3    0    0  0.28415367597E+00 -0.13013851486E+02 -0.43410163109E+01  0.13721716244E+02  0.51100000000E-03 0. -1.
        -11    1    3    3    0    0  0.30327686640E+02  0.19216520293E+02 -0.88735351312E+01  0.36983548439E+02  0.51100000000E-03 0.  1.
         12    1    3    3    0    0 -0.17342508728E+02 -0.13000993616E+02  0.18837695529E+01  0.21756310158E+02  0.00000000000E+00 0. -1.
</event>
<event>
 7    1  0.1692604E-013  0.7246157E+02  0.7816164E-02  0.1226708E+00
        -11   -1    0    0    0    0  0.00000000000E+00  0.00000000000E+00  0.45593999997E+02  0.45594000000E+02  0.51100000000E-03 0. -1.
         11   -1    0    0    0    0 -0.00000000000E+00 -0.00000000000E+00 -0.45593999997E+02  0.45594000000E+02  0.51100000000E-03 0.  1.
    9900012    2    1    2    0    0 -0.10275301799E+02  0.72518348184E+01  0.13874733283E+02  0.72461570576E+02  0.70000000367E+02 0.  0.
         12    1    1    2    0    0  0.10275301799E+02 -0.72518348184E+01 -0.13874733283E+02  0.18726429424E+02  0.00000000000E+00 0. -1.
         11    1    3    3    0    0  0.65354070312E+01  0.19153243989E+02  0.21111590104E+02  0.29244786499E+02  0.51100000000E-03 0. -1.
        -11    1    3    3    0    0  0.59932235621E+01  0.80771404538E+01 -0.80585867729E+01  0.12887969103E+02  0.51100000000E-03 0.  1.
        -12    1    3    3    0    0 -0.22803932392E+02 -0.19978549625E+02  0.82172995213E+00  0.30328814974E+02  0.00000000000E+00 0.  1.
</event>
<event>
 7    1  0.1692604E-013  0.7246159E+02  0.7816164E-02  0.1226708E+00
        -11   -1    0    0    0    0  0.00000000000E+00  0.00000000000E+00  0.45593999997E+02  0.45594000000E+02  0.51100000000E-03 0. -1.
         11   -1    0    0    0    0 -0.00000000000E+00 -0.00000000000E+00 -0.45593999997E+02  0.45594000000E+02  0.51100000000E-03 0.  1.
    9900012    2    1    2    0    0 -0.14508322490E+02  0.11701928451E+02  0.18032651555E+01  0.72461593079E+02  0.70000029682E+02 0.  0.
         12    1    1    2    0    0  0.14508322490E+02 -0.11701928451E+02 -0.18032651555E+01  0.18726406921E+02  0.00000000000E+00 0. -1.
         11    1    3    3    0    0 -0.12993925341E+01  0.18692238892E+02 -0.14378504806E+02  0.23618416892E+02  0.51100000000E-03 0. -1.
        -11    1    3    3    0    0  0.27481916776E+01 -0.16733203705E+01 -0.13960073095E+02  0.14326067138E+02  0.51100000000E-03 0.  1.
         12    1    3    3    0    0 -0.15957121633E+02 -0.53169900709E+01  0.30141843057E+02  0.34517109049E+02  0.00000000000E+00 0. -1.
</event>
<event>
 7    1  0.1692604E-013  0.7246157E+02  0.7816164E-02  0.1226708E+00
        -11   -1    0    0    0    0  0.00000000000E+00  0.00000000000E+00  0.45593999997E+02  0.45594000000E+02  0.51100000000E-03 0.  1.
         11   -1    0    0    0    0 -0.00000000000E+00 -0.00000000000E+00 -0.45593999997E+02  0.45594000000E+02  0.51100000000E-03 0. -1.
    9900012    2    1    2    0    0  0.58847033310E+01 -0.16861037246E+02 -0.56351425181E+01  0.72461571043E+02  0.70000000975E+02 0.  0.
         12    1    1    2    0    0 -0.58847033310E+01  0.16861037246E+02  0.56351425181E+01  0.18726428957E+02  0.00000000000E+00 0. -1.
         11    1    3    3    0    0  0.10616584337E+01 -0.40213807103E+02  0.22729092916E+01  0.40291978324E+02  0.51100000000E-03 0. -1.
        -11    1    3    3    0    0  0.33391277138E+01  0.24070497759E+01 -0.10245703899E+02  0.11041653461E+02  0.51100000000E-03 0.  1.
        -12    1    3    3    0    0  0.14839171834E+01  0.20945720082E+02  0.23376520895E+01  0.21127939257E+02  0.00000000000E+00 0.  1.
</event>
<event>
 7    1  0.1692604E-013  0.7246160E+02  0.7816164E-02  0.1226708E+00
        -11   -1    0    0    0    0  0.00000000000E+00  0.00000000000E+00  0.45593999997E+02  0.45594000000E+02  0.51100000000E-03 0.  1.
         11   -1    0    0    0    0 -0.00000000000E+00 -0.00000000000E+00 -0.45593999997E+02  0.45594000000E+02  0.51100000000E-03 0. -1.
    9900012    2    1    2    0    0 -0.10352870319E+02 -0.98595479681E+01  0.12094851356E+02  0.72461600471E+02  0.70000039311E+02 0.  0.
         12    1    1    2    0    0  0.10352870319E+02  0.98595479681E+01 -0.12094851356E+02  0.18726399529E+02  0.00000000000E+00 0. -1.
         11    1    3    3    0    0  0.66182891864E+01  0.41369460655E+01 -0.22049830894E+02  0.23390406521E+02  0.51100000000E-03 0. -1.
        -11    1    3    3    0    0  0.27740922316E+01  0.53649197002E+01  0.13783989242E+01  0.61949927324E+01  0.51100000000E-03 0.  1.
        -12    1    3    3    0    0 -0.19745251737E+02 -0.19361413734E+02  0.32766283326E+02  0.42876201218E+02  0.00000000000E+00 0.  1.
</event>
<event>
 7    1  0.1692604E-013  0.7246154E+02  0.7816164E-02  0.1226708E+00
        -11   -1    0    0    0    0  0.00000000000E+00  0.00000000000E+00  0.45593999997E+02  0.45594000000E+02  0.51100000000E-03 0. -1.
         11   -1    0    0    0    0 -0.00000000000E+00 -0.00000000000E+00 -0.45593999997E+02  0.45594000000E+02  0.51100000000E-03 0.  1.
    9900012    2    1    2    0    0 -0.13195109672E+02 -0.13273361924E+02  0.62237080169E+00  0.72461537402E+02  0.69999957152E+02 0.  0.
         12    1    1    2    0    0  0.13195109672E+02  0.13273361924E+02 -0.62237080169E+00  0.18726462598E+02  0.00000000000E+00 0. -1.
         11    1    3    3    0    0  0.79666654377E+01 -0.58947073822E+01 -0.14320988368E+02  0.17415683777E+02  0.51100000000E-03 0. -1.
        -11    1    3    3    0    0  0.10407148052E+02 -0.32363717009E+01 -0.98509978464E+01  0.14690983330E+02  0.51100000000E-03 0.  1.
         12    1    3    3    0    0 -0.31568923162E+02 -0.41422828405E+01  0.24794357016E+02  0.40354870296E+02  0.00000000000E+00 0. -1.
</event>
<event>
 7    1  0.1692604E-013  0.7246217E+02  0.7816164E-02  0.1226706E+00
        -11   -1    0    0    0    0  0.00000000000E+00  0.00000000000E+00  0.45593999997E+02  0.45594000000E+02  0.51100000000E-03 0.  1.
         11   -1    0    0    0    0 -0.00000000000E+00 -0.00000000000E+00 -0.45593999997E+02  0.45594000000E+02  0.51100000000E-03 0. -1.
    9900012    2    1    2    0    0 -0.87778882131E+00 -0.16695940178E+02  0.84339731009E+01  0.72462166670E+02  0.70000776886E+02 0.  0.
         12    1    1    2    0    0  0.87778882131E+00  0.16695940178E+02 -0.84339731009E+01  0.18725833330E+02  0.00000000000E+00 0. -1.
         11    1    3    3    0    0  0.42228570399E+00 -0.29919923036E+02 -0.12725411431E+02  0.32516399186E+02  0.51100000000E-03 0. -1.
        -11    1    3    3    0    0  0.10560474875E+02  0.98865274912E+00 -0.23950140897E+01  0.10873691029E+02  0.51100000000E-03 0.  1.
        -12    1    3    3    0    0 -0.11860549400E+02  0.12235330109E+02  0.23554398622E+02  0.29072076455E+02  0.00000000000E+00 0.  1.
</event>
<event>
 7    1  0.1692604E-013  0.7246157E+02  0.7816164E-02  0.1226708E+00
        -11   -1    0    0    0    0  0.00000000000E+00  0.00000000000E+00  0.45593999997E+02  0.45594000000E+02  0.51100000000E-03 0.  1.
         11   -1    0    0    0    0 -0.00000000000E+00 -0.00000000000E+00 -0.45593999997E+02  0.45594000000E+02  0.51100000000E-03 0. -1.
    9900012    2    1    2    0    0  0.28972275371E+01  0.17278866742E+02 -0.66125669108E+01  0.72461569362E+02  0.69999998785E+02 0.  0.
         12    1    1    2    0    0 -0.28972275371E+01 -0.17278866742E+02  0.66125669108E+01  0.18726430638E+02  0.00000000000E+00 0. -1.
         11    1    3    3    0    0 -0.19676454602E+02  0.20166725403E+02  0.11867767191E+02  0.30572922293E+02  0.51100000000E-03 0. -1.
        -11    1    3    3    0    0  0.68084219826E+01  0.44959790505E+01  0.71880385177E+01  0.10873653273E+02  0.51100000000E-03 0.  1.
         12    1    3    3    0    0  0.15765260156E+02 -0.73838377114E+01 -0.25668372620E+02  0.31014993795E+02  0.00000000000E+00 0. -1.
</event>
<event>
 7    1  0.1692604E-013  0.7246153E+02  0.7816164E-02  0.1226708E+00
        -11   -1    0    0    0    0  0.00000000000E+00  0.00000000000E+00  0.45593999997E+02  0.45594000000E+02  0.51100000000E-03 0. -1.
         11   -1    0    0    0    0 -0.00000000000E+00 -0.00000000000E+00 -0.45593999997E+02  0.45594000000E+02  0.51100000000E-03 0.  1.
    9900012    2    1    2    0    0  0.10621402846E+02  0.44460563407E+01 -0.14768175745E+02  0.72461531293E+02  0.69999949193E+02 0.  0.
         12    1    1    2    0    0 -0.10621402846E+02 -0.44460563407E+01  0.14768175745E+02  0.18726468707E+02  0.00000000000E+00 0. -1.
         11    1    3    3    0    0  0.29641972954E+02 -0.91456312775E+01  0.95760792842E+01  0.32465218724E+02  0.51100000000E-03 0. -1.
        -11    1    3    3    0    0  0.16887312256E+01 -0.52936385990E+00 -0.11864732382E+02  0.11995995748E+02  0.51100000000E-03 0.  1.
        -12    1    3    3    0    0 -0.20709301333E+02  0.14121051478E+02 -0.12479522648E+02  0.28000316821E+02  0.00000000000E+00 0.  1.
</event>
<event>
 7    1  0.1692604E-013  0.7246162E+02  0.7816164E-02  0.1226708E+00
        -11   -1    0    0    0    0  0.00000000000E+00  0.00000000000E+00  0.45593999997E+02  0.45594000000E+02  0.51100000000E-03 0.  1.
         11   -1    0    0    0    0 -0.00000000000E+00 -0.00000000000E+00 -0.45593999997E+02  0.45594000000E+02  0.51100000000E-03 0. -1.
    9900012    2    1    2    0    0  0.95297374383E+01  0.70054730453E+01  0.14518425953E+02  0.72461621803E+02  0.70000067100E+02 0.  0.
         12    1    1    2    0    0 -0.95297374383E+01 -0.70054730453E+01 -0.14518425953E+02  0.18726378197E+02  0.00000000000E+00 0. -1.
         11    1    3    3    0    0  0.19028810981E+02  0.16149805809E+02 -0.19816326742E+02  0.31868459028E+02  0.51100000000E-03 0. -1.
        -11    1    3    3    0    0 -0.93317100363E+01  0.26296564337E+01  0.12901144048E+02  0.16138011748E+02  0.51100000000E-03 0.  1.
        -12    1    3    3    0    0 -0.16736350619E+00 -0.11773989197E+02  0.21433608646E+02  0.24455151027E+02  0.00000000000E+00 0.  1.
</event>
<event>
 7    1  0.1692604E-013  0.7246156E+02  0.7816164E-02  0.1226708E+00
        -11   -1    0    0    0    0  0.00000000000E+00  0.00000000000E+00  0.45593999997E+02  0.45594000000E+02  0.51100000000E-03 0.  1.
         11   -1    0    0    0    0 -0.00000000000E+00 -0.00000000000E+00 -0.45593999997E+02  0.45594000000E+02  0.51100000000E-03 0. -1.
    9900012    2    1    2    0    0  0.15525716791E+02 -0.77136915837E+01 -0.70802886086E+01  0.72461563967E+02  0.69999991758E+02 0.  0.
         12    1    1    2    0    0 -0.15525716791E+02  0.77136915837E+01  0.70802886086E+01  0.18726436033E+02  0.00000000000E+00 0. -1.
         11    1    3    3    0    0 -0.24295936111E+01 -0.20063622952E+02 -0.80012719611E+00  0.20226025187E+02  0.51100000000E-03 0. -1.
        -11    1    3    3    0    0 -0.62908389065E+01 -0.73793100151E+01  0.12460690834E+02  0.15789163587E+02  0.51100000000E-03 0.  1.
         12    1    3    3    0    0  0.24246149308E+02  0.19729241383E+02 -0.18740852246E+02  0.36446375194E+02  0.00000000000E+00 0. -1.
</event>
<event>
 7    1  0.1692604E-013  0.7246152E+02  0.7816164E-02  0.1226708E+00
        -11   -1    0    0    0    0  0.00000000000E+00  0.00000000000E+00  0.45593999997E+02  0.45594000000E+02  0.51100000000E-03 0.  1.
         11   -1    0    0    0    0 -0.00000000000E+00 -0.00000000000E+00 -0.45593999997E+02  0.45594000000E+02  0.51100000000E-03 0. -1.
    9900012    2    1    2    0    0 -0.15137460927E+02  0.67983875581E+01  0.86787233631E+01  0.72461520461E+02  0.69999935083E+02 0.  0.
         12    1    1    2    0    0  0.15137460927E+02 -0.67983875581E+01 -0.86787233631E+01  0.18726479539E+02  0.00000000000E+00 0. -1.
         11    1    3    3    0    0 -0.18676512602E+02  0.62574070442E+01  0.45491495870E+01  0.20215390872E+02  0.51100000000E-03 0. -1.
        -11    1    3    3    0    0 -0.67229696198E+01  0.24782061325E+02  0.34967667293E+01  0.25914788478E+02  0.51100000000E-03 0.  1.
         12    1    3    3    0    0  0.10262021295E+02 -0.24241080811E+02  0.63280704675E+00  0.26331341111E+02  0.00000000000E+00 0. -1.
</event>
<event>
 7    1  0.1692604E-013  0.7246157E+02  0.7816164E-02  0.1226708E+00
        -11   -1    0    0    0    0  0.00000000000E+00  0.00000000000E+00  0.45593999997E+02  0.45594000000E+02  0.51100000000E-03 0.  1.
         11   -1    0    0    0    0 -0.00000000000E+00 -0.00000000000E+00 -0.45593999997E+02  0.45594000000E+02  0.51100000000E-03 0. -1.
    9900012    2    1    2    0    0 -0.11218376147E+02 -0.14787273438E+02  0.24827147394E+01  0.72461567035E+02  0.69999995754E+02 0.  0.
         12    1    1    2    0    0  0.11218376147E+02  0.14787273438E+02 -0.24827147394E+01  0.18726432965E+02  0.00000000000E+00 0. -1.
         11    1    3    3    0    0  0.56227960708E+00  0.68525876828E+01 -0.12466342527E+02  0.14236706521E+02  0.51100000000E-03 0. -1.
        -11    1    3    3    0    0  0.13896348364E+02  0.46280321655E+01 -0.61251541257E+01  0.15875915498E+02  0.51100000000E-03 0.  1.
        -12    1    3    3    0    0 -0.25677004118E+02 -0.26267893286E+02  0.21074211392E+02  0.42348945016E+02  0.00000000000E+00 0.  1.
</event>
<event>
 7    1  0.1692604E-013  0.7246171E+02  0.7816164E-02  0.1226708E+00
        -11   -1    0    0    0    0  0.00000000000E+00  0.00000000000E+00  0.45593999997E+02  0.45594000000E+02  0.51100000000E-03 0.  1.
         11   -1    0    0    0    0 -0.00000000000E+00 -0.00000000000E+00 -0.45593999997E+02  0.45594000000E+02  0.51100000000E-03 0. -1.
    9900012    2    1    2    0    0  0.17618190542E+02 -0.59499573518E+01 -0.22071457315E+01  0.72461705045E+02  0.70000175537E+02 0.  0.
         12    1    1    2    0    0 -0.17618190542E+02  0.59499573518E+01  0.22071457315E+01  0.18726294955E+02  0.00000000000E+00 0. -1.
         11    1    3    3    0    0 -0.69791451638E+01 -0.11308138262E+02  0.63883598728E+00  0.13303780284E+02  0.51100000000E-03 0. -1.
        -11    1    3    3    0    0  0.31439281862E+02  0.20929650659E+01 -0.22085735635E+02  0.38478418179E+02  0.51100000000E-03 0.  1.
         12    1    3    3    0    0 -0.68419461558E+01  0.32652158443E+01  0.19239753916E+02  0.20679506582E+02  0.00000000000E+00 0. -1.
</event>
<event>
 7    1  0.1692604E-013  0.7246156E+02  0.7816164E-02  0.1226708E+00
        -11   -1    0    0    0    0  0.00000000000E+00  0.00000000000E+00  0.45593999997E+02  0.45594000000E+02  0.51100000000E-03 0.  1.
         11   -1    0    0    0    0 -0.00000000000E+00 -0.00000000000E+00 -0.45593999997E+02  0.45594000000E+02  0.51100000000E-03 0. -1.
    9900012    2    1    2    0    0 -0.12077631357E+02  0.10554915090E+02  0.96645805239E+01  0.72461560711E+02  0.69999987516E+02 0.  0.
         12    1    1    2    0    0  0.12077631357E+02 -0.10554915090E+02 -0.96645805239E+01  0.18726439289E+02  0.00000000000E+00 0. -1.
         11    1    3    3    0    0  0.55691776018E+01  0.25933866990E+01  0.53499231956E+01  0.81463533063E+01  0.51100000000E-03 0. -1.
        -11    1    3    3    0    0 -0.21477309559E+02  0.14361101082E+02  0.28816819663E+02  0.38703037942E+02  0.51100000000E-03 0.  1.
         12    1    3    3    0    0  0.38305006003E+01 -0.63995726906E+01 -0.24502162335E+02  0.25612169462E+02  0.00000000000E+00 0. -1.
</event>
<event>
 7    1  0.1692604E-013  0.7246153E+02  0.7816164E-02  0.1226708E+00
        -11   -1    0    0    0    0  0.00000000000E+00  0.00000000000E+00  0.45593999997E+02  0.45594000000E+02  0.51100000000E-03 0.  1.
         11   -1    0    0    0    0 -0.00000000000E+00 -0.00000000000E+00 -0.45593999997E+02  0.45594000000E+02  0.51100000000E-03 0. -1.
    9900012    2    1    2    0    0  0.14870238226E+02 -0.30256292834E+01  0.10972793625E+02  0.72461531636E+02  0.69999949640E+02 0.  0.
         12    1    1    2    0    0 -0.14870238226E+02  0.30256292834E+01 -0.10972793625E+02  0.18726468364E+02  0.00000000000E+00 0. -1.
         11    1    3    3    0    0  0.96863049205E+01 -0.54014417985E+01  0.67782154556E+01  0.12997856806E+02  0.51100000000E-03 0. -1.
        -11    1    3    3    0    0 -0.10249078196E+01  0.20621837165E+02  0.24114369565E+02  0.31746077299E+02  0.51100000000E-03 0.  1.
         12    1    3    3    0    0  0.62088411250E+01 -0.18246024650E+02 -0.19919791396E+02  0.27717597531E+02  0.00000000000E+00 0. -1.
</event>
<event>
 7    1  0.1692604E-013  0.7246151E+02  0.7816164E-02  0.1226708E+00
        -11   -1    0    0    0    0  0.00000000000E+00  0.00000000000E+00  0.45593999997E+02  0.45594000000E+02  0.51100000000E-03 0.  1.
         11   -1    0    0    0    0 -0.00000000000E+00 -0.00000000000E+00 -0.45593999997E+02  0.45594000000E+02  0.51100000000E-03 0. -1.
    9900012    2    1    2    0    0  0.30012005468E+01  0.15321675885E+02  0.10340229698E+02  0.72461513227E+02  0.69999925659E+02 0.  0.
         12    1    1    2    0    0 -0.30012005468E+01 -0.15321675885E+02 -0.10340229698E+02  0.18726486773E+02  0.00000000000E+00 0. -1.
         11    1    3    3    0    0  0.23133154414E+02  0.81400390868E+01 -0.35307164641E+00  0.24526062246E+02  0.51100000000E-03 0. -1.
        -11    1    3    3    0    0  0.50337184047E+01  0.18220585188E+02  0.15186717622E+01  0.18964029365E+02  0.51100000000E-03 0.  1.
        -12    1    3    3    0    0 -0.25165672272E+02 -0.11038948390E+02  0.91746295827E+01  0.28971421615E+02  0.00000000000E+00 0.  1.
</event>
<event>
 7    1  0.1692604E-013  0.7246157E+02  0.7816164E-02  0.1226708E+00
        -11   -1    0    0    0    0  0.00000000000E+00  0.00000000000E+00  0.45593999997E+02  0.45594000000E+02  0.51100000000E-03 0. -1.
         11   -1    0    0    0    0 -0.00000000000E+00 -0.00000000000E+00 -0.45593999997E+02  0.45594000000E+02  0.51100000000E-03 0.  1.
    9900012    2    1    2    0    0 -0.62384533864E+01 -0.17210420201E+02 -0.39449205575E+01  0.72461567816E+02  0.69999996771E+02 0.  0.
         12    1    1    2    0    0  0.62384533864E+01  0.17210420201E+02  0.39449205575E+01  0.18726432184E+02  0.00000000000E+00 0. -1.
         11    1    3    3    0    0  0.66973141295E+01 -0.15468449372E+02  0.15413825337E+02  0.22841036629E+02  0.51100000000E-03 0. -1.
        -11    1    3    3    0    0 -0.24750277095E+02 -0.13547311146E+02 -0.76841808171E+01  0.29242990453E+02  0.51100000000E-03 0.  1.
        -12    1    3    3    0    0  0.11814509579E+02  0.11805340316E+02 -0.11674565077E+02  0.20377540733E+02  0.00000000000E+00 0.  1.
</event>
<event>
 7    1  0.1692604E-013  0.7246154E+02  0.7816164E-02  0.1226708E+00
        -11   -1    0    0    0    0  0.00000000000E+00  0.00000000000E+00  0.45593999997E+02  0.45594000000E+02  0.51100000000E-03 0.  1.
         11   -1    0    0    0    0 -0.00000000000E+00 -0.00000000000E+00 -0.45593999997E+02  0.45594000000E+02  0.51100000000E-03 0. -1.
    9900012    2    1    2    0    0 -0.10294508218E+02  0.15640516555E+02 -0.27888919993E+00  0.72461536459E+02  0.69999955923E+02 0.  0.
         12    1    1    2    0    0  0.10294508218E+02 -0.15640516555E+02  0.27888919993E+00  0.18726463541E+02  0.00000000000E+00 0. -1.
         11    1    3    3    0    0  0.19431424397E+02  0.14742892085E+02  0.81016491692E+01  0.25701553273E+02  0.51100000000E-03 0. -1.
        -11    1    3    3    0    0 -0.66288615624E+01 -0.23582462679E+01  0.13215792543E+02  0.14971983966E+02  0.51100000000E-03 0.  1.
        -12    1    3    3    0    0 -0.23097071053E+02  0.32558707377E+01 -0.21596330912E+02  0.31787999220E+02  0.00000000000E+00 0.  1.
</event>
<event>
 7    1  0.1692604E-013  0.7246154E+02  0.7816164E-02  0.1226708E+00
        -11   -1    0    0    0    0  0.00000000000E+00  0.00000000000E+00  0.45593999997E+02  0.45594000000E+02  0.51100000000E-03 0.  1.
         11   -1    0    0    0    0 -0.00000000000E+00 -0.00000000000E+00 -0.45593999997E+02  0.45594000000E+02  0.51100000000E-03 0. -1.
    9900012    2    1    2    0    0 -0.18602492447E+01 -0.15390538767E+02 -0.10504815950E+02  0.72461538270E+02  0.69999958282E+02 0.  0.
         12    1    1    2    0    0  0.18602492447E+01  0.15390538767E+02  0.10504815950E+02  0.18726461730E+02  0.00000000000E+00 0. -1.
         11    1    3    3    0    0  0.22997160865E+01  0.99841193700E+01 -0.89508574021E+01  0.13604748515E+02  0.51100000000E-03 0. -1.
        -11    1    3    3    0    0  0.12171083889E+02  0.36065851066E+01  0.16648940744E+02  0.20936331276E+02  0.51100000000E-03 0.  1.
         12    1    3    3    0    0 -0.16331049220E+02 -0.28981243243E+02 -0.18202899292E+02  0.37920458478E+02  0.00000000000E+00 0. -1.
</event>
<event>
 7    1  0.1692604E-013  0.7246154E+02  0.7816164E-02  0.1226708E+00
        -11   -1    0    0    0    0  0.00000000000E+00  0.00000000000E+00  0.45593999997E+02  0.45594000000E+02  0.51100000000E-03 0.  1.
         11   -1    0    0    0    0 -0.00000000000E+00 -0.00000000000E+00 -0.45593999997E+02  0.45594000000E+02  0.51100000000E-03 0. -1.
    9900012    2    1    2    0    0 -0.10259361324E+01  0.13024851204E+02  0.13415705397E+02  0.72461536236E+02  0.69999955632E+02 0.  0.
         12    1    1    2    0    0  0.10259361324E+01 -0.13024851204E+02 -0.13415705397E+02  0.18726463764E+02  0.00000000000E+00 0. -1.
         11    1    3    3    0    0  0.50858999198E+01  0.14188434034E+02 -0.96878059037E+01  0.17917355324E+02  0.51100000000E-03 0. -1.
        -11    1    3    3    0    0 -0.27415484966E+02  0.17225917190E+01  0.93237339633E+01  0.29008759943E+02  0.51100000000E-03 0.  1.
         12    1    3    3    0    0  0.21303648914E+02 -0.28861745491E+01  0.13779777337E+02  0.25535420968E+02  0.00000000000E+00 0. -1.
</event>
<event>
 7    1  0.1692604E-013  0.7246158E+02  0.7816164E-02  0.1226708E+00
        -11   -1    0    0    0    0  0.00000000000E+00  0.00000000000E+00  0.45593999997E+02  0.45594000000E+02  0.51100000000E-03 0. -1.
         11   -1    0    0    0    0 -0.00000000000E+00 -0.00000000000E+00 -0.45593999997E+02  0.45594000000E+02  0.51100000000E-03 0.  1.
    9900012    2    1    2    0    0 -0.18582045624E+02 -0.40764357717E+00 -0.22847572163E+01  0.72461582607E+02  0.70000016039E+02 0.  0.
         12    1    1    2    0    0  0.18582045624E+02  0.40764357717E+00  0.22847572163E+01  0.18726417393E+02  0.00000000000E+00 0. -1.
         11    1    3    3    0    0 -0.60190969727E+01  0.45119593343E+00 -0.11989390981E+02  0.13423062337E+02  0.51100000000E-03 0. -1.
        -11    1    3    3    0    0  0.11600368798E+02 -0.57278303803E+01 -0.17864440469E+02  0.22057081191E+02  0.51100000000E-03 0.  1.
         12    1    3    3    0    0 -0.24163317449E+02  0.48689908697E+01  0.27569074234E+02  0.36981439079E+02  0.00000000000E+00 0. -1.
</event>
<event>
 7    1  0.1692604E-013  0.7246157E+02  0.7816164E-02  0.1226708E+00
        -11   -1    0    0    0    0  0.00000000000E+00  0.00000000000E+00  0.45593999997E+02  0.45594000000E+02  0.51100000000E-03 0.  1.
         11   -1    0    0    0    0 -0.00000000000E+00 -0.00000000000E+00 -0.45593999997E+02  0.45594000000E+02  0.51100000000E-03 0. -1.
    9900012    2    1    2    0    0 -0.16471280718E+02 -0.13930791277E+00  0.89082297169E+01  0.72461573436E+02  0.70000004092E+02 0.  0.
         12    1    1    2    0    0  0.16471280718E+02  0.13930791277E+00 -0.89082297169E+01  0.18726426564E+02  0.00000000000E+00 0. -1.
         11    1    3    3    0    0  0.13495055735E+02 -0.72278492992E+00  0.67145434375E+01  0.15090528194E+02  0.51100000000E-03 0. -1.
        -11    1    3    3    0    0  0.22858164030E+01 -0.19034573018E+02 -0.24866400362E+01  0.19331924518E+02  0.51100000000E-03 0.  1.
        -12    1    3    3    0    0 -0.32252152856E+02  0.19618050036E+02  0.46803263157E+01  0.38039120724E+02  0.00000000000E+00 0.  1.
</event>
<event>
 7    1  0.1692604E-013  0.7246159E+02  0.7816164E-02  0.1226708E+00
        -11   -1    0    0    0    0  0.00000000000E+00  0.00000000000E+00  0.45593999997E+02  0.45594000000E+02  0.51100000000E-03 0. -1.
         11   -1    0    0    0    0 -0.00000000000E+00 -0.00000000000E+00 -0.45593999997E+02  0.45594000000E+02  0.51100000000E-03 0.  1.
    9900012    2    1    2    0    0  0.58097049936E+01  0.15532413101E+01 -0.17734522419E+02  0.72461587741E+02  0.70000022727E+02 0.  0.
         12    1    1    2    0    0 -0.58097049936E+01 -0.15532413101E+01  0.17734522419E+02  0.18726412259E+02  0.00000000000E+00 0. -1.
         11    1    3    3    0    0  0.70182106117E+00  0.99302042376E+01  0.13669894499E+02  0.16910574351E+02  0.51100000000E-03 0. -1.
        -11    1    3    3    0    0 -0.13063517436E+02  0.76333520787E+01  0.92264938102E+00  0.15158325564E+02  0.51100000000E-03 0.  1.
        -12    1    3    3    0    0  0.18171401368E+02 -0.16010315006E+02 -0.32327066299E+02  0.40392687826E+02  0.00000000000E+00 0.  1.
</event>
<event>
 7    1  0.1692604E-013  0.7246158E+02  0.7816164E-02  0.1226708E+00
        -11   -1    0    0    0    0  0.00000000000E+00  0.00000000000E+00  0.45593999997E+02  0.45594000000E+02  0.51100000000E-03 0. -1.
         11   -1    0    0    0    0 -0.00000000000E+00 -0.00000000000E+00 -0.45593999997E+02  0.45594000000E+02  0.51100000000E-03 0.  1.
    9900012    2    1    2    0    0 -0.89096135773E+01 -0.14614097125E+02  0.75977584046E+01  0.72461575310E+02  0.70000006534E+02 0.  0.
         12    1    1    2    0    0  0.89096135773E+01  0.14614097125E+02 -0.75977584046E+01  0.18726424690E+02  0.00000000000E+00 0. -1.
         11    1    3    3    0    0 -0.15517193069E+02 -0.50627206490E+01 -0.60205605134E+00  0.16333306244E+02  0.51100000000E-03 0. -1.
        -11    1    3    3    0    0 -0.23175743691E+02  0.99731157413E+00 -0.10037463888E+01  0.23218898188E+02  0.51100000000E-03 0.  1.
         12    1    3    3    0    0  0.29783323182E+02 -0.10548688051E+02  0.92035608447E+01  0.32909370878E+02  0.00000000000E+00 0. -1.
</event>
<event>
 7    1  0.1692604E-013  0.7246155E+02  0.7816164E-02  0.1226708E+00
        -11   -1    0    0    0    0  0.00000000000E+00  0.00000000000E+00  0.45593999997E+02  0.45594000000E+02  0.51100000000E-03 0.  1.
         11   -1    0    0    0    0 -0.00000000000E+00 -0.00000000000E+00 -0.45593999997E+02  0.45594000000E+02  0.51100000000E-03 0. -1.
    9900012    2    1    2    0    0  0.17528851086E+02 -0.64973919706E+01 -0.10968320645E+01  0.72461554438E+02  0.69999979344E+02 0.  0.
         12    1    1    2    0    0 -0.17528851086E+02  0.64973919706E+01  0.10968320645E+01  0.18726445562E+02  0.00000000000E+00 0. -1.
         11    1    3    3    0    0 -0.27492294724E+01 -0.82726958588E+01  0.16446104420E+02  0.18613707592E+02  0.51100000000E-03 0. -1.
        -11    1    3    3    0    0  0.41142771624E+01  0.23366387611E+02 -0.57589076504E+01  0.24414757098E+02  0.51100000000E-03 0.  1.
         12    1    3    3    0    0  0.16163803396E+02 -0.21591083723E+02 -0.11784028834E+02  0.29433089748E+02  0.00000000000E+00 0. -1.
</event>
<event>
 7    1  0.1692604E-013  0.7246157E+02  0.7816164E-02  0.1226708E+00
        -11   -1    0    0    0    0  0.00000000000E+00  0.00000000000E+00  0.45593999997E+02  0.45594000000E+02  0.51100000000E-03 0.  1.
         11   -1    0    0    0    0 -0.00000000000E+00 -0.00000000000E+00 -0.45593999997E+02  0.45594000000E+02  0.51100000000E-03 0. -1.
    9900012    2    1    2    0    0 -0.11634818956E+02 -0.20761306313E+01  0.14525838189E+02  0.72461566660E+02  0.69999995266E+02 0.  0.
         12    1    1    2    0    0  0.11634818956E+02  0.20761306313E+01 -0.14525838189E+02  0.18726433340E+02  0.00000000000E+00 0. -1.
         11    1    3    3    0    0 -0.37252965608E+02  0.65585980694E+01  0.11606056424E+02  0.39566389792E+02  0.51100000000E-03 0. -1.
        -11    1    3    3    0    0  0.11865050274E+01 -0.21341401883E+01 -0.56866659056E+01  0.61887412215E+01  0.51100000000E-03 0.  1.
        -12    1    3    3    0    0  0.24431641624E+02 -0.65005885124E+01  0.86064476702E+01  0.26706435647E+02  0.00000000000E+00 0.  1.
</event>
<event>
 7    1  0.1692604E-013  0.7246172E+02  0.7816164E-02  0.1226708E+00
        -11   -1    0    0    0    0  0.00000000000E+00  0.00000000000E+00  0.45593999997E+02  0.45594000000E+02  0.51100000000E-03 0. -1.
         11   -1    0    0    0    0 -0.00000000000E+00 -0.00000000000E+00 -0.45593999997E+02  0.45594000000E+02  0.51100000000E-03 0.  1.
    9900012    2    1    2    0    0 -0.10629127614E+02  0.12937256918E+02 -0.83858638443E+01  0.72461716791E+02  0.70000190839E+02 0.  0.
         12    1    1    2    0    0  0.10629127614E+02 -0.12937256918E+02  0.83858638443E+01  0.18726283209E+02  0.00000000000E+00 0. -1.
         11    1    3    3    0    0 -0.82588189240E+01  0.20273888857E+02 -0.92914392013E+01  0.23781705197E+02  0.51100000000E-03 0. -1.
        -11    1    3    3    0    0 -0.87962577415E+01  0.19312892963E+02  0.13304966098E+01  0.21263400630E+02  0.51100000000E-03 0.  1.
         12    1    3    3    0    0  0.64259490514E+01 -0.26649524901E+02 -0.42492125281E+00  0.27416610964E+02  0.00000000000E+00 0. -1.
</event>
<event>
 7    1  0.1692604E-013  0.7246156E+02  0.7816164E-02  0.1226708E+00
        -11   -1    0    0    0    0  0.00000000000E+00  0.00000000000E+00  0.45593999997E+02  0.45594000000E+02  0.51100000000E-03 0.  1.
         11   -1    0    0    0    0 -0.00000000000E+00 -0.00000000000E+00 -0.45593999997E+02  0.45594000000E+02  0.51100000000E-03 0. -1.
    9900012    2    1    2    0    0  0.82789024321E+01  0.16320084828E+02 -0.39741821578E+01  0.72461560987E+02  0.69999987875E+02 0.  0.
         12    1    1    2    0    0 -0.82789024321E+01 -0.16320084828E+02  0.39741821578E+01  0.18726439013E+02  0.00000000000E+00 0. -1.
         11    1    3    3    0    0  0.78487769857E+01  0.53642478581E+01 -0.25892822365E+02  0.27582906039E+02  0.51100000000E-03 0. -1.
        -11    1    3    3    0    0  0.15108345763E+02  0.25223912880E+01 -0.21346588559E+01  0.15465488618E+02  0.51100000000E-03 0.  1.
         12    1    3    3    0    0 -0.14678220317E+02  0.84334456824E+01  0.24053299063E+02  0.29413166330E+02  0.00000000000E+00 0. -1.
</event>
<event>
 7    1  0.1692604E-013  0.7246159E+02  0.7816164E-02  0.1226708E+00
        -11   -1    0    0    0    0  0.00000000000E+00  0.00000000000E+00  0.45593999997E+02  0.45594000000E+02  0.51100000000E-03 0. -1.
         11   -1    0    0    0    0 -0.00000000000E+00 -0.00000000000E+00 -0.45593999997E+02  0.45594000000E+02  0.51100000000E-03 0.  1.
    9900012    2    1    2    0    0 -0.17160643033E+02 -0.73947175596E+01  0.12284243470E+01  0.72461587010E+02  0.70000021775E+02 0.  0.
         12    1    1    2    0    0  0.17160643033E+02  0.73947175596E+01 -0.12284243470E+01  0.18726412990E+02  0.00000000000E+00 0. -1.
         11    1    3    3    0    0 -0.16211972576E+02 -0.46407339740E+00 -0.11789013858E+02  0.20050542809E+02  0.51100000000E-03 0. -1.
        -11    1    3    3    0    0 -0.16168112359E+02 -0.20489881057E+02  0.17649530920E+02  0.31507920035E+02  0.51100000000E-03 0.  1.
         12    1    3    3    0    0  0.15219441902E+02  0.13559236895E+02 -0.46320927153E+01  0.20903124166E+02  0.00000000000E+00 0. -1.
</event>
<event>
 7    1  0.1692604E-013  0.7246159E+02  0.7816164E-02  0.1226708E+00
        -11   -1    0    0    0    0  0.00000000000E+00  0.00000000000E+00  0.45593999997E+02  0.45594000000E+02  0.51100000000E-03 0. -1.
         11   -1    0    0    0    0 -0.00000000000E+00 -0.00000000000E+00 -0.45593999997E+02  0.45594000000E+02  0.51100000000E-03 0.  1.
    9900012    2    1    2    0    0 -0.17726688967E+01  0.18639513993E+02 -0.32330349232E+00  0.72461591854E+02  0.70000028085E+02 0.  0.
         12    1    1    2    0    0  0.17726688967E+01 -0.18639513993E+02  0.32330349232E+00  0.18726408146E+02  0.00000000000E+00 0. -1.
         11    1    3    3    0    0 -0.24394859087E+01 -0.21737579302E+01 -0.12907888964E+02  0.13315025829E+02  0.51100000000E-03 0. -1.
        -11    1    3    3    0    0 -0.70168732500E+01  0.39514890200E+01 -0.20056372882E+02  0.21612701569E+02  0.51100000000E-03 0.  1.
         12    1    3    3    0    0  0.76836902620E+01  0.16861782903E+02  0.32640958354E+02  0.37533864456E+02  0.00000000000E+00 0. -1.
</event>
<event>
 7    1  0.1692604E-013  0.7246220E+02  0.7816164E-02  0.1226706E+00
        -11   -1    0    0    0    0  0.00000000000E+00  0.00000000000E+00  0.45593999997E+02  0.45594000000E+02  0.51100000000E-03 0.  1.
         11   -1    0    0    0    0 -0.00000000000E+00 -0.00000000000E+00 -0.45593999997E+02  0.45594000000E+02  0.51100000000E-03 0. -1.
    9900012    2    1    2    0    0  0.13146789556E+02 -0.10429632806E+02  0.83090580177E+01  0.72462195312E+02  0.70000814197E+02 0.  0.
         12    1    1    2    0    0 -0.13146789556E+02  0.10429632806E+02 -0.83090580177E+01  0.18725804688E+02  0.00000000000E+00 0. -1.
         11    1    3    3    0    0 -0.11527718931E+02 -0.89760550424E+01 -0.61849653293E+01  0.15865423545E+02  0.51100000000E-03 0. -1.
        -11    1    3    3    0    0 -0.13057990901E+02  0.12175122066E+01 -0.50082797269E+01  0.14038387672E+02  0.51100000000E-03 0.  1.
        -12    1    3    3    0    0  0.37732499387E+02 -0.26710899698E+01  0.19502303074E+02  0.42558384095E+02  0.00000000000E+00 0.  1.
</event>
<event>
 7    1  0.1692604E-013  0.7246146E+02  0.7816164E-02  0.1226708E+00
        -11   -1    0    0    0    0  0.00000000000E+00  0.00000000000E+00  0.45593999997E+02  0.45594000000E+02  0.51100000000E-03 0.  1.
         11   -1    0    0    0    0 -0.00000000000E+00 -0.00000000000E+00 -0.45593999997E+02  0.45594000000E+02  0.51100000000E-03 0. -1.
    9900012    2    1    2    0    0 -0.41650923199E+00 -0.13570287102E+02  0.12897956801E+02  0.72461455695E+02  0.69999850713E+02 0.  0.
         12    1    1    2    0    0  0.41650923199E+00  0.13570287102E+02 -0.12897956801E+02  0.18726544305E+02  0.00000000000E+00 0. -1.
         11    1    3    3    0    0 -0.36971466852E+01 -0.22570310689E+01 -0.20866102186E+02  0.21310966743E+02  0.51100000000E-03 0. -1.
        -11    1    3    3    0    0  0.83355543408E+01 -0.17390102728E+02  0.31596222702E+01  0.19541759189E+02  0.51100000000E-03 0.  1.
        -12    1    3    3    0    0 -0.50549168876E+01  0.60768466949E+01  0.30604436716E+02  0.31608729762E+02  0.00000000000E+00 0.  1.
</event>
<event>
 7    1  0.1692604E-013  0.7246153E+02  0.7816164E-02  0.1226708E+00
        -11   -1    0    0    0    0  0.00000000000E+00  0.00000000000E+00  0.45593999997E+02  0.45594000000E+02  0.51100000000E-03 0.  1.
         11   -1    0    0    0    0 -0.00000000000E+00 -0.00000000000E+00 -0.45593999997E+02  0.45594000000E+02  0.51100000000E-03 0. -1.
    9900012    2    1    2    0    0  0.12912507213E+02  0.11714787173E+02  0.68345844471E+01  0.72461531417E+02  0.69999949355E+02 0.  0.
         12    1    1    2    0    0 -0.12912507213E+02 -0.11714787173E+02 -0.68345844471E+01  0.18726468583E+02  0.00000000000E+00 0. -1.
         11    1    3    3    0    0  0.16700291260E+02 -0.10122718033E+01  0.13169294682E+01  0.16782691257E+02  0.51100000000E-03 0. -1.
        -11    1    3    3    0    0  0.23271034903E+02 -0.11416679965E+01  0.92022418315E+01  0.25050463594E+02  0.51100000000E-03 0.  1.
        -12    1    3    3    0    0 -0.27058818950E+02  0.13868726973E+02 -0.36845868527E+01  0.30628376566E+02  0.00000000000E+00 0.  1.
</event>
<event>
 7    1  0.1692604E-013  0.7246155E+02  0.7816164E-02  0.1226708E+00
        -11   -1    0    0    0    0  0.00000000000E+00  0.00000000000E+00  0.45593999997E+02  0.45594000000E+02  0.51100000000E-03 0. -1.
         11   -1    0    0    0    0 -0.00000000000E+00 -0.00000000000E+00 -0.45593999997E+02  0.45594000000E+02  0.51100000000E-03 0.  1.
    9900012    2    1    2    0    0  0.74928079268E+01  0.17101301292E+02 -0.14433982017E+01  0.72461546121E+02  0.69999968510E+02 0.  0.
         12    1    1    2    0    0 -0.74928079268E+01 -0.17101301292E+02  0.14433982017E+01  0.18726453879E+02  0.00000000000E+00 0. -1.
         11    1    3    3    0    0  0.18795744048E+02  0.23375378417E+02  0.19180816897E+02  0.35603258946E+02  0.51100000000E-03 0. -1.
        -11    1    3    3    0    0  0.79897342493E+01 -0.14741410229E+01  0.12013023449E+00  0.81254770115E+01  0.51100000000E-03 0.  1.
        -12    1    3    3    0    0 -0.19292670370E+02 -0.47999361023E+01 -0.20744345333E+02  0.28732810164E+02  0.00000000000E+00 0.  1.
</event>
<event>
 7    1  0.1692604E-013  0.7246138E+02  0.7816164E-02  0.1226709E+00
        -11   -1    0    0    0    0  0.00000000000E+00  0.00000000000E+00  0.45593999997E+02  0.45594000000E+02  0.51100000000E-03 0. -1.
         11   -1    0    0    0    0 -0.00000000000E+00 -0.00000000000E+00 -0.45593999997E+02  0.45594000000E+02  0.51100000000E-03 0.  1.
    9900012    2    1    2    0    0  0.37064265045E+01  0.63554034058E+01  0.17220850465E+02  0.72461376156E+02  0.69999747098E+02 0.  0.
         12    1    1    2    0    0 -0.37064265045E+01 -0.63554034058E+01 -0.17220850465E+02  0.18726623844E+02  0.00000000000E+00 0. -1.
         11    1    3    3    0    0  0.85033500178E+01  0.22525581037E+02  0.32171640954E+02  0.40183619107E+02  0.51100000000E-03 0. -1.
        -11    1    3    3    0    0 -0.52187738876E+01  0.43712388874E+01  0.10122408687E+00  0.68083461191E+01  0.51100000000E-03 0.  1.
        -12    1    3    3    0    0  0.42185037440E+00 -0.20541416518E+02 -0.15052014576E+02  0.25469410930E+02  0.00000000000E+00 0.  1.
</event>
<event>
 7    1  0.1692604E-013  0.7246167E+02  0.7816164E-02  0.1226708E+00
        -11   -1    0    0    0    0  0.00000000000E+00  0.00000000000E+00  0.45593999997E+02  0.45594000000E+02  0.51100000000E-03 0.  1.
         11   -1    0    0    0    0 -0.00000000000E+00 -0.00000000000E+00 -0.45593999997E+02  0.45594000000E+02  0.51100000000E-03 0. -1.
    9900012    2    1    2    0    0  0.46757676300E+01 -0.16973676496E+02 -0.63801907589E+01  0.72461672788E+02  0.70000133517E+02 0.  0.
         12    1    1    2    0    0 -0.46757676300E+01  0.16973676496E+02  0.63801907589E+01  0.18726327212E+02  0.00000000000E+00 0. -1.
         11    1    3    3    0    0  0.88050998674E+01 -0.54720188302E+00 -0.33236405218E+01  0.94273962553E+01  0.51100000000E-03 0. -1.
        -11    1    3    3    0    0  0.28078488043E+02 -0.53753969094E+01  0.17689139436E+01  0.28643069660E+02  0.51100000000E-03 0.  1.
         12    1    3    3    0    0 -0.32207820281E+02 -0.11051077704E+02 -0.48254641808E+01  0.34391206873E+02  0.00000000000E+00 0. -1.
</event>
<event>
 7    1  0.1692604E-013  0.7246160E+02  0.7816164E-02  0.1226708E+00
        -11   -1    0    0    0    0  0.00000000000E+00  0.00000000000E+00  0.45593999997E+02  0.45594000000E+02  0.51100000000E-03 0.  1.
         11   -1    0    0    0    0 -0.00000000000E+00 -0.00000000000E+00 -0.45593999997E+02  0.45594000000E+02  0.51100000000E-03 0. -1.
    9900012    2    1    2    0    0  0.17273228259E+02 -0.27671805803E+01  0.66825544916E+01  0.72461595183E+02  0.70000032422E+02 0.  0.
         12    1    1    2    0    0 -0.17273228259E+02  0.27671805803E+01 -0.66825544916E+01  0.18726404817E+02  0.00000000000E+00 0. -1.
         11    1    3    3    0    0  0.49679471644E+01  0.88819197583E+00  0.38991074819E+01  0.63774935069E+01  0.51100000000E-03 0. -1.
        -11    1    3    3    0    0  0.30665527490E+02  0.11790115613E+02  0.18206717881E+02  0.37561495959E+02  0.51100000000E-03 0.  1.
         12    1    3    3    0    0 -0.18360246396E+02 -0.15445488169E+02 -0.15423270872E+02  0.28522605717E+02  0.00000000000E+00 0. -1.
</event>
<event>
 7    1  0.1692604E-013  0.7246161E+02  0.7816164E-02  0.1226708E+00
        -11   -1    0    0    0    0  0.00000000000E+00  0.00000000000E+00  0.45593999997E+02  0.45594000000E+02  0.51100000000E-03 0.  1.
         11   -1    0    0    0    0 -0.00000000000E+00 -0.00000000000E+00 -0.45593999997E+02  0.45594000000E+02  0.51100000000E-03 0. -1.
    9900012    2    1    2    0    0 -0.15298650397E+02 -0.10572925389E+02 -0.22004666775E+01  0.72461614634E+02  0.70000057761E+02 0.  0.
         12    1    1    2    0    0  0.15298650397E+02  0.10572925389E+02  0.22004666775E+01  0.18726385366E+02  0.00000000000E+00 0. -1.
         11    1    3    3    0    0 -0.13063232381E+02  0.25729280282E+02 -0.12824115944E+02  0.31576919642E+02  0.51100000000E-03 0. -1.
        -11    1    3    3    0    0  0.25035481150E+00  0.12236452907E+01 -0.91275001470E+00  0.15469641817E+01  0.51100000000E-03 0.  1.
        -12    1    3    3    0    0 -0.24857728277E+01 -0.37525850962E+02  0.11536399281E+02  0.39337730811E+02  0.00000000000E+00 0.  1.
</event>
<event>
 7    1  0.1692604E-013  0.7246153E+02  0.7816164E-02  0.1226708E+00
        -11   -1    0    0    0    0  0.00000000000E+00  0.00000000000E+00  0.45593999997E+02  0.45594000000E+02  0.51100000000E-03 0.  1.
         11   -1    0    0    0    0 -0.00000000000E+00 -0.00000000000E+00 -0.45593999997E+02  0.45594000000E+02  0.51100000000E-03 0. -1.
    9900012    2    1    2    0    0  0.16073457006E+02  0.60653737001E+01  0.74522413223E+01  0.72461529991E+02  0.69999947498E+02 0.  0.
         12    1    1    2    0    0 -0.16073457006E+02 -0.60653737001E+01 -0.74522413223E+01  0.18726470009E+02  0.00000000000E+00 0. -1.
         11    1    3    3    0    0 -0.37162761687E+01 -0.19708123273E+02 -0.10818076857E+02  0.22787093247E+02  0.51100000000E-03 0. -1.
        -11    1    3    3    0    0  0.13508890020E+02 -0.42928133846E+01  0.48794847939E+00  0.14182963382E+02  0.51100000000E-03 0.  1.
         12    1    3    3    0    0  0.62808431553E+01  0.30066310357E+02  0.17782369700E+02  0.35491473362E+02  0.00000000000E+00 0. -1.
</event>
<event>
 7    1  0.1692604E-013  0.7246155E+02  0.7816164E-02  0.1226708E+00
        -11   -1    0    0    0    0  0.00000000000E+00  0.00000000000E+00  0.45593999997E+02  0.45594000000E+02  0.51100000000E-03 0. -1.
         11   -1    0    0    0    0 -0.00000000000E+00 -0.00000000000E+00 -0.45593999997E+02  0.45594000000E+02  0.51100000000E-03 0.  1.
    9900012    2    1    2    0    0 -0.23878823749E+01  0.11318441520E+02 -0.14726531830E+02  0.72461552381E+02  0.69999976665E+02 0.  0.
         12    1    1    2    0    0  0.23878823749E+01 -0.11318441520E+02  0.14726531830E+02  0.18726447619E+02  0.00000000000E+00 0. -1.
         11    1    3    3    0    0  0.11316308118E+02  0.23162267813E+01  0.14830706530E+02  0.18798233757E+02  0.51100000000E-03 0. -1.
        -11    1    3    3    0    0  0.74676359575E+01  0.18725053459E+02 -0.72927692503E+01  0.21437763350E+02  0.51100000000E-03 0.  1.
         12    1    3    3    0    0 -0.21171826450E+02 -0.97228387203E+01 -0.22264469110E+02  0.32225555275E+02  0.00000000000E+00 0. -1.
</event>
<event>
 7    1  0.1692604E-013  0.7246158E+02  0.7816164E-02  0.1226708E+00
        -11   -1    0    0    0    0  0.00000000000E+00  0.00000000000E+00  0.45593999997E+02  0.45594000000E+02  0.51100000000E-03 0.  1.
         11   -1    0    0    0    0 -0.00000000000E+00 -0.00000000000E+00 -0.45593999997E+02  0.45594000000E+02  0.51100000000E-03 0. -1.
    9900012    2    1    2    0    0  0.14669268396E+02 -0.19245487564E+01 -0.11479866178E+02  0.72461584148E+02  0.70000018047E+02 0.  0.
         12    1    1    2    0    0 -0.14669268396E+02  0.19245487564E+01  0.11479866178E+02  0.18726415852E+02  0.00000000000E+00 0. -1.
         11    1    3    3    0    0  0.18194110788E+02  0.89508243548E+01 -0.74009215845E+01  0.21585100522E+02  0.51100000000E-03 0. -1.
        -11    1    3    3    0    0 -0.11259706402E+01  0.19309365774E+02  0.35147284798E+01  0.19658909762E+02  0.51100000000E-03 0.  1.
         12    1    3    3    0    0 -0.23988717516E+01 -0.30184738885E+02 -0.75936730738E+01  0.31217573864E+02  0.00000000000E+00 0. -1.
</event>
<event>
 7    1  0.1692604E-013  0.7246159E+02  0.7816164E-02  0.1226708E+00
        -11   -1    0    0    0    0  0.00000000000E+00  0.00000000000E+00  0.45593999997E+02  0.45594000000E+02  0.51100000000E-03 0. -1.
         11   -1    0    0    0    0 -0.00000000000E+00 -0.00000000000E+00 -0.45593999997E+02  0.45594000000E+02  0.51100000000E-03 0.  1.
    9900012    2    1    2    0    0 -0.47049820006E+01 -0.17875473177E+02  0.30014942116E+01  0.72461591790E+02  0.70000028003E+02 0.  0.
         12    1    1    2    0    0  0.47049820006E+01  0.17875473177E+02 -0.30014942116E+01  0.18726408210E+02  0.00000000000E+00 0. -1.
         11    1    3    3    0    0 -0.31707493107E+01 -0.16851318832E+02 -0.20059016051E+01  0.17263957804E+02  0.51100000000E-03 0. -1.
        -11    1    3    3    0    0 -0.63357107607E+01 -0.27233908530E+02  0.57285223524E+01  0.28541951111E+02  0.51100000000E-03 0.  1.
         12    1    3    3    0    0  0.48014780707E+01  0.26209754184E+02 -0.72112653574E+00  0.26655682875E+02  0.00000000000E+00 0. -1.
</event>
<event>
 7    1  0.1692604E-013  0.7246157E+02  0.7816164E-02  0.1226708E+00
        -11   -1    0    0    0    0  0.00000000000E+00  0.00000000000E+00  0.45593999997E+02  0.45594000000E+02  0.51100000000E-03 0.  1.
         11   -1    0    0    0    0 -0.00000000000E+00 -0.00000000000E+00 -0.45593999997E+02  0.45594000000E+02  0.51100000000E-03 0. -1.
    9900012    2    1    2    0    0  0.13063483974E+02 -0.43188889379E+01  0.12703224837E+02  0.72461565837E+02  0.69999994194E+02 0.  0.
         12    1    1    2    0    0 -0.13063483974E+02  0.43188889379E+01 -0.12703224837E+02  0.18726434163E+02  0.00000000000E+00 0. -1.
         11    1    3    3    0    0  0.25433539363E+02 -0.21548777029E+02  0.13500565597E+02  0.35964982798E+02  0.51100000000E-03 0. -1.
        -11    1    3    3    0    0  0.62424024848E+01  0.13819098083E+02 -0.68369991290E+01  0.16633689246E+02  0.51100000000E-03 0.  1.
        -12    1    3    3    0    0 -0.18612457874E+02  0.34107900086E+01  0.60396583687E+01  0.19862893792E+02  0.00000000000E+00 0.  1.
</event>
<event>
 7    1  0.1692604E-013  0.7246131E+02  0.7816164E-02  0.1226709E+00
        -11   -1    0    0    0    0  0.00000000000E+00  0.00000000000E+00  0.45593999997E+02  0.45594000000E+02  0.51100000000E-03 0. -1.
         11   -1    0    0    0    0 -0.00000000000E+00 -0.00000000000E+00 -0.45593999997E+02  0.45594000000E+02  0.51100000000E-03 0.  1.
    9900012    2    1    2    0    0  0.15632150552E+02 -0.23995326886E+01 -0.10028312705E+02  0.72461309323E+02  0.69999660035E+02 0.  0.
         12    1    1    2    0    0 -0.15632150552E+02  0.23995326886E+01  0.10028312705E+02  0.18726690677E+02  0.00000000000E+00 0. -1.
         11    1    3    3    0    0  0.11554160775E+02  0.19810412379E+01 -0.23387916567E+02  0.26161379879E+02  0.51100000000E-03 0. -1.
        -11    1    3    3    0    0 -0.83934319280E+01 -0.36316000943E+01 -0.13713333316E+02  0.16483134704E+02  0.51100000000E-03 0.  1.
         12    1    3    3    0    0  0.12471421705E+02 -0.74897383219E+00  0.27072937177E+02  0.29816794740E+02  0.00000000000E+00 0. -1.
</event>
<event>
 7    1  0.1692604E-013  0.7246157E+02  0.7816164E-02  0.1226708E+00
        -11   -1    0    0    0    0  0.00000000000E+00  0.00000000000E+00  0.45593999997E+02  0.45594000000E+02  0.51100000000E-03 0.  1.
         11   -1    0    0    0    0 -0.00000000000E+00 -0.00000000000E+00 -0.45593999997E+02  0.45594000000E+02  0.51100000000E-03 0. -1.
    9900012    2    1    2    0    0 -0.12081474474E+02  0.13898875325E+02  0.33968108000E+01  0.72461572567E+02  0.70000002961E+02 0.  0.
         12    1    1    2    0    0  0.12081474474E+02 -0.13898875325E+02 -0.33968108000E+01  0.18726427433E+02  0.00000000000E+00 0. -1.
         11    1    3    3    0    0  0.48738083660E+01 -0.31002509213E+00  0.38555758382E+01  0.62221852151E+01  0.51100000000E-03 0. -1.
        -11    1    3    3    0    0  0.59458590172E+01 -0.15309454515E+02  0.18169776985E+02  0.24492313752E+02  0.51100000000E-03 0.  1.
         12    1    3    3    0    0 -0.22901141858E+02  0.29518354932E+02 -0.18628542023E+02  0.41747073600E+02  0.00000000000E+00 0. -1.
</event>
<event>
 7    1  0.1692604E-013  0.7246159E+02  0.7816164E-02  0.1226708E+00
        -11   -1    0    0    0    0  0.00000000000E+00  0.00000000000E+00  0.45593999997E+02  0.45594000000E+02  0.51100000000E-03 0. -1.
         11   -1    0    0    0    0 -0.00000000000E+00 -0.00000000000E+00 -0.45593999997E+02  0.45594000000E+02  0.51100000000E-03 0.  1.
    9900012    2    1    2    0    0  0.43659763602E+01  0.12183838292E+02 -0.13534055632E+02  0.72461592791E+02  0.70000029306E+02 0.  0.
         12    1    1    2    0    0 -0.43659763602E+01 -0.12183838292E+02  0.13534055632E+02  0.18726407209E+02  0.00000000000E+00 0. -1.
         11    1    3    3    0    0  0.20268549241E+00  0.27547525130E+02 -0.96780613509E+01  0.29198837202E+02  0.51100000000E-03 0. -1.
        -11    1    3    3    0    0  0.32716976651E+01 -0.20426782433E+02 -0.18493750906E+02  0.27748446244E+02  0.51100000000E-03 0.  1.
         12    1    3    3    0    0  0.89159320268E+00  0.50630955951E+01  0.14637756625E+02  0.15514309345E+02  0.00000000000E+00 0. -1.
</event>
<event>
 7    1  0.1692604E-013  0.7246155E+02  0.7816164E-02  0.1226708E+00
        -11   -1    0    0    0    0  0.00000000000E+00  0.00000000000E+00  0.45593999997E+02  0.45594000000E+02  0.51100000000E-03 0. -1.
         11   -1    0    0    0    0 -0.00000000000E+00 -0.00000000000E+00 -0.45593999997E+02  0.45594000000E+02  0.51100000000E-03 0.  1.
    9900012    2    1    2    0    0 -0.82160245596E+01 -0.11986470229E+02 -0.11811070317E+02  0.72461550520E+02  0.69999974240E+02 0.  0.
         12    1    1    2    0    0  0.82160245596E+01  0.11986470229E+02  0.11811070317E+02  0.18726449480E+02  0.00000000000E+00 0. -1.
         11    1    3    3    0    0 -0.20284435267E+02  0.25334901324E+01  0.19445493873E+01  0.20534316617E+02  0.51100000000E-03 0. -1.
        -11    1    3    3    0    0 -0.44016842341E+01  0.11314514076E+02 -0.17246436420E+02  0.21091055505E+02  0.51100000000E-03 0.  1.
        -12    1    3    3    0    0  0.16470094941E+02 -0.25834474437E+02  0.34908167155E+01  0.30836178397E+02  0.00000000000E+00 0.  1.
</event>
<event>
 7    1  0.1692604E-013  0.7246156E+02  0.7816164E-02  0.1226708E+00
        -11   -1    0    0    0    0  0.00000000000E+00  0.00000000000E+00  0.45593999997E+02  0.45594000000E+02  0.51100000000E-03 0. -1.
         11   -1    0    0    0    0 -0.00000000000E+00 -0.00000000000E+00 -0.45593999997E+02  0.45594000000E+02  0.51100000000E-03 0.  1.
    9900012    2    1    2    0    0 -0.10248880289E+02  0.76055211764E+01 -0.13703863466E+02  0.72461564850E+02  0.69999992907E+02 0.  0.
         12    1    1    2    0    0  0.10248880289E+02 -0.76055211764E+01  0.13703863466E+02  0.18726435150E+02  0.00000000000E+00 0. -1.
         11    1    3    3    0    0 -0.10043497831E+00 -0.31353998357E+00 -0.18878025217E+01  0.19162967224E+01  0.51100000000E-03 0. -1.
        -11    1    3    3    0    0 -0.17791631565E+02 -0.27034488893E+02 -0.12670711118E+02  0.34755613416E+02  0.51100000000E-03 0.  1.
         12    1    3    3    0    0  0.76431862549E+01  0.34953550053E+02  0.85465017325E+00  0.35789654711E+02  0.00000000000E+00 0. -1.
</event>
<event>
 7    1  0.1692604E-013  0.7246157E+02  0.7816164E-02  0.1226708E+00
        -11   -1    0    0    0    0  0.00000000000E+00  0.00000000000E+00  0.45593999997E+02  0.45594000000E+02  0.51100000000E-03 0.  1.
         11   -1    0    0    0    0 -0.00000000000E+00 -0.00000000000E+00 -0.45593999997E+02  0.45594000000E+02  0.51100000000E-03 0. -1.
    9900012    2    1    2    0    0  0.46622302261E+01 -0.15389683295E+02  0.95969055113E+01  0.72461565796E+02  0.69999994140E+02 0.  0.
         12    1    1    2    0    0 -0.46622302261E+01  0.15389683295E+02 -0.95969055113E+01  0.18726434204E+02  0.00000000000E+00 0. -1.
         11    1    3    3    0    0  0.60423473772E+01  0.95672166104E+01  0.26113478257E+01  0.11612955404E+02  0.51100000000E-03 0. -1.
        -11    1    3    3    0    0 -0.12569482681E+02  0.11761352684E+02 -0.88135128473E+01  0.19339062045E+02  0.51100000000E-03 0.  1.
        -12    1    3    3    0    0  0.11189365530E+02 -0.36718252589E+02  0.15799070533E+02  0.41509548346E+02  0.00000000000E+00 0.  1.
</event>
<event>
 7    1  0.1692604E-013  0.7246157E+02  0.7816164E-02  0.1226708E+00
        -11   -1    0    0    0    0  0.00000000000E+00  0.00000000000E+00  0.45593999997E+02  0.45594000000E+02  0.51100000000E-03 0.  1.
         11   -1    0    0    0    0 -0.00000000000E+00 -0.00000000000E+00 -0.45593999997E+02  0.45594000000E+02  0.51100000000E-03 0. -1.
    9900012    2    1    2    0    0 -0.16085464483E+02 -0.38156483156E+01  0.87964706582E+01  0.72461568527E+02  0.69999997697E+02 0.  0.
         12    1    1    2    0    0  0.16085464483E+02  0.38156483156E+01 -0.87964706582E+01  0.18726431473E+02  0.00000000000E+00 0. -1.
         11    1    3    3    0    0 -0.17230628157E+02  0.64699089128E+00 -0.21487358719E+01  0.17376139100E+02  0.51100000000E-03 0. -1.
        -11    1    3    3    0    0  0.10884209316E+02  0.10605978392E+02  0.27016909505E+02  0.30997841692E+02  0.51100000000E-03 0.  1.
        -12    1    3    3    0    0 -0.97390456415E+01 -0.15068617599E+02 -0.16071702975E+02  0.24087587734E+02  0.00000000000E+00 0.  1.
</event>
<event>
 7    1  0.1692604E-013  0.7246172E+02  0.7816164E-02  0.1226708E+00
        -11   -1    0    0    0    0  0.00000000000E+00  0.00000000000E+00  0.45593999997E+02  0.45594000000E+02  0.51100000000E-03 0.  1.
         11   -1    0    0    0    0 -0.00000000000E+00 -0.00000000000E+00 -0.45593999997E+02  0.45594000000E+02  0.51100000000E-03 0. -1.
    9900012    2    1    2    0    0 -0.54106939809E+01 -0.17899865697E+02  0.99643358845E+00  0.72461716834E+02  0.70000190895E+02 0.  0.
         12    1    1    2    0    0  0.54106939809E+01  0.17899865697E+02 -0.99643358845E+00  0.18726283166E+02  0.00000000000E+00 0. -1.
         11    1    3    3    0    0  0.99781093537E+01 -0.12538390662E+01 -0.13879287874E+01  0.10151902544E+02  0.51100000000E-03 0. -1.
        -11    1    3    3    0    0 -0.30128267338E+02  0.68083366796E+01  0.11780732621E+02  0.33058306104E+02  0.51100000000E-03 0.  1.
         12    1    3    3    0    0  0.14739464003E+02 -0.23454363310E+02 -0.93963702451E+01  0.29251508186E+02  0.00000000000E+00 0. -1.
</event>
<event>
 7    1  0.1692604E-013  0.7246156E+02  0.7816164E-02  0.1226708E+00
        -11   -1    0    0    0    0  0.00000000000E+00  0.00000000000E+00  0.45593999997E+02  0.45594000000E+02  0.51100000000E-03 0. -1.
         11   -1    0    0    0    0 -0.00000000000E+00 -0.00000000000E+00 -0.45593999997E+02  0.45594000000E+02  0.51100000000E-03 0.  1.
    9900012    2    1    2    0    0  0.48222667811E+00 -0.10163522101E+02 -0.15721002565E+02  0.72461557580E+02  0.69999983438E+02 0.  0.
         12    1    1    2    0    0 -0.48222667811E+00  0.10163522101E+02  0.15721002565E+02  0.18726442420E+02  0.00000000000E+00 0. -1.
         11    1    3    3    0    0 -0.37212312686E+01 -0.26305864158E+01 -0.15308830384E+01  0.48074057644E+01  0.51100000000E-03 0. -1.
        -11    1    3    3    0    0  0.19619339106E+02  0.21460867946E+01 -0.34892463819E+02  0.40087506621E+02  0.51100000000E-03 0.  1.
         12    1    3    3    0    0 -0.15415881159E+02 -0.96790224795E+01  0.20702344293E+02  0.27566645195E+02  0.00000000000E+00 0. -1.
</event>
<event>
 7    1  0.1692604E-013  0.7246160E+02  0.7816164E-02  0.1226708E+00
        -11   -1    0    0    0    0  0.00000000000E+00  0.00000000000E+00  0.45593999997E+02  0.45594000000E+02  0.51100000000E-03 0. -1.
         11   -1    0    0    0    0 -0.00000000000E+00 -0.00000000000E+00 -0.45593999997E+02  0.45594000000E+02  0.51100000000E-03 0.  1.
    9900012    2    1    2    0    0  0.15479375236E+02 -0.46184840735E+01 -0.94729499495E+01  0.72461595284E+02  0.70000032554E+02 0.  0.
         12    1    1    2    0    0 -0.15479375236E+02  0.46184840735E+01  0.94729499495E+01  0.18726404716E+02  0.00000000000E+00 0. -1.
         11    1    3    3    0    0  0.29820238629E+02  0.16808202392E+00 -0.96242699838E+01  0.31335306867E+02  0.51100000000E-03 0. -1.
        -11    1    3    3    0    0 -0.27241657835E+01  0.73295056522E+01  0.16146503015E+02  0.17940242256E+02  0.51100000000E-03 0.  1.
        -12    1    3    3    0    0 -0.11616697610E+02 -0.12116071750E+02 -0.15995182981E+02  0.23186046161E+02  0.00000000000E+00 0.  1.
</event>
<event>
 7    1  0.1692604E-013  0.7246159E+02  0.7816164E-02  0.1226708E+00
        -11   -1    0    0    0    0  0.00000000000E+00  0.00000000000E+00  0.45593999997E+02  0.45594000000E+02  0.51100000000E-03 0. -1.
         11   -1    0    0    0    0 -0.00000000000E+00 -0.00000000000E+00 -0.45593999997E+02  0.45594000000E+02  0.51100000000E-03 0.  1.
    9900012    2    1    2    0    0  0.12630490105E+02 -0.17101846389E+01 -0.13719485143E+02  0.72461593928E+02  0.70000030787E+02 0.  0.
         12    1    1    2    0    0 -0.12630490105E+02  0.17101846389E+01  0.13719485143E+02  0.18726406072E+02  0.00000000000E+00 0. -1.
         11    1    3    3    0    0 -0.25762109109E+01  0.24054390773E+02 -0.55980027017E+01  0.24831194345E+02  0.51100000000E-03 0. -1.
        -11    1    3    3    0    0  0.46239962876E+01  0.74915331570E+01 -0.91745219961E+01  0.12715198183E+02  0.51100000000E-03 0.  1.
         12    1    3    3    0    0  0.10582704728E+02 -0.33256108568E+02  0.10530395546E+01  0.34915201400E+02  0.00000000000E+00 0. -1.
</event>
<event>
 7    1  0.1692604E-013  0.7246159E+02  0.7816164E-02  0.1226708E+00
        -11   -1    0    0    0    0  0.00000000000E+00  0.00000000000E+00  0.45593999997E+02  0.45594000000E+02  0.51100000000E-03 0. -1.
         11   -1    0    0    0    0 -0.00000000000E+00 -0.00000000000E+00 -0.45593999997E+02  0.45594000000E+02  0.51100000000E-03 0.  1.
    9900012    2    1    2    0    0  0.63065959841E+00  0.85716389569E+01 -0.16637541227E+02  0.72461588063E+02  0.70000023148E+02 0.  0.
         12    1    1    2    0    0 -0.63065959841E+00 -0.85716389569E+01  0.16637541227E+02  0.18726411937E+02  0.00000000000E+00 0. -1.
         11    1    3    3    0    0 -0.39207732602E+01 -0.74678096013E+01 -0.37246814919E+01  0.92202980254E+01  0.51100000000E-03 0. -1.
        -11    1    3    3    0    0 -0.12853426525E+02  0.30415442915E+02 -0.21148266722E+02  0.39211719253E+02  0.51100000000E-03 0.  1.
         12    1    3    3    0    0  0.17404859383E+02 -0.14375994357E+02  0.82354069864E+01  0.24029570786E+02  0.00000000000E+00 0. -1.
</event>
<event>
 7    1  0.1692604E-013  0.7246159E+02  0.7816164E-02  0.1226708E+00
        -11   -1    0    0    0    0  0.00000000000E+00  0.00000000000E+00  0.45593999997E+02  0.45594000000E+02  0.51100000000E-03 0. -1.
         11   -1    0    0    0    0 -0.00000000000E+00 -0.00000000000E+00 -0.45593999997E+02  0.45594000000E+02  0.51100000000E-03 0.  1.
    9900012    2    1    2    0    0 -0.56376095159E+01  0.17608193399E+02  0.29744687853E+01  0.72461586025E+02  0.70000020492E+02 0.  0.
         12    1    1    2    0    0  0.56376095159E+01 -0.17608193399E+02 -0.29744687853E+01  0.18726413975E+02  0.00000000000E+00 0. -1.
         11    1    3    3    0    0  0.25660689011E+01 -0.37407306754E+01 -0.41024616729E+00  0.45547862485E+01  0.51100000000E-03 0. -1.
        -11    1    3    3    0    0  0.26442227825E+01  0.21993728500E+01 -0.28751560677E+02  0.28956543245E+02  0.51100000000E-03 0.  1.
         12    1    3    3    0    0 -0.10847901199E+02  0.19149551224E+02  0.32136275630E+02  0.38950256531E+02  0.00000000000E+00 0. -1.
</event>
<event>
 7    1  0.1692604E-013  0.7246153E+02  0.7816164E-02  0.1226708E+00
        -11   -1    0    0    0    0  0.00000000000E+00  0.00000000000E+00  0.45593999997E+02  0.45594000000E+02  0.51100000000E-03 0. -1.
         11   -1    0    0    0    0 -0.00000000000E+00 -0.00000000000E+00 -0.45593999997E+02  0.45594000000E+02  0.51100000000E-03 0.  1.
    9900012    2    1    2    0    0  0.31925531441E+01 -0.15757264169E+02 -0.96019176407E+01  0.72461532313E+02  0.69999950522E+02 0.  0.
         12    1    1    2    0    0 -0.31925531441E+01  0.15757264169E+02  0.96019176407E+01  0.18726467687E+02  0.00000000000E+00 0. -1.
         11    1    3    3    0    0  0.17215419761E+02  0.70343934182E+01 -0.15748843948E+02  0.24369642062E+02  0.51100000000E-03 0. -1.
        -11    1    3    3    0    0  0.46521763767E+01  0.88895980249E+01  0.52071809376E+01  0.11304089157E+02  0.51100000000E-03 0.  1.
        -12    1    3    3    0    0 -0.18675042993E+02 -0.31681255612E+02  0.93974536918E+00  0.36787801094E+02  0.00000000000E+00 0.  1.
</event>
<event>
 7    1  0.1692604E-013  0.7246154E+02  0.7816164E-02  0.1226708E+00
        -11   -1    0    0    0    0  0.00000000000E+00  0.00000000000E+00  0.45593999997E+02  0.45594000000E+02  0.51100000000E-03 0. -1.
         11   -1    0    0    0    0 -0.00000000000E+00 -0.00000000000E+00 -0.45593999997E+02  0.45594000000E+02  0.51100000000E-03 0.  1.
    9900012    2    1    2    0    0 -0.94871552957E+00 -0.15113240215E+01 -0.18641252861E+02  0.72461535580E+02  0.69999954778E+02 0.  0.
         12    1    1    2    0    0  0.94871552957E+00  0.15113240215E+01  0.18641252861E+02  0.18726464420E+02  0.00000000000E+00 0. -1.
         11    1    3    3    0    0 -0.15405365337E+02 -0.23058781779E+02  0.15470083071E+01  0.27774555500E+02  0.51100000000E-03 0. -1.
        -11    1    3    3    0    0 -0.85371238132E+01  0.11202250598E+02 -0.37061267886E+01  0.14563937568E+02  0.51100000000E-03 0.  1.
        -12    1    3    3    0    0  0.22993773620E+02  0.10345207159E+02 -0.16482134379E+02  0.30123042512E+02  0.00000000000E+00 0.  1.
</event>
<event>
 7    1  0.1692604E-013  0.7246156E+02  0.7816164E-02  0.1226708E+00
        -11   -1    0    0    0    0  0.00000000000E+00  0.00000000000E+00  0.45593999997E+02  0.45594000000E+02  0.51100000000E-03 0.  1.
         11   -1    0    0    0    0 -0.00000000000E+00 -0.00000000000E+00 -0.45593999997E+02  0.45594000000E+02  0.51100000000E-03 0. -1.
    9900012    2    1    2    0    0 -0.65829996562E+01  0.61949197533E+01  0.16400206157E+02  0.72461556739E+02  0.69999982342E+02 0.  0.
         12    1    1    2    0    0  0.65829996562E+01 -0.61949197533E+01 -0.16400206157E+02  0.18726443261E+02  0.00000000000E+00 0. -1.
         11    1    3    3    0    0  0.15435892482E+02  0.10236807205E+02 -0.83795558883E+01  0.20329189743E+02  0.51100000000E-03 0. -1.
        -11    1    3    3    0    0 -0.11262172555E+02  0.11673819818E+02 -0.48319595714E+01  0.16925201132E+02  0.51100000000E-03 0.  1.
        -12    1    3    3    0    0 -0.10756719583E+02 -0.15715707269E+02  0.29611721616E+02  0.35207165865E+02  0.00000000000E+00 0.  1.
</event>
<event>
 7    1  0.1692604E-013  0.7246156E+02  0.7816164E-02  0.1226708E+00
        -11   -1    0    0    0    0  0.00000000000E+00  0.00000000000E+00  0.45593999997E+02  0.45594000000E+02  0.51100000000E-03 0.  1.
         11   -1    0    0    0    0 -0.00000000000E+00 -0.00000000000E+00 -0.45593999997E+02  0.45594000000E+02  0.51100000000E-03 0. -1.
    9900012    2    1    2    0    0 -0.41724083733E+01 -0.15727550237E+02 -0.92690286619E+01  0.72461555585E+02  0.69999980838E+02 0.  0.
         12    1    1    2    0    0  0.41724083733E+01  0.15727550237E+02  0.92690286619E+01  0.18726444415E+02  0.00000000000E+00 0. -1.
         11    1    3    3    0    0 -0.12031600799E+02 -0.22357588243E+02 -0.79778696896E+01  0.26613296956E+02  0.51100000000E-03 0. -1.
        -11    1    3    3    0    0  0.50600488031E+00 -0.18349979419E+02  0.50670721292E+01  0.19043450471E+02  0.51100000000E-03 0.  1.
         12    1    3    3    0    0  0.73531875453E+01  0.24980017425E+02 -0.63582311015E+01  0.26804808158E+02  0.00000000000E+00 0. -1.
</event>
<event>
 7    1  0.1692604E-013  0.7246157E+02  0.7816164E-02  0.1226708E+00
        -11   -1    0    0    0    0  0.00000000000E+00  0.00000000000E+00  0.45593999997E+02  0.45594000000E+02  0.51100000000E-03 0.  1.
         11   -1    0    0    0    0 -0.00000000000E+00 -0.00000000000E+00 -0.45593999997E+02  0.45594000000E+02  0.51100000000E-03 0. -1.
    9900012    2    1    2    0    0  0.11950779140E+02 -0.14398186871E+02  0.74191340368E+00  0.72461565670E+02  0.69999993976E+02 0.  0.
         12    1    1    2    0    0 -0.11950779140E+02  0.14398186871E+02 -0.74191340368E+00  0.18726434330E+02  0.00000000000E+00 0. -1.
         11    1    3    3    0    0 -0.55157121659E+01  0.40100873983E+01 -0.86923830556E+01  0.11048140345E+02  0.51100000000E-03 0. -1.
        -11    1    3    3    0    0 -0.13449922956E+02 -0.92095955325E+01  0.21494679251E+02  0.26976625322E+02  0.51100000000E-03 0.  1.
         12    1    3    3    0    0  0.30916414262E+02 -0.91986787368E+01 -0.12060382792E+02  0.34436800003E+02  0.00000000000E+00 0. -1.
</event>
<event>
 7    1  0.1692604E-013  0.7246151E+02  0.7816164E-02  0.1226708E+00
        -11   -1    0    0    0    0  0.00000000000E+00  0.00000000000E+00  0.45593999997E+02  0.45594000000E+02  0.51100000000E-03 0.  1.
         11   -1    0    0    0    0 -0.00000000000E+00 -0.00000000000E+00 -0.45593999997E+02  0.45594000000E+02  0.51100000000E-03 0. -1.
    9900012    2    1    2    0    0  0.85153594963E+01 -0.16657514015E+02  0.83515042421E+00  0.72461505487E+02  0.69999915576E+02 0.  0.
         12    1    1    2    0    0 -0.85153594963E+01  0.16657514015E+02 -0.83515042421E+00  0.18726494513E+02  0.00000000000E+00 0. -1.
         11    1    3    3    0    0 -0.57947801038E+01 -0.34470763210E+02  0.14045997915E+02  0.37670984197E+02  0.51100000000E-03 0. -1.
        -11    1    3    3    0    0  0.87144919417E+01 -0.82340811083E+00 -0.12574963275E+02  0.15321555807E+02  0.51100000000E-03 0.  1.
        -12    1    3    3    0    0  0.55956476585E+01  0.18636657305E+02 -0.63588421618E+00  0.19468965483E+02  0.00000000000E+00 0.  1.
</event>
<event>
 7    1  0.1692604E-013  0.7246156E+02  0.7816164E-02  0.1226708E+00
        -11   -1    0    0    0    0  0.00000000000E+00  0.00000000000E+00  0.45593999997E+02  0.45594000000E+02  0.51100000000E-03 0. -1.
         11   -1    0    0    0    0 -0.00000000000E+00 -0.00000000000E+00 -0.45593999997E+02  0.45594000000E+02  0.51100000000E-03 0.  1.
    9900012    2    1    2    0    0  0.71643804294E+01  0.15206694989E+01 -0.17234807990E+02  0.72461564431E+02  0.69999992362E+02 0.  0.
         12    1    1    2    0    0 -0.71643804294E+01 -0.15206694989E+01  0.17234807990E+02  0.18726435569E+02  0.00000000000E+00 0. -1.
         11    1    3    3    0    0  0.18897069947E+02 -0.33978181343E+01  0.76753827059E+01  0.20677425386E+02  0.51100000000E-03 0. -1.
        -11    1    3    3    0    0 -0.62253053065E+01 -0.91323285915E+01  0.92669686984E+01  0.14423264567E+02  0.51100000000E-03 0.  1.
        -12    1    3    3    0    0 -0.55073842110E+01  0.14050816225E+02 -0.34177159395E+02  0.37360874477E+02  0.00000000000E+00 0.  1.
</event>
<event>
 7    1  0.1692604E-013  0.7246157E+02  0.7816164E-02  0.1226708E+00
        -11   -1    0    0    0    0  0.00000000000E+00  0.00000000000E+00  0.45593999997E+02  0.45594000000E+02  0.51100000000E-03 0.  1.
         11   -1    0    0    0    0 -0.00000000000E+00 -0.00000000000E+00 -0.45593999997E+02  0.45594000000E+02  0.51100000000E-03 0. -1.
    9900012    2    1    2    0    0  0.94504623990E+01  0.85933105356E+00  0.16144025377E+02  0.72461568285E+02  0.69999997382E+02 0.  0.
         12    1    1    2    0    0 -0.94504623990E+01 -0.85933105356E+00 -0.16144025377E+02  0.18726431715E+02  0.00000000000E+00 0. -1.
         11    1    3    3    0    0  0.18308637188E+02  0.22625292014E+02  0.59722896447E+01  0.29711584917E+02  0.51100000000E-03 0. -1.
        -11    1    3    3    0    0 -0.55297681494E+01  0.12729663377E+01  0.17458919718E+02  0.18357904485E+02  0.51100000000E-03 0.  1.
        -12    1    3    3    0    0 -0.33284066395E+01 -0.23038927298E+02 -0.72871839860E+01  0.24392078883E+02  0.00000000000E+00 0.  1.
</event>
<event>
 7    1  0.1692604E-013  0.7246158E+02  0.7816164E-02  0.1226708E+00
        -11   -1    0    0    0    0  0.00000000000E+00  0.00000000000E+00  0.45593999997E+02  0.45594000000E+02  0.51100000000E-03 0.  1.
         11   -1    0    0    0    0 -0.00000000000E+00 -0.00000000000E+00 -0.45593999997E+02  0.45594000000E+02  0.51100000000E-03 0. -1.
    9900012    2    1    2    0    0  0.18267150452E+02 -0.11206709460E+01 -0.39666324620E+01  0.72461578503E+02  0.70000010694E+02 0.  0.
         12    1    1    2    0    0 -0.18267150452E+02  0.11206709460E+01  0.39666324620E+01  0.18726421497E+02  0.00000000000E+00 0. -1.
         11    1    3    3    0    0  0.83068872313E+01 -0.19990598104E+02  0.11047337950E+02  0.24303745886E+02  0.51100000000E-03 0. -1.
        -11    1    3    3    0    0  0.18890028814E+02  0.17454342858E+01 -0.20648285847E+02  0.28039818796E+02  0.51100000000E-03 0.  1.
        -12    1    3    3    0    0 -0.89297655937E+01  0.17124492873E+02  0.56343154344E+01  0.20118013821E+02  0.00000000000E+00 0.  1.
</event>
<event>
 7    1  0.1692604E-013  0.7246158E+02  0.7816164E-02  0.1226708E+00
        -11   -1    0    0    0    0  0.00000000000E+00  0.00000000000E+00  0.45593999997E+02  0.45594000000E+02  0.51100000000E-03 0.  1.
         11   -1    0    0    0    0 -0.00000000000E+00 -0.00000000000E+00 -0.45593999997E+02  0.45594000000E+02  0.51100000000E-03 0. -1.
    9900012    2    1    2    0    0  0.18626127301E+02  0.42551142452E+00  0.18881793690E+01  0.72461577503E+02  0.70000009390E+02 0.  0.
         12    1    1    2    0    0 -0.18626127301E+02 -0.42551142452E+00 -0.18881793690E+01  0.18726422497E+02  0.00000000000E+00 0. -1.
         11    1    3    3    0    0 -0.67398754338E+01 -0.18425969242E+02 -0.18519488645E+02  0.26979876266E+02  0.51100000000E-03 0. -1.
        -11    1    3    3    0    0  0.70153822508E+01 -0.54645183104E+01  0.97786032349E+01  0.13217323102E+02  0.51100000000E-03 0.  1.
        -12    1    3    3    0    0  0.18350620484E+02  0.24315998977E+02  0.10629064779E+02  0.32264378136E+02  0.00000000000E+00 0.  1.
</event>
<event>
 7    1  0.1692604E-013  0.7246134E+02  0.7816164E-02  0.1226709E+00
        -11   -1    0    0    0    0  0.00000000000E+00  0.00000000000E+00  0.45593999997E+02  0.45594000000E+02  0.51100000000E-03 0. -1.
         11   -1    0    0    0    0 -0.00000000000E+00 -0.00000000000E+00 -0.45593999997E+02  0.45594000000E+02  0.51100000000E-03 0.  1.
    9900012    2    1    2    0    0  0.66150376999E+01 -0.62055490601E+00 -0.17508396238E+02  0.72461341169E+02  0.69999701521E+02 0.  0.
         12    1    1    2    0    0 -0.66150376999E+01  0.62055490601E+00  0.17508396238E+02  0.18726658831E+02  0.00000000000E+00 0. -1.
         11    1    3    3    0    0 -0.11897741618E+02  0.95991762459E+01  0.12209498864E+02  0.19564567539E+02  0.51100000000E-03 0. -1.
        -11    1    3    3    0    0 -0.94797158883E+01  0.58746170529E+01 -0.10520246364E+02  0.15331396631E+02  0.51100000000E-03 0.  1.
         12    1    3    3    0    0  0.27992495206E+02 -0.16094348205E+02 -0.19197648738E+02  0.37565376999E+02  0.00000000000E+00 0. -1.
</event>
<event>
 7    1  0.1692604E-013  0.7246145E+02  0.7816164E-02  0.1226708E+00
        -11   -1    0    0    0    0  0.00000000000E+00  0.00000000000E+00  0.45593999997E+02  0.45594000000E+02  0.51100000000E-03 0.  1.
         11   -1    0    0    0    0 -0.00000000000E+00 -0.00000000000E+00 -0.45593999997E+02  0.45594000000E+02  0.51100000000E-03 0. -1.
    9900012    2    1    2    0    0 -0.69858454735E+01  0.67812569527E+00  0.17361502825E+02  0.72461450083E+02  0.69999843402E+02 0.  0.
         12    1    1    2    0    0  0.69858454735E+01 -0.67812569527E+00 -0.17361502825E+02  0.18726549917E+02  0.00000000000E+00 0. -1.
         11    1    3    3    0    0  0.12484335375E+00  0.22235395680E+02  0.22195143791E+02  0.31417396695E+02  0.51100000000E-03 0. -1.
        -11    1    3    3    0    0  0.76939601064E+01 -0.13235942530E+02  0.10172508348E+02  0.18381162181E+02  0.51100000000E-03 0.  1.
         12    1    3    3    0    0 -0.14804648934E+02 -0.83213274555E+01 -0.15006149313E+02  0.22662891207E+02  0.00000000000E+00 0. -1.
</event>
<event>
 7    1  0.1692604E-013  0.7246165E+02  0.7816164E-02  0.1226708E+00
        -11   -1    0    0    0    0  0.00000000000E+00  0.00000000000E+00  0.45593999997E+02  0.45594000000E+02  0.51100000000E-03 0.  1.
         11   -1    0    0    0    0 -0.00000000000E+00 -0.00000000000E+00 -0.45593999997E+02  0.45594000000E+02  0.51100000000E-03 0. -1.
    9900012    2    1    2    0    0  0.11877643615E+01 -0.53057505568E+01  0.17919662764E+02  0.72461652606E+02  0.70000107227E+02 0.  0.
         12    1    1    2    0    0 -0.11877643615E+01  0.53057505568E+01 -0.17919662764E+02  0.18726347394E+02  0.00000000000E+00 0. -1.
         11    1    3    3    0    0 -0.67658621111E+01  0.73307779167E+01  0.98389969368E+01  0.14011532962E+02  0.51100000000E-03 0. -1.
        -11    1    3    3    0    0  0.10931555111E+02 -0.16940365526E+00  0.30624278678E+02  0.32517288318E+02  0.51100000000E-03 0.  1.
         12    1    3    3    0    0 -0.29779286384E+01 -0.12467124818E+02 -0.22543612851E+02  0.25932831326E+02  0.00000000000E+00 0. -1.
</event>
<event>
 7    1  0.1692604E-013  0.7246158E+02  0.7816164E-02  0.1226708E+00
        -11   -1    0    0    0    0  0.00000000000E+00  0.00000000000E+00  0.45593999997E+02  0.45594000000E+02  0.51100000000E-03 0.  1.
         11   -1    0    0    0    0 -0.00000000000E+00 -0.00000000000E+00 -0.45593999997E+02  0.45594000000E+02  0.51100000000E-03 0. -1.
    9900012    2    1    2    0    0 -0.12949105869E+02  0.11590302049E+02 -0.69759906881E+01  0.72461577745E+02  0.70000009706E+02 0.  0.
         12    1    1    2    0    0  0.12949105869E+02 -0.11590302049E+02  0.69759906881E+01  0.18726422255E+02  0.00000000000E+00 0. -1.
         11    1    3    3    0    0 -0.12105928775E+02 -0.10560184058E+02 -0.26699137949E+02  0.31159508442E+02  0.51100000000E-03 0. -1.
        -11    1    3    3    0    0  0.13109059130E+02  0.60273270414E+01  0.45364782414E+01  0.15124673141E+02  0.51100000000E-03 0.  1.
        -12    1    3    3    0    0 -0.13952236224E+02  0.16123159066E+02  0.15186669020E+02  0.26177396162E+02  0.00000000000E+00 0.  1.
</event>
<event>
 7    1  0.1692604E-013  0.7246152E+02  0.7816164E-02  0.1226708E+00
        -11   -1    0    0    0    0  0.00000000000E+00  0.00000000000E+00  0.45593999997E+02  0.45594000000E+02  0.51100000000E-03 0. -1.
         11   -1    0    0    0    0 -0.00000000000E+00 -0.00000000000E+00 -0.45593999997E+02  0.45594000000E+02  0.51100000000E-03 0.  1.
    9900012    2    1    2    0    0  0.16151714434E+02  0.93045485790E+01 -0.17968482422E+01  0.72461516961E+02  0.69999930523E+02 0.  0.
         12    1    1    2    0    0 -0.16151714434E+02 -0.93045485790E+01  0.17968482422E+01  0.18726483039E+02  0.00000000000E+00 0. -1.
         11    1    3    3    0    0  0.57259005028E+01  0.14566143619E+00 -0.99073884117E+01  0.11443928487E+02  0.51100000000E-03 0. -1.
        -11    1    3    3    0    0  0.13063795720E+02  0.96873426299E+01 -0.23891997937E+02  0.28902161365E+02  0.51100000000E-03 0.  1.
         12    1    3    3    0    0 -0.26379817890E+01 -0.52845548716E+00  0.32002538107E+02  0.32115427109E+02  0.00000000000E+00 0. -1.
</event>
<event>
 7    1  0.1692604E-013  0.7246155E+02  0.7816164E-02  0.1226708E+00
        -11   -1    0    0    0    0  0.00000000000E+00  0.00000000000E+00  0.45593999997E+02  0.45594000000E+02  0.51100000000E-03 0. -1.
         11   -1    0    0    0    0 -0.00000000000E+00 -0.00000000000E+00 -0.45593999997E+02  0.45594000000E+02  0.51100000000E-03 0.  1.
    9900012    2    1    2    0    0 -0.73868815596E+01  0.64748387225E+01 -0.15943345548E+02  0.72461552848E+02  0.69999977273E+02 0.  0.
         12    1    1    2    0    0  0.73868815596E+01 -0.64748387225E+01  0.15943345548E+02  0.18726447152E+02  0.00000000000E+00 0. -1.
         11    1    3    3    0    0 -0.46975131563E+01  0.93371046925E+01 -0.15152566940E+02  0.18407836348E+02  0.51100000000E-03 0. -1.
        -11    1    3    3    0    0  0.95310177273E+01 -0.25662916636E+02 -0.50466681851E+01  0.27836926001E+02  0.51100000000E-03 0.  1.
         12    1    3    3    0    0 -0.12220386131E+02  0.22800650666E+02  0.42558895771E+01  0.26216790499E+02  0.00000000000E+00 0. -1.
</event>
<event>
 7    1  0.1692604E-013  0.7246166E+02  0.7816164E-02  0.1226708E+00
        -11   -1    0    0    0    0  0.00000000000E+00  0.00000000000E+00  0.45593999997E+02  0.45594000000E+02  0.51100000000E-03 0.  1.
         11   -1    0    0    0    0 -0.00000000000E+00 -0.00000000000E+00 -0.45593999997E+02  0.45594000000E+02  0.51100000000E-03 0. -1.
    9900012    2    1    2    0    0  0.46145699250E+01  0.70538892222E+01  0.16721963669E+02  0.72461663527E+02  0.70000121453E+02 0.  0.
         12    1    1    2    0    0 -0.46145699250E+01 -0.70538892222E+01 -0.16721963669E+02  0.18726336473E+02  0.00000000000E+00 0. -1.
         11    1    3    3    0    0 -0.11223072280E+02 -0.92933432800E+01  0.21718440806E+02  0.26153666130E+02  0.51100000000E-03 0. -1.
        -11    1    3    3    0    0  0.13801793909E+02  0.10079072397E+01  0.15401226317E+02  0.20705148259E+02  0.51100000000E-03 0.  1.
         12    1    3    3    0    0  0.20358482961E+01  0.15339325262E+02 -0.20397703454E+02  0.25602849138E+02  0.00000000000E+00 0. -1.
</event>
<event>
 7    1  0.1692604E-013  0.7246151E+02  0.7816164E-02  0.1226708E+00
        -11   -1    0    0    0    0  0.00000000000E+00  0.00000000000E+00  0.45593999997E+02  0.45594000000E+02  0.51100000000E-03 0. -1.
         11   -1    0    0    0    0 -0.00000000000E+00 -0.00000000000E+00 -0.45593999997E+02  0.45594000000E+02  0.51100000000E-03 0.  1.
    9900012    2    1    2    0    0 -0.18338154910E+02 -0.23822734348E+01  0.29526823783E+01  0.72461508459E+02  0.69999919448E+02 0.  0.
         12    1    1    2    0    0  0.18338154910E+02  0.23822734348E+01 -0.29526823783E+01  0.18726491541E+02  0.00000000000E+00 0. -1.
         11    1    3    3    0    0 -0.37861700250E+02  0.18169838202E+02 -0.12290645002E+01  0.42013830650E+02  0.51100000000E-03 0. -1.
        -11    1    3    3    0    0 -0.11409574327E+01 -0.55213302612E+00 -0.39531970063E+00  0.13277472156E+01  0.51100000000E-03 0.  1.
         12    1    3    3    0    0  0.20664502773E+02 -0.19999978611E+02  0.45770665791E+01  0.29119930593E+02  0.00000000000E+00 0. -1.
</event>
<event>
 7    1  0.1692604E-013  0.7246159E+02  0.7816164E-02  0.1226708E+00
        -11   -1    0    0    0    0  0.00000000000E+00  0.00000000000E+00  0.45593999997E+02  0.45594000000E+02  0.51100000000E-03 0.  1.
         11   -1    0    0    0    0 -0.00000000000E+00 -0.00000000000E+00 -0.45593999997E+02  0.45594000000E+02  0.51100000000E-03 0. -1.
    9900012    2    1    2    0    0  0.31684528135E+01 -0.15627755921E+02  0.98189974206E+01  0.72461586604E+02  0.70000021246E+02 0.  0.
         12    1    1    2    0    0 -0.31684528135E+01  0.15627755921E+02 -0.98189974206E+01  0.18726413396E+02  0.00000000000E+00 0. -1.
         11    1    3    3    0    0 -0.10332608617E+02  0.16396870214E+01 -0.97989185422E+01  0.14334231030E+02  0.51100000000E-03 0. -1.
        -11    1    3    3    0    0 -0.20449193387E+01  0.16706156967E+02  0.98846925120E+01  0.19518824812E+02  0.51100000000E-03 0.  1.
        -12    1    3    3    0    0  0.15545980769E+02 -0.33973599909E+02  0.97332234507E+01  0.38608530762E+02  0.00000000000E+00 0.  1.
</event>
<event>
 7    1  0.1692604E-013  0.7246213E+02  0.7816164E-02  0.1226707E+00
        -11   -1    0    0    0    0  0.00000000000E+00  0.00000000000E+00  0.45593999997E+02  0.45594000000E+02  0.51100000000E-03 0.  1.
         11   -1    0    0    0    0 -0.00000000000E+00 -0.00000000000E+00 -0.45593999997E+02  0.45594000000E+02  0.51100000000E-03 0. -1.
    9900012    2    1    2    0    0 -0.15474968726E+02 -0.91366345021E+01 -0.52635885266E+01  0.72462132563E+02  0.70000732455E+02 0.  0.
         12    1    1    2    0    0  0.15474968726E+02  0.91366345021E+01  0.52635885266E+01  0.18725867437E+02  0.00000000000E+00 0. -1.
         11    1    3    3    0    0  0.83558749652E+01 -0.55875244691E+01 -0.15015448224E+02  0.18069442763E+02  0.51100000000E-03 0. -1.
        -11    1    3    3    0    0  0.53337619166E+01 -0.19415326253E+02  0.58243335272E+01  0.20960123353E+02  0.51100000000E-03 0.  1.
        -12    1    3    3    0    0 -0.29164605608E+02  0.15866216220E+02  0.39275261704E+01  0.33432566447E+02  0.00000000000E+00 0.  1.
</event>
<event>
 7    1  0.1692604E-013  0.7246155E+02  0.7816164E-02  0.1226708E+00
        -11   -1    0    0    0    0  0.00000000000E+00  0.00000000000E+00  0.45593999997E+02  0.45594000000E+02  0.51100000000E-03 0. -1.
         11   -1    0    0    0    0 -0.00000000000E+00 -0.00000000000E+00 -0.45593999997E+02  0.45594000000E+02  0.51100000000E-03 0.  1.
    9900012    2    1    2    0    0 -0.17454685666E+02  0.48251932027E+01 -0.47677434434E+01  0.72461550291E+02  0.69999973942E+02 0.  0.
         12    1    1    2    0    0  0.17454685666E+02 -0.48251932027E+01  0.47677434434E+01  0.18726449709E+02  0.00000000000E+00 0. -1.
         11    1    3    3    0    0 -0.12662996176E+02 -0.65477527509E+01 -0.23329671255E+02  0.27340411470E+02  0.51100000000E-03 0. -1.
        -11    1    3    3    0    0 -0.42686459617E+01 -0.12447369194E+02 -0.24125223532E+01  0.13378288477E+02  0.51100000000E-03 0.  1.
         12    1    3    3    0    0 -0.52304352805E+00  0.23820315148E+02  0.20974450165E+02  0.31742850344E+02  0.00000000000E+00 0. -1.
</event>
<event>
 7    1  0.1692604E-013  0.7246158E+02  0.7816164E-02  0.1226708E+00
        -11   -1    0    0    0    0  0.00000000000E+00  0.00000000000E+00  0.45593999997E+02  0.45594000000E+02  0.51100000000E-03 0. -1.
         11   -1    0    0    0    0 -0.00000000000E+00 -0.00000000000E+00 -0.45593999997E+02  0.45594000000E+02  0.51100000000E-03 0.  1.
    9900012    2    1    2    0    0  0.48225478592E+01  0.14303607208E+02 -0.11082805246E+02  0.72461582320E+02  0.70000015665E+02 0.  0.
         12    1    1    2    0    0 -0.48225478592E+01 -0.14303607208E+02  0.11082805246E+02  0.18726417680E+02  0.00000000000E+00 0. -1.
         11    1    3    3    0    0  0.80247239225E+01 -0.55877522772E+01  0.77036559210E+01  0.12448513339E+02  0.51100000000E-03 0. -1.
        -11    1    3    3    0    0  0.11848121761E+02  0.11685788698E+02 -0.33510904679E+02  0.37415456424E+02  0.51100000000E-03 0.  1.
         12    1    3    3    0    0 -0.15050297824E+02  0.82055707869E+01  0.14724443512E+02  0.22597612557E+02  0.00000000000E+00 0. -1.
</event>
<event>
 7    1  0.1692604E-013  0.7246155E+02  0.7816164E-02  0.1226708E+00
        -11   -1    0    0    0    0  0.00000000000E+00  0.00000000000E+00  0.45593999997E+02  0.45594000000E+02  0.51100000000E-03 0. -1.
         11   -1    0    0    0    0 -0.00000000000E+00 -0.00000000000E+00 -0.45593999997E+02  0.45594000000E+02  0.51100000000E-03 0.  1.
    9900012    2    1    2    0    0  0.84791383689E+01 -0.55852407130E+01  0.15734970793E+02  0.72461547929E+02  0.69999970865E+02 0.  0.
         12    1    1    2    0    0 -0.84791383689E+01  0.55852407130E+01 -0.15734970793E+02  0.18726452071E+02  0.00000000000E+00 0. -1.
         11    1    3    3    0    0  0.53672598693E+01 -0.93123412999E+01 -0.21094886065E+00  0.10750426907E+02  0.51100000000E-03 0. -1.
        -11    1    3    3    0    0  0.10926757048E+02 -0.10491428892E+02 -0.18335894621E+02  0.23783799772E+02  0.51100000000E-03 0.  1.
         12    1    3    3    0    0 -0.78148785481E+01  0.14218529479E+02  0.34281814275E+02  0.37927321251E+02  0.00000000000E+00 0. -1.
</event>
<event>
 7    1  0.1692604E-013  0.7246152E+02  0.7816164E-02  0.1226708E+00
        -11   -1    0    0    0    0  0.00000000000E+00  0.00000000000E+00  0.45593999997E+02  0.45594000000E+02  0.51100000000E-03 0.  1.
         11   -1    0    0    0    0 -0.00000000000E+00 -0.00000000000E+00 -0.45593999997E+02  0.45594000000E+02  0.51100000000E-03 0. -1.
    9900012    2    1    2    0    0 -0.33373385594E+01 -0.29806148729E+01  0.18184039457E+02  0.72461516490E+02  0.69999929910E+02 0.  0.
         12    1    1    2    0    0  0.33373385594E+01  0.29806148729E+01 -0.18184039457E+02  0.18726483510E+02  0.00000000000E+00 0. -1.
         11    1    3    3    0    0 -0.17004319317E+02 -0.17862589349E+02  0.18480277829E+02  0.30817846171E+02  0.51100000000E-03 0. -1.
        -11    1    3    3    0    0 -0.12483357791E+02  0.41315613876E+01 -0.20836433872E+01  0.13313361382E+02  0.51100000000E-03 0.  1.
         12    1    3    3    0    0  0.26150338549E+02  0.10750413089E+02  0.17874050154E+01  0.28330308938E+02  0.00000000000E+00 0. -1.
</event>
<event>
 7    1  0.1692604E-013  0.7246157E+02  0.7816164E-02  0.1226708E+00
        -11   -1    0    0    0    0  0.00000000000E+00  0.00000000000E+00  0.45593999997E+02  0.45594000000E+02  0.51100000000E-03 0.  1.
         11   -1    0    0    0    0 -0.00000000000E+00 -0.00000000000E+00 -0.45593999997E+02  0.45594000000E+02  0.51100000000E-03 0. -1.
    9900012    2    1    2    0    0 -0.14111468900E+02 -0.37501022198E+01 -0.11725283051E+02  0.72461572583E+02  0.70000002982E+02 0.  0.
         12    1    1    2    0    0  0.14111468900E+02  0.37501022198E+01  0.11725283051E+02  0.18726427417E+02  0.00000000000E+00 0. -1.
         11    1    3    3    0    0 -0.74226972291E+01  0.35083703986E+01 -0.49271259708E+01  0.95750544438E+01  0.51100000000E-03 0. -1.
        -11    1    3    3    0    0 -0.18035597387E+02  0.73915076198E+01  0.21525983406E+02  0.29039371892E+02  0.51100000000E-03 0.  1.
         12    1    3    3    0    0  0.11346825716E+02 -0.14649980238E+02 -0.28324140487E+02  0.33847146248E+02  0.00000000000E+00 0. -1.
</event>
<event>
 7    1  0.1692604E-013  0.7246158E+02  0.7816164E-02  0.1226708E+00
        -11   -1    0    0    0    0  0.00000000000E+00  0.00000000000E+00  0.45593999997E+02  0.45594000000E+02  0.51100000000E-03 0.  1.
         11   -1    0    0    0    0 -0.00000000000E+00 -0.00000000000E+00 -0.45593999997E+02  0.45594000000E+02  0.51100000000E-03 0. -1.
    9900012    2    1    2    0    0 -0.49291767241E+01 -0.60618847458E+01  0.17018684600E+02  0.72461578682E+02  0.70000010927E+02 0.  0.
         12    1    1    2    0    0  0.49291767241E+01  0.60618847458E+01 -0.17018684600E+02  0.18726421318E+02  0.00000000000E+00 0. -1.
         11    1    3    3    0    0 -0.56550944153E+01 -0.13832964081E+01  0.72014910914E+01  0.92604036628E+01  0.51100000000E-03 0. -1.
        -11    1    3    3    0    0 -0.94554962028E+01 -0.13266768291E+02  0.32808176636E+02  0.36630451865E+02  0.51100000000E-03 0.  1.
         12    1    3    3    0    0  0.10181413894E+02  0.85881799538E+01 -0.22990983128E+02  0.26570723155E+02  0.00000000000E+00 0. -1.
</event>
<event>
 7    1  0.1692604E-013  0.7246157E+02  0.7816164E-02  0.1226708E+00
        -11   -1    0    0    0    0  0.00000000000E+00  0.00000000000E+00  0.45593999997E+02  0.45594000000E+02  0.51100000000E-03 0.  1.
         11   -1    0    0    0    0 -0.00000000000E+00 -0.00000000000E+00 -0.45593999997E+02  0.45594000000E+02  0.51100000000E-03 0. -1.
    9900012    2    1    2    0    0  0.34811881085E+01 -0.10142438236E+02  0.15352240273E+02  0.72461574676E+02  0.70000005708E+02 0.  0.
         12    1    1    2    0    0 -0.34811881085E+01  0.10142438236E+02 -0.15352240273E+02  0.18726425324E+02  0.00000000000E+00 0. -1.
         11    1    3    3    0    0 -0.43898124278E+01 -0.15665456926E+02 -0.17793530035E+01  0.16365912477E+02  0.51100000000E-03 0. -1.
        -11    1    3    3    0    0 -0.13214906523E+02 -0.38239908574E+01  0.27544828340E+02  0.30789190132E+02  0.51100000000E-03 0.  1.
         12    1    3    3    0    0  0.21085907059E+02  0.93470095467E+01 -0.10413235063E+02  0.25306472066E+02  0.00000000000E+00 0. -1.
</event>
<event>
 7    1  0.1692604E-013  0.7246173E+02  0.7816164E-02  0.1226708E+00
        -11   -1    0    0    0    0  0.00000000000E+00  0.00000000000E+00  0.45593999997E+02  0.45594000000E+02  0.51100000000E-03 0.  1.
         11   -1    0    0    0    0 -0.00000000000E+00 -0.00000000000E+00 -0.45593999997E+02  0.45594000000E+02  0.51100000000E-03 0. -1.
    9900012    2    1    2    0    0 -0.10584485178E+02  0.15447132255E+02  0.16738982505E+00  0.72461728595E+02  0.70000206215E+02 0.  0.
         12    1    1    2    0    0  0.10584485178E+02 -0.15447132255E+02 -0.16738982505E+00  0.18726271405E+02  0.00000000000E+00 0. -1.
         11    1    3    3    0    0 -0.21233356822E+02  0.16195607331E+02 -0.22343754631E+01  0.26798238239E+02  0.51100000000E-03 0. -1.
        -11    1    3    3    0    0 -0.75437995328E+01 -0.18538420047E+02  0.28370753390E+01  0.20214621589E+02  0.51100000000E-03 0.  1.
        -12    1    3    3    0    0  0.18192671177E+02  0.17789944972E+02 -0.43531005086E+00  0.25448868767E+02  0.00000000000E+00 0.  1.
</event>
<event>
 7    1  0.1692604E-013  0.7246148E+02  0.7816164E-02  0.1226708E+00
        -11   -1    0    0    0    0  0.00000000000E+00  0.00000000000E+00  0.45593999997E+02  0.45594000000E+02  0.51100000000E-03 0. -1.
         11   -1    0    0    0    0 -0.00000000000E+00 -0.00000000000E+00 -0.45593999997E+02  0.45594000000E+02  0.51100000000E-03 0.  1.
    9900012    2    1    2    0    0  0.68094441833E+01 -0.17391839148E+02  0.13556909646E+01  0.72461481449E+02  0.69999884262E+02 0.  0.
         12    1    1    2    0    0 -0.68094441833E+01  0.17391839148E+02 -0.13556909646E+01  0.18726518551E+02  0.00000000000E+00 0. -1.
         11    1    3    3    0    0 -0.18590152683E+02 -0.10188883230E+02  0.10611155622E+02  0.23706618109E+02  0.51100000000E-03 0. -1.
        -11    1    3    3    0    0  0.18739424848E+02 -0.10534352259E+00  0.14100428544E+02  0.23452062303E+02  0.51100000000E-03 0.  1.
         12    1    3    3    0    0  0.66601720189E+01 -0.70976123957E+01 -0.23355893202E+02  0.25302801037E+02  0.00000000000E+00 0. -1.
</event>
<event>
 7    1  0.1692604E-013  0.7246156E+02  0.7816164E-02  0.1226708E+00
        -11   -1    0    0    0    0  0.00000000000E+00  0.00000000000E+00  0.45593999997E+02  0.45594000000E+02  0.51100000000E-03 0. -1.
         11   -1    0    0    0    0 -0.00000000000E+00 -0.00000000000E+00 -0.45593999997E+02  0.45594000000E+02  0.51100000000E-03 0.  1.
    9900012    2    1    2    0    0 -0.11554988909E+01 -0.23383971904E+01 -0.18543905845E+02  0.72461555513E+02  0.69999980745E+02 0.  0.
         12    1    1    2    0    0  0.11554988909E+01  0.23383971904E+01  0.18543905845E+02  0.18726444487E+02  0.00000000000E+00 0. -1.
         11    1    3    3    0    0 -0.11011978411E+02 -0.14425007457E+02 -0.10275075138E+02  0.20854775904E+02  0.51100000000E-03 0. -1.
        -11    1    3    3    0    0 -0.10476937003E+02 -0.14040631766E+02 -0.15281136685E+00  0.17519386432E+02  0.51100000000E-03 0.  1.
        -12    1    3    3    0    0  0.20333416523E+02  0.26127242033E+02 -0.81160193407E+01  0.34087393178E+02  0.00000000000E+00 0.  1.
</event>
<event>
 7    1  0.1692604E-013  0.7246172E+02  0.7816164E-02  0.1226708E+00
        -11   -1    0    0    0    0  0.00000000000E+00  0.00000000000E+00  0.45593999997E+02  0.45594000000E+02  0.51100000000E-03 0.  1.
         11   -1    0    0    0    0 -0.00000000000E+00 -0.00000000000E+00 -0.45593999997E+02  0.45594000000E+02  0.51100000000E-03 0. -1.
    9900012    2    1    2    0    0 -0.10739242302E+02  0.10719395883E+02  0.10974362209E+02  0.72461724363E+02  0.70000200703E+02 0.  0.
         12    1    1    2    0    0  0.10739242302E+02 -0.10719395883E+02 -0.10974362209E+02  0.18726275637E+02  0.00000000000E+00 0. -1.
         11    1    3    3    0    0 -0.96946132250E+01 -0.26875670255E+01 -0.90173901712E+01  0.13510065428E+02  0.51100000000E-03 0. -1.
        -11    1    3    3    0    0 -0.64369727207E+01 -0.12581731850E+02 -0.11173086486E+02  0.18015894538E+02  0.51100000000E-03 0.  1.
        -12    1    3    3    0    0  0.53923436433E+01  0.25988694759E+02  0.31164838866E+02  0.40935764397E+02  0.00000000000E+00 0.  1.
</event>
<event>
 7    1  0.1692604E-013  0.7246160E+02  0.7816164E-02  0.1226708E+00
        -11   -1    0    0    0    0  0.00000000000E+00  0.00000000000E+00  0.45593999997E+02  0.45594000000E+02  0.51100000000E-03 0.  1.
         11   -1    0    0    0    0 -0.00000000000E+00 -0.00000000000E+00 -0.45593999997E+02  0.45594000000E+02  0.51100000000E-03 0. -1.
    9900012    2    1    2    0    0  0.12074123837E+02  0.47277464315E-01  0.14314027245E+02  0.72461599450E+02  0.70000037981E+02 0.  0.
         12    1    1    2    0    0 -0.12074123837E+02 -0.47277464315E-01 -0.14314027245E+02  0.18726400550E+02  0.00000000000E+00 0. -1.
         11    1    3    3    0    0  0.10088996083E+02  0.22221453611E+02 -0.91350905817E+01  0.26058217951E+02  0.51100000000E-03 0. -1.
        -11    1    3    3    0    0 -0.11784257429E+02 -0.13164889399E+02 -0.10719540220E+00  0.17669027340E+02  0.51100000000E-03 0.  1.
        -12    1    3    3    0    0  0.13769385182E+02 -0.90092867485E+01  0.23556313229E+02  0.28734354159E+02  0.00000000000E+00 0.  1.
</event>
<event>
 7    1  0.1692604E-013  0.7246148E+02  0.7816164E-02  0.1226708E+00
        -11   -1    0    0    0    0  0.00000000000E+00  0.00000000000E+00  0.45593999997E+02  0.45594000000E+02  0.51100000000E-03 0.  1.
         11   -1    0    0    0    0 -0.00000000000E+00 -0.00000000000E+00 -0.45593999997E+02  0.45594000000E+02  0.51100000000E-03 0. -1.
    9900012    2    1    2    0    0 -0.29715788701E+01 -0.16553237770E+02  0.82366536863E+01  0.72461483356E+02  0.69999886747E+02 0.  0.
         12    1    1    2    0    0  0.29715788701E+01  0.16553237770E+02 -0.82366536863E+01  0.18726516644E+02  0.00000000000E+00 0. -1.
         11    1    3    3    0    0 -0.51600290494E+01 -0.12714367021E+00 -0.31898364853E+01  0.60677114605E+01  0.51100000000E-03 0. -1.
        -11    1    3    3    0    0  0.16763076248E+01 -0.38563732883E+02 -0.48612949300E+01  0.38905059951E+02  0.51100000000E-03 0.  1.
         12    1    3    3    0    0  0.51214255449E+00  0.22137638783E+02  0.16287785102E+02  0.27488711945E+02  0.00000000000E+00 0. -1.
</event>
<event>
 7    1  0.1692604E-013  0.7246156E+02  0.7816164E-02  0.1226708E+00
        -11   -1    0    0    0    0  0.00000000000E+00  0.00000000000E+00  0.45593999997E+02  0.45594000000E+02  0.51100000000E-03 0.  1.
         11   -1    0    0    0    0 -0.00000000000E+00 -0.00000000000E+00 -0.45593999997E+02  0.45594000000E+02  0.51100000000E-03 0. -1.
    9900012    2    1    2    0    0 -0.14149642122E+02 -0.54336640520E+01  0.10997385228E+02  0.72461559893E+02  0.69999986450E+02 0.  0.
         12    1    1    2    0    0  0.14149642122E+02  0.54336640520E+01 -0.10997385228E+02  0.18726440107E+02  0.00000000000E+00 0. -1.
         11    1    3    3    0    0 -0.10365341523E+02  0.35277570693E+00 -0.18804324539E+02  0.21474807967E+02  0.51100000000E-03 0. -1.
        -11    1    3    3    0    0  0.17671612830E+01 -0.21853732061E+02  0.79956375981E+01  0.23337495256E+02  0.51100000000E-03 0.  1.
         12    1    3    3    0    0 -0.55514618827E+01  0.16067292302E+02  0.21806072169E+02  0.27649256670E+02  0.00000000000E+00 0. -1.
</event>
<event>
 7    1  0.1692604E-013  0.7246154E+02  0.7816164E-02  0.1226708E+00
        -11   -1    0    0    0    0  0.00000000000E+00  0.00000000000E+00  0.45593999997E+02  0.45594000000E+02  0.51100000000E-03 0. -1.
         11   -1    0    0    0    0 -0.00000000000E+00 -0.00000000000E+00 -0.45593999997E+02  0.45594000000E+02  0.51100000000E-03 0.  1.
    9900012    2    1    2    0    0  0.31836171241E-01  0.11880337977E+01 -0.18688705804E+02  0.72461543782E+02  0.69999965463E+02 0.  0.
         12    1    1    2    0    0 -0.31836171241E-01 -0.11880337977E+01  0.18688705804E+02  0.18726456218E+02  0.00000000000E+00 0. -1.
         11    1    3    3    0    0  0.14742542524E+02 -0.16157156767E+02  0.11538966838E+02  0.24729416306E+02  0.51100000000E-03 0. -1.
        -11    1    3    3    0    0 -0.63483142960E+01 -0.20402991269E+01  0.38090296190E+01  0.76793633739E+01  0.51100000000E-03 0.  1.
        -12    1    3    3    0    0 -0.83623920572E+01  0.19385489691E+02 -0.34036702261E+02  0.40052764103E+02  0.00000000000E+00 0.  1.
</event>
<event>
 7    1  0.1692604E-013  0.7246159E+02  0.7816164E-02  0.1226708E+00
        -11   -1    0    0    0    0  0.00000000000E+00  0.00000000000E+00  0.45593999997E+02  0.45594000000E+02  0.51100000000E-03 0. -1.
         11   -1    0    0    0    0 -0.00000000000E+00 -0.00000000000E+00 -0.45593999997E+02  0.45594000000E+02  0.51100000000E-03 0.  1.
    9900012    2    1    2    0    0  0.38946853076E+01  0.13454872473E+02 -0.12428848403E+02  0.72461589786E+02  0.70000025391E+02 0.  0.
         12    1    1    2    0    0 -0.38946853076E+01 -0.13454872473E+02  0.12428848403E+02  0.18726410214E+02  0.00000000000E+00 0. -1.
         11    1    3    3    0    0  0.99263358933E+01  0.14920495379E+02  0.11241112079E+02  0.21154572263E+02  0.51100000000E-03 0. -1.
        -11    1    3    3    0    0 -0.87487135683E+01 -0.60440849040E+01  0.11542728202E+02  0.15694123933E+02  0.51100000000E-03 0.  1.
        -12    1    3    3    0    0  0.27170629826E+01  0.45784619981E+01 -0.35212688683E+02  0.35612893589E+02  0.00000000000E+00 0.  1.
</event>
<event>
 7    1  0.1692604E-013  0.7246155E+02  0.7816164E-02  0.1226708E+00
        -11   -1    0    0    0    0  0.00000000000E+00  0.00000000000E+00  0.45593999997E+02  0.45594000000E+02  0.51100000000E-03 0. -1.
         11   -1    0    0    0    0 -0.00000000000E+00 -0.00000000000E+00 -0.45593999997E+02  0.45594000000E+02  0.51100000000E-03 0.  1.
    9900012    2    1    2    0    0  0.39492861827E-01  0.11015748494E+02 -0.15143704166E+02  0.72461546774E+02  0.69999969360E+02 0.  0.
         12    1    1    2    0    0 -0.39492861827E-01 -0.11015748494E+02  0.15143704166E+02  0.18726453226E+02  0.00000000000E+00 0. -1.
         11    1    3    3    0    0  0.17503835269E+02 -0.30255165383E+01 -0.14285261384E+01  0.17820737544E+02  0.51100000000E-03 0. -1.
        -11    1    3    3    0    0 -0.81985441939E+00  0.11228038757E+02  0.16532487952E+02  0.20001604279E+02  0.51100000000E-03 0.  1.
        -12    1    3    3    0    0 -0.16644487987E+02  0.28132262757E+01 -0.30247665979E+02  0.34639204951E+02  0.00000000000E+00 0.  1.
</event>
<event>
 7    1  0.1692604E-013  0.7246160E+02  0.7816164E-02  0.1226708E+00
        -11   -1    0    0    0    0  0.00000000000E+00  0.00000000000E+00  0.45593999997E+02  0.45594000000E+02  0.51100000000E-03 0. -1.
         11   -1    0    0    0    0 -0.00000000000E+00 -0.00000000000E+00 -0.45593999997E+02  0.45594000000E+02  0.51100000000E-03 0.  1.
    9900012    2    1    2    0    0 -0.13095049099E+02 -0.13116202101E+02  0.26763523547E+01  0.72461603379E+02  0.70000043099E+02 0.  0.
         12    1    1    2    0    0  0.13095049099E+02  0.13116202101E+02 -0.26763523547E+01  0.18726396621E+02  0.00000000000E+00 0. -1.
         11    1    3    3    0    0  0.61741341702E+01 -0.19579707526E+01  0.50794693476E+01  0.82313177155E+01  0.51100000000E-03 0. -1.
        -11    1    3    3    0    0 -0.16393595185E+02 -0.35736919701E+02  0.44841325903E+00  0.39320204317E+02  0.51100000000E-03 0.  1.
         12    1    3    3    0    0 -0.28755880846E+01  0.24578688352E+02 -0.28515302520E+01  0.24910081347E+02  0.00000000000E+00 0. -1.
</event>
<event>
 7    1  0.1692604E-013  0.7246159E+02  0.7816164E-02  0.1226708E+00
        -11   -1    0    0    0    0  0.00000000000E+00  0.00000000000E+00  0.45593999997E+02  0.45594000000E+02  0.51100000000E-03 0.  1.
         11   -1    0    0    0    0 -0.00000000000E+00 -0.00000000000E+00 -0.45593999997E+02  0.45594000000E+02  0.51100000000E-03 0. -1.
    9900012    2    1    2    0    0  0.17299433641E+02  0.47860020292E+01  0.53387397395E+01  0.72461591863E+02  0.70000028097E+02 0.  0.
         12    1    1    2    0    0 -0.17299433641E+02 -0.47860020292E+01 -0.53387397395E+01  0.18726408137E+02  0.00000000000E+00 0. -1.
         11    1    3    3    0    0 -0.10003657696E+02  0.19769303133E+02 -0.18113731112E+02  0.28618276830E+02  0.51100000000E-03 0. -1.
        -11    1    3    3    0    0  0.15188601424E+02 -0.15884151858E+01  0.13948128477E+01  0.15334998505E+02  0.51100000000E-03 0.  1.
        -12    1    3    3    0    0  0.12114489913E+02 -0.13394885918E+02  0.22057658004E+02  0.28508316527E+02  0.00000000000E+00 0.  1.
</event>
<event>
 7    1  0.1692604E-013  0.7246154E+02  0.7816164E-02  0.1226708E+00
        -11   -1    0    0    0    0  0.00000000000E+00  0.00000000000E+00  0.45593999997E+02  0.45594000000E+02  0.51100000000E-03 0. -1.
         11   -1    0    0    0    0 -0.00000000000E+00 -0.00000000000E+00 -0.45593999997E+02  0.45594000000E+02  0.51100000000E-03 0.  1.
    9900012    2    1    2    0    0  0.14698338943E+02  0.10013713167E+02  0.58621321353E+01  0.72461542453E+02  0.69999963732E+02 0.  0.
         12    1    1    2    0    0 -0.14698338943E+02 -0.10013713167E+02 -0.58621321353E+01  0.18726457547E+02  0.00000000000E+00 0. -1.
         11    1    3    3    0    0  0.34694069959E+02  0.38623889893E+01  0.20405233739E+02  0.40434763548E+02  0.51100000000E-03 0. -1.
        -11    1    3    3    0    0 -0.13908520709E+02  0.73283276165E+01  0.52833020900E+00  0.15729922665E+02  0.51100000000E-03 0.  1.
        -12    1    3    3    0    0 -0.60872103066E+01 -0.11770034385E+01 -0.15071431813E+02  0.16296856240E+02  0.00000000000E+00 0.  1.
</event>
<event>
 7    1  0.1692604E-013  0.7246147E+02  0.7816164E-02  0.1226708E+00
        -11   -1    0    0    0    0  0.00000000000E+00  0.00000000000E+00  0.45593999997E+02  0.45594000000E+02  0.51100000000E-03 0. -1.
         11   -1    0    0    0    0 -0.00000000000E+00 -0.00000000000E+00 -0.45593999997E+02  0.45594000000E+02  0.51100000000E-03 0.  1.
    9900012    2    1    2    0    0 -0.11362877266E+01 -0.12388476366E+01 -0.18650925287E+02  0.72461470495E+02  0.69999869992E+02 0.  0.
         12    1    1    2    0    0  0.11362877266E+01  0.12388476366E+01  0.18650925287E+02  0.18726529505E+02  0.00000000000E+00 0. -1.
         11    1    3    3    0    0  0.20789668450E+01 -0.10852670843E+02 -0.25186945059E+01  0.11333419160E+02  0.51100000000E-03 0. -1.
        -11    1    3    3    0    0 -0.29817456443E+02  0.12681879068E+01 -0.21074271185E+01  0.29918727556E+02  0.51100000000E-03 0.  1.
         12    1    3    3    0    0  0.26602201871E+02  0.83456352999E+01 -0.14024803662E+02  0.31209323778E+02  0.00000000000E+00 0. -1.
</event>
<event>
 7    1  0.1692604E-013  0.7246152E+02  0.7816164E-02  0.1226708E+00
        -11   -1    0    0    0    0  0.00000000000E+00  0.00000000000E+00  0.45593999997E+02  0.45594000000E+02  0.51100000000E-03 0. -1.
         11   -1    0    0    0    0 -0.00000000000E+00 -0.00000000000E+00 -0.45593999997E+02  0.45594000000E+02  0.51100000000E-03 0.  1.
    9900012    2    1    2    0    0 -0.12040142538E+02 -0.14113367331E+02 -0.25551750951E+01  0.72461519030E+02  0.69999933219E+02 0.  0.
         12    1    1    2    0    0  0.12040142538E+02  0.14113367331E+02  0.25551750951E+01  0.18726480970E+02  0.00000000000E+00 0. -1.
         11    1    3    3    0    0 -0.12954689522E+02 -0.19102630755E+01  0.26787456329E+02  0.29816788936E+02  0.51100000000E-03 0. -1.
        -11    1    3    3    0    0 -0.17817398826E+01 -0.38538195702E+01  0.53670077761E+01  0.68433394639E+01  0.51100000000E-03 0.  1.
        -12    1    3    3    0    0  0.26962868669E+01 -0.83492846849E+01 -0.34709639200E+02  0.35801390630E+02  0.00000000000E+00 0.  1.
</event>
<event>
 7    1  0.1692604E-013  0.7246158E+02  0.7816164E-02  0.1226708E+00
        -11   -1    0    0    0    0  0.00000000000E+00  0.00000000000E+00  0.45593999997E+02  0.45594000000E+02  0.51100000000E-03 0.  1.
         11   -1    0    0    0    0 -0.00000000000E+00 -0.00000000000E+00 -0.45593999997E+02  0.45594000000E+02  0.51100000000E-03 0. -1.
    9900012    2    1    2    0    0  0.31652144534E+00 -0.17389202784E+02  0.69422165942E+01  0.72461576675E+02  0.70000008313E+02 0.  0.
         12    1    1    2    0    0 -0.31652144534E+00  0.17389202784E+02 -0.69422165942E+01  0.18726423325E+02  0.00000000000E+00 0. -1.
         11    1    3    3    0    0  0.12642534823E+02  0.85690136817E+01 -0.13417864780E+01  0.15331734195E+02  0.51100000000E-03 0. -1.
        -11    1    3    3    0    0  0.11067298140E+02 -0.26175263884E+02 -0.68941501083E+01  0.29243098903E+02  0.51100000000E-03 0.  1.
        -12    1    3    3    0    0 -0.23393311518E+02  0.21704741790E+00  0.15178153180E+02  0.27886743577E+02  0.00000000000E+00 0.  1.
</event>
<event>
 7    1  0.1692604E-013  0.7246161E+02  0.7816164E-02  0.1226708E+00
        -11   -1    0    0    0    0  0.00000000000E+00  0.00000000000E+00  0.45593999997E+02  0.45594000000E+02  0.51100000000E-03 0. -1.
         11   -1    0    0    0    0 -0.00000000000E+00 -0.00000000000E+00 -0.45593999997E+02  0.45594000000E+02  0.51100000000E-03 0.  1.
    9900012    2    1    2    0    0  0.87481968547E+01 -0.18080890280E+01 -0.16458362846E+02  0.72461605747E+02  0.70000046184E+02 0.  0.
         12    1    1    2    0    0 -0.87481968547E+01  0.18080890280E+01  0.16458362846E+02  0.18726394253E+02  0.00000000000E+00 0. -1.
         11    1    3    3    0    0 -0.55345424566E+01  0.10543379776E+02  0.58118634508E+01  0.13250349970E+02  0.51100000000E-03 0. -1.
        -11    1    3    3    0    0 -0.16421570788E+02  0.62225528980E+01 -0.12100975617E+01  0.17602627306E+02  0.51100000000E-03 0.  1.
        -12    1    3    3    0    0  0.30704310099E+02 -0.18574021702E+02 -0.21060128735E+02  0.41608628471E+02  0.00000000000E+00 0.  1.
</event>
<event>
 7    1  0.1692604E-013  0.7246155E+02  0.7816164E-02  0.1226708E+00
        -11   -1    0    0    0    0  0.00000000000E+00  0.00000000000E+00  0.45593999997E+02  0.45594000000E+02  0.51100000000E-03 0. -1.
         11   -1    0    0    0    0 -0.00000000000E+00 -0.00000000000E+00 -0.45593999997E+02  0.45594000000E+02  0.51100000000E-03 0.  1.
    9900012    2    1    2    0    0 -0.12008057039E+02 -0.38233737357E+01 -0.13851654635E+02  0.72461549276E+02  0.69999972620E+02 0.  0.
         12    1    1    2    0    0  0.12008057039E+02  0.38233737357E+01  0.13851654635E+02  0.18726450724E+02  0.00000000000E+00 0. -1.
         11    1    3    3    0    0  0.12784029690E+02 -0.19035644010E+00  0.52974056732E+01  0.13839442106E+02  0.51100000000E-03 0. -1.
        -11    1    3    3    0    0  0.17382555995E+01  0.10979224012E+02  0.11175413767E+02  0.15762447956E+02  0.51100000000E-03 0.  1.
         12    1    3    3    0    0 -0.26530342328E+02 -0.14612241307E+02 -0.30324474076E+02  0.42859659215E+02  0.00000000000E+00 0. -1.
</event>
<event>
 7    1  0.1692604E-013  0.7246158E+02  0.7816164E-02  0.1226708E+00
        -11   -1    0    0    0    0  0.00000000000E+00  0.00000000000E+00  0.45593999997E+02  0.45594000000E+02  0.51100000000E-03 0. -1.
         11   -1    0    0    0    0 -0.00000000000E+00 -0.00000000000E+00 -0.45593999997E+02  0.45594000000E+02  0.51100000000E-03 0.  1.
    9900012    2    1    2    0    0 -0.12902905823E+02  0.56014602576E+01 -0.12361938932E+02  0.72461578295E+02  0.70000010422E+02 0.  0.
         12    1    1    2    0    0  0.12902905823E+02 -0.56014602576E+01  0.12361938932E+02  0.18726421705E+02  0.00000000000E+00 0. -1.
         11    1    3    3    0    0 -0.30275014783E+02  0.46930805468E+01 -0.53438960787E+01  0.31099176045E+02  0.51100000000E-03 0. -1.
        -11    1    3    3    0    0 -0.10777396004E+02 -0.21168376473E+01 -0.70490982275E+01  0.13050787422E+02  0.51100000000E-03 0.  1.
        -12    1    3    3    0    0  0.28149504963E+02  0.30252173582E+01  0.31055373681E-01  0.28311614828E+02  0.00000000000E+00 0.  1.
</event>
<event>
 7    1  0.1692604E-013  0.7246155E+02  0.7816164E-02  0.1226708E+00
        -11   -1    0    0    0    0  0.00000000000E+00  0.00000000000E+00  0.45593999997E+02  0.45594000000E+02  0.51100000000E-03 0.  1.
         11   -1    0    0    0    0 -0.00000000000E+00 -0.00000000000E+00 -0.45593999997E+02  0.45594000000E+02  0.51100000000E-03 0. -1.
    9900012    2    1    2    0    0  0.15704214792E+02 -0.72447534920E+01  0.71812930164E+01  0.72461553866E+02  0.69999978600E+02 0.  0.
         12    1    1    2    0    0 -0.15704214792E+02  0.72447534920E+01 -0.71812930164E+01  0.18726446134E+02  0.00000000000E+00 0. -1.
         11    1    3    3    0    0  0.23753359788E+01  0.88958809081E+01  0.12859523715E+01  0.92969130310E+01  0.51100000000E-03 0. -1.
        -11    1    3    3    0    0  0.10683758352E+02  0.22047896782E+02  0.41151058180E+01  0.24843239346E+02  0.51100000000E-03 0.  1.
         12    1    3    3    0    0  0.26451204620E+01 -0.38188531182E+02  0.17802348269E+01  0.38321401490E+02  0.00000000000E+00 0. -1.
</event>
<event>
 7    1  0.1692604E-013  0.7246156E+02  0.7816164E-02  0.1226708E+00
        -11   -1    0    0    0    0  0.00000000000E+00  0.00000000000E+00  0.45593999997E+02  0.45594000000E+02  0.51100000000E-03 0.  1.
         11   -1    0    0    0    0 -0.00000000000E+00 -0.00000000000E+00 -0.45593999997E+02  0.45594000000E+02  0.51100000000E-03 0. -1.
    9900012    2    1    2    0    0 -0.88482585299E+01  0.21719637800E+01  0.16360635093E+02  0.72461561836E+02  0.69999988981E+02 0.  0.
         12    1    1    2    0    0  0.88482585299E+01 -0.21719637800E+01 -0.16360635093E+02  0.18726438164E+02  0.00000000000E+00 0. -1.
         11    1    3    3    0    0  0.60910533007E+01  0.19472298245E+02  0.17619679468E+02  0.26957826954E+02  0.51100000000E-03 0. -1.
        -11    1    3    3    0    0  0.12915926833E+02 -0.78544474585E+01  0.39700395198E+01  0.15629290607E+02  0.51100000000E-03 0.  1.
         12    1    3    3    0    0 -0.27855238664E+02 -0.94458870065E+01 -0.52290838953E+01  0.29874444275E+02  0.00000000000E+00 0. -1.
</event>
<event>
 7    1  0.1692604E-013  0.7246154E+02  0.7816164E-02  0.1226708E+00
        -11   -1    0    0    0    0  0.00000000000E+00  0.00000000000E+00  0.45593999997E+02  0.45594000000E+02  0.51100000000E-03 0.  1.
         11   -1    0    0    0    0 -0.00000000000E+00 -0.00000000000E+00 -0.45593999997E+02  0.45594000000E+02  0.51100000000E-03 0. -1.
    9900012    2    1    2    0    0 -0.29143853593E+01  0.12028840435E+02  0.14053238135E+02  0.72461544214E+02  0.69999966025E+02 0.  0.
         12    1    1    2    0    0  0.29143853593E+01 -0.12028840435E+02 -0.14053238135E+02  0.18726455786E+02  0.00000000000E+00 0. -1.
         11    1    3    3    0    0  0.22662618277E+01  0.25663079746E+02 -0.14919892561E+02  0.29771341909E+02  0.51100000000E-03 0. -1.
        -11    1    3    3    0    0  0.45306799658E+01  0.46918044530E+01  0.18169958637E+02  0.19305115568E+02  0.51100000000E-03 0.  1.
        -12    1    3    3    0    0 -0.97113271528E+01 -0.18326043765E+02  0.10803172060E+02  0.23385086737E+02  0.00000000000E+00 0.  1.
</event>
<event>
 7    1  0.1692604E-013  0.7246157E+02  0.7816164E-02  0.1226708E+00
        -11   -1    0    0    0    0  0.00000000000E+00  0.00000000000E+00  0.45593999997E+02  0.45594000000E+02  0.51100000000E-03 0.  1.
         11   -1    0    0    0    0 -0.00000000000E+00 -0.00000000000E+00 -0.45593999997E+02  0.45594000000E+02  0.51100000000E-03 0. -1.
    9900012    2    1    2    0    0 -0.18535679446E+00 -0.73618442292E+01  0.17217670356E+02  0.72461567342E+02  0.69999996154E+02 0.  0.
         12    1    1    2    0    0  0.18535679446E+00  0.73618442292E+01 -0.17217670356E+02  0.18726432658E+02  0.00000000000E+00 0. -1.
         11    1    3    3    0    0  0.37768158339E+01  0.90777052892E+01  0.24696036965E+01  0.10137455985E+02  0.51100000000E-03 0. -1.
        -11    1    3    3    0    0 -0.12736420859E+02 -0.13900415643E+02  0.35196753460E+02  0.39928053117E+02  0.51100000000E-03 0.  1.
         12    1    3    3    0    0  0.87742482305E+01 -0.25391338758E+01 -0.20448686801E+02  0.22396058241E+02  0.00000000000E+00 0. -1.
</event>
<event>
 7    1  0.1692604E-013  0.7246160E+02  0.7816164E-02  0.1226708E+00
        -11   -1    0    0    0    0  0.00000000000E+00  0.00000000000E+00  0.45593999997E+02  0.45594000000E+02  0.51100000000E-03 0.  1.
         11   -1    0    0    0    0 -0.00000000000E+00 -0.00000000000E+00 -0.45593999997E+02  0.45594000000E+02  0.51100000000E-03 0. -1.
    9900012    2    1    2    0    0  0.13446323358E+01 -0.18678004154E+02 -0.47658306301E-01  0.72461597607E+02  0.70000035579E+02 0.  0.
         12    1    1    2    0    0 -0.13446323358E+01  0.18678004154E+02  0.47658306301E-01  0.18726402393E+02  0.00000000000E+00 0. -1.
         11    1    3    3    0    0 -0.68390543845E+01 -0.19391197275E+01  0.13535588884E+02  0.15288721885E+02  0.51100000000E-03 0. -1.
        -11    1    3    3    0    0 -0.71282184325E+01  0.16522811931E+02  0.34047563142E+00  0.17998075898E+02  0.51100000000E-03 0.  1.
         12    1    3    3    0    0  0.15311905153E+02 -0.33261696357E+02 -0.13923722822E+02  0.39174799823E+02  0.00000000000E+00 0. -1.
</event>
<event>
 7    1  0.1692604E-013  0.7246138E+02  0.7816164E-02  0.1226709E+00
        -11   -1    0    0    0    0  0.00000000000E+00  0.00000000000E+00  0.45593999997E+02  0.45594000000E+02  0.51100000000E-03 0.  1.
         11   -1    0    0    0    0 -0.00000000000E+00 -0.00000000000E+00 -0.45593999997E+02  0.45594000000E+02  0.51100000000E-03 0. -1.
    9900012    2    1    2    0    0  0.85226653513E+01 -0.16457205326E+02  0.26853259999E+01  0.72461377038E+02  0.69999748248E+02 0.  0.
         12    1    1    2    0    0 -0.85226653513E+01  0.16457205326E+02 -0.26853259999E+01  0.18726622962E+02  0.00000000000E+00 0. -1.
         11    1    3    3    0    0 -0.62172224019E+01  0.15036810790E+02  0.41538340336E+01  0.16793268609E+02  0.51100000000E-03 0. -1.
        -11    1    3    3    0    0  0.18972600167E+01 -0.39333228404E+01  0.18685633489E+02  0.19189151187E+02  0.51100000000E-03 0.  1.
        -12    1    3    3    0    0  0.12842627737E+02 -0.27560693275E+02 -0.20154141522E+02  0.36478957243E+02  0.00000000000E+00 0.  1.
</event>
<event>
 7    1  0.1692604E-013  0.7246156E+02  0.7816164E-02  0.1226708E+00
        -11   -1    0    0    0    0  0.00000000000E+00  0.00000000000E+00  0.45593999997E+02  0.45594000000E+02  0.51100000000E-03 0. -1.
         11   -1    0    0    0    0 -0.00000000000E+00 -0.00000000000E+00 -0.45593999997E+02  0.45594000000E+02  0.51100000000E-03 0.  1.
    9900012    2    1    2    0    0 -0.47215211779E+01  0.14966290500E+02 -0.10217487446E+02  0.72461557111E+02  0.69999982826E+02 0.  0.
         12    1    1    2    0    0  0.47215211779E+01 -0.14966290500E+02  0.10217487446E+02  0.18726442889E+02  0.00000000000E+00 0. -1.
         11    1    3    3    0    0  0.17203021472E+02 -0.21873333210E+02 -0.79396517291E+01  0.28938291645E+02  0.51100000000E-03 0. -1.
        -11    1    3    3    0    0 -0.62900475910E+01  0.59834154587E+01  0.11740062225E+01  0.87603795649E+01  0.51100000000E-03 0.  1.
        -12    1    3    3    0    0 -0.15634495058E+02  0.30856208252E+02 -0.34518419395E+01  0.34762885901E+02  0.00000000000E+00 0.  1.
</event>
<event>
 7    1  0.1692604E-013  0.7246156E+02  0.7816164E-02  0.1226708E+00
        -11   -1    0    0    0    0  0.00000000000E+00  0.00000000000E+00  0.45593999997E+02  0.45594000000E+02  0.51100000000E-03 0.  1.
         11   -1    0    0    0    0 -0.00000000000E+00 -0.00000000000E+00 -0.45593999997E+02  0.45594000000E+02  0.51100000000E-03 0. -1.
    9900012    2    1    2    0    0 -0.17976174114E+01  0.19740782443E+01  0.18535134673E+02  0.72461557982E+02  0.69999983962E+02 0.  0.
         12    1    1    2    0    0  0.17976174114E+01 -0.19740782443E+01 -0.18535134673E+02  0.18726442018E+02  0.00000000000E+00 0. -1.
         11    1    3    3    0    0 -0.43876885045E+01  0.25660419981E+01  0.14906143600E+02  0.15748952322E+02  0.51100000000E-03 0. -1.
        -11    1    3    3    0    0 -0.15257712908E+02 -0.46714300847E+01  0.24318211340E+02  0.29086001191E+02  0.51100000000E-03 0.  1.
         12    1    3    3    0    0  0.17847784001E+02  0.40794663309E+01 -0.20689220267E+02  0.27626604470E+02  0.00000000000E+00 0. -1.
</event>
<event>
 7    1  0.1692604E-013  0.7246154E+02  0.7816164E-02  0.1226708E+00
        -11   -1    0    0    0    0  0.00000000000E+00  0.00000000000E+00  0.45593999997E+02  0.45594000000E+02  0.51100000000E-03 0.  1.
         11   -1    0    0    0    0 -0.00000000000E+00 -0.00000000000E+00 -0.45593999997E+02  0.45594000000E+02  0.51100000000E-03 0. -1.
    9900012    2    1    2    0    0  0.16035814547E+02  0.70364827324E+01  0.66348229271E+01  0.72461539771E+02  0.69999960238E+02 0.  0.
         12    1    1    2    0    0 -0.16035814547E+02 -0.70364827324E+01 -0.66348229271E+01  0.18726460229E+02  0.00000000000E+00 0. -1.
         11    1    3    3    0    0 -0.63338024241E+00  0.26690983192E+01  0.15337173137E+02  0.15580569196E+02  0.51100000000E-03 0. -1.
        -11    1    3    3    0    0  0.33753003019E+02  0.59108736402E+01  0.53813245620E+01  0.34686629907E+02  0.51100000000E-03 0.  1.
         12    1    3    3    0    0 -0.17083808229E+02 -0.15434892270E+01 -0.14083674772E+02  0.22194340668E+02  0.00000000000E+00 0. -1.
</event>
<event>
 7    1  0.1692604E-013  0.7246158E+02  0.7816164E-02  0.1226708E+00
        -11   -1    0    0    0    0  0.00000000000E+00  0.00000000000E+00  0.45593999997E+02  0.45594000000E+02  0.51100000000E-03 0.  1.
         11   -1    0    0    0    0 -0.00000000000E+00 -0.00000000000E+00 -0.45593999997E+02  0.45594000000E+02  0.51100000000E-03 0. -1.
    9900012    2    1    2    0    0  0.56135665290E+01 -0.13919877583E+02 -0.11198377438E+02  0.72461580739E+02  0.70000013606E+02 0.  0.
         12    1    1    2    0    0 -0.56135665290E+01  0.13919877583E+02  0.11198377438E+02  0.18726419261E+02  0.00000000000E+00 0. -1.
         11    1    3    3    0    0 -0.69401811480E+01 -0.22338784228E+01  0.41079299766E+01  0.83684775275E+01  0.51100000000E-03 0. -1.
        -11    1    3    3    0    0 -0.17539876395E+02 -0.20892393895E+02  0.33887656187E+01  0.27488599806E+02  0.51100000000E-03 0.  1.
         12    1    3    3    0    0  0.30093624072E+02  0.92063947354E+01 -0.18695073034E+02  0.36604503405E+02  0.00000000000E+00 0. -1.
</event>
<event>
 7    1  0.1692604E-013  0.7246156E+02  0.7816164E-02  0.1226708E+00
        -11   -1    0    0    0    0  0.00000000000E+00  0.00000000000E+00  0.45593999997E+02  0.45594000000E+02  0.51100000000E-03 0.  1.
         11   -1    0    0    0    0 -0.00000000000E+00 -0.00000000000E+00 -0.45593999997E+02  0.45594000000E+02  0.51100000000E-03 0. -1.
    9900012    2    1    2    0    0  0.10683180834E+02 -0.92569726323E+01  0.12282415768E+02  0.72461557942E+02  0.69999983909E+02 0.  0.
         12    1    1    2    0    0 -0.10683180834E+02  0.92569726323E+01 -0.12282415768E+02  0.18726442058E+02  0.00000000000E+00 0. -1.
         11    1    3    3    0    0 -0.81779733545E+01  0.17968363038E+01 -0.97105644511E+01  0.12821970641E+02  0.51100000000E-03 0. -1.
        -11    1    3    3    0    0 -0.13942845800E+02 -0.61183108606E+01 -0.58689529620E+01  0.16318127525E+02  0.51100000000E-03 0.  1.
        -12    1    3    3    0    0  0.32803999989E+02 -0.49354980755E+01  0.27861933182E+02  0.43321459776E+02  0.00000000000E+00 0.  1.
</event>
<event>
 7    1  0.1692604E-013  0.7246152E+02  0.7816164E-02  0.1226708E+00
        -11   -1    0    0    0    0  0.00000000000E+00  0.00000000000E+00  0.45593999997E+02  0.45594000000E+02  0.51100000000E-03 0. -1.
         11   -1    0    0    0    0 -0.00000000000E+00 -0.00000000000E+00 -0.45593999997E+02  0.45594000000E+02  0.51100000000E-03 0.  1.
    9900012    2    1    2    0    0  0.31725842179E+00 -0.17218474982E+02 -0.73555850567E+01  0.72461517011E+02  0.69999930589E+02 0.  0.
         12    1    1    2    0    0 -0.31725842179E+00  0.17218474982E+02  0.73555850567E+01  0.18726482989E+02  0.00000000000E+00 0. -1.
         11    1    3    3    0    0  0.88452435290E+01  0.13459122274E+02  0.18233967794E+02  0.24328252861E+02  0.51100000000E-03 0. -1.
        -11    1    3    3    0    0  0.80834880429E+01 -0.42509780807E+01 -0.30381453664E+01  0.96251712251E+01  0.51100000000E-03 0.  1.
        -12    1    3    3    0    0 -0.16611473150E+02 -0.26426619175E+02 -0.22551407485E+02  0.38508092926E+02  0.00000000000E+00 0.  1.
</event>
<event>
 7    1  0.1692604E-013  0.7246158E+02  0.7816164E-02  0.1226708E+00
        -11   -1    0    0    0    0  0.00000000000E+00  0.00000000000E+00  0.45593999997E+02  0.45594000000E+02  0.51100000000E-03 0.  1.
         11   -1    0    0    0    0 -0.00000000000E+00 -0.00000000000E+00 -0.45593999997E+02  0.45594000000E+02  0.51100000000E-03 0. -1.
    9900012    2    1    2    0    0  0.43280293056E+01  0.13629960052E+02  0.12090125774E+02  0.72461580430E+02  0.70000013204E+02 0.  0.
         12    1    1    2    0    0 -0.43280293056E+01 -0.13629960052E+02 -0.12090125774E+02  0.18726419570E+02  0.00000000000E+00 0. -1.
         11    1    3    3    0    0 -0.91414477596E-01  0.26133857696E+00  0.93969310089E+00  0.97963148352E+00  0.51100000000E-03 0. -1.
        -11    1    3    3    0    0  0.27896360222E+02 -0.76179666206E+01  0.23893189719E+02  0.37511662777E+02  0.51100000000E-03 0.  1.
         12    1    3    3    0    0 -0.23476916439E+02  0.20986588095E+02 -0.12742757046E+02  0.33970286170E+02  0.00000000000E+00 0. -1.
</event>
<event>
 7    1  0.1692604E-013  0.7246159E+02  0.7816164E-02  0.1226708E+00
        -11   -1    0    0    0    0  0.00000000000E+00  0.00000000000E+00  0.45593999997E+02  0.45594000000E+02  0.51100000000E-03 0.  1.
         11   -1    0    0    0    0 -0.00000000000E+00 -0.00000000000E+00 -0.45593999997E+02  0.45594000000E+02  0.51100000000E-03 0. -1.
    9900012    2    1    2    0    0  0.16917812960E+02  0.28694063335E+01 -0.74988313127E+01  0.72461591933E+02  0.70000028188E+02 0.  0.
         12    1    1    2    0    0 -0.16917812960E+02 -0.28694063335E+01  0.74988313127E+01  0.18726408067E+02  0.00000000000E+00 0. -1.
         11    1    3    3    0    0  0.16785589646E+01 -0.17368920296E+02  0.72110163724E+00  0.17464734189E+02  0.51100000000E-03 0. -1.
        -11    1    3    3    0    0  0.20429176699E+02 -0.92320321923E+01 -0.10948275644E+02  0.24948876103E+02  0.51100000000E-03 0.  1.
        -12    1    3    3    0    0 -0.51899227035E+01  0.29470358822E+02  0.27283426939E+01  0.30047981640E+02  0.00000000000E+00 0.  1.
</event>
<event>
 7    1  0.1692604E-013  0.7246156E+02  0.7816164E-02  0.1226708E+00
        -11   -1    0    0    0    0  0.00000000000E+00  0.00000000000E+00  0.45593999997E+02  0.45594000000E+02  0.51100000000E-03 0.  1.
         11   -1    0    0    0    0 -0.00000000000E+00 -0.00000000000E+00 -0.45593999997E+02  0.45594000000E+02  0.51100000000E-03 0. -1.
    9900012    2    1    2    0    0 -0.66886944580E+01  0.13839604484E+01  0.17436331540E+02  0.72461557796E+02  0.69999983718E+02 0.  0.
         12    1    1    2    0    0  0.66886944580E+01 -0.13839604484E+01 -0.17436331540E+02  0.18726442204E+02  0.00000000000E+00 0. -1.
         11    1    3    3    0    0 -0.76673210902E+01  0.17269017219E+02 -0.68883956023E+01  0.20111110428E+02  0.51100000000E-03 0. -1.
        -11    1    3    3    0    0  0.64764737662E+00  0.12777663430E+02  0.19440381110E+02  0.23272656656E+02  0.51100000000E-03 0.  1.
         12    1    3    3    0    0  0.33097925559E+00 -0.28662720200E+02  0.48843460315E+01  0.29077790712E+02  0.00000000000E+00 0. -1.
</event>
<event>
 7    1  0.1692604E-013  0.7246155E+02  0.7816164E-02  0.1226708E+00
        -11   -1    0    0    0    0  0.00000000000E+00  0.00000000000E+00  0.45593999997E+02  0.45594000000E+02  0.51100000000E-03 0.  1.
         11   -1    0    0    0    0 -0.00000000000E+00 -0.00000000000E+00 -0.45593999997E+02  0.45594000000E+02  0.51100000000E-03 0. -1.
    9900012    2    1    2    0    0  0.11346420817E+01 -0.16686617416E+02  0.84231307099E+01  0.72461554945E+02  0.69999980005E+02 0.  0.
         12    1    1    2    0    0 -0.11346420817E+01  0.16686617416E+02 -0.84231307099E+01  0.18726445055E+02  0.00000000000E+00 0. -1.
         11    1    3    3    0    0  0.30806470887E+01  0.68152028567E+01  0.58943520246E+01  0.95226447227E+01  0.51100000000E-03 0. -1.
        -11    1    3    3    0    0  0.10644970724E+02  0.12974724598E+02  0.14872417796E+02  0.22424265684E+02  0.51100000000E-03 0.  1.
         12    1    3    3    0    0 -0.12590975731E+02 -0.36476544871E+02 -0.12343639111E+02  0.40514644538E+02  0.00000000000E+00 0. -1.
</event>
<event>
 7    1  0.1692604E-013  0.7246156E+02  0.7816164E-02  0.1226708E+00
        -11   -1    0    0    0    0  0.00000000000E+00  0.00000000000E+00  0.45593999997E+02  0.45594000000E+02  0.51100000000E-03 0. -1.
         11   -1    0    0    0    0 -0.00000000000E+00 -0.00000000000E+00 -0.45593999997E+02  0.45594000000E+02  0.51100000000E-03 0.  1.
    9900012    2    1    2    0    0  0.15918405369E+00  0.16202399745E+02 -0.93880987422E+01  0.72461561602E+02  0.69999988677E+02 0.  0.
         12    1    1    2    0    0 -0.15918405369E+00 -0.16202399745E+02  0.93880987422E+01  0.18726438398E+02  0.00000000000E+00 0. -1.
         11    1    3    3    0    0 -0.59391357700E+00  0.59122704831E+01 -0.10249540638E+00  0.59429101602E+01  0.51100000000E-03 0. -1.
        -11    1    3    3    0    0 -0.24898038159E+02  0.25134250190E+02  0.27013234777E+00  0.35379595935E+02  0.51100000000E-03 0.  1.
         12    1    3    3    0    0  0.25651135790E+02 -0.14844120928E+02 -0.95557356836E+01  0.31139055507E+02  0.00000000000E+00 0. -1.
</event>
<event>
 7    1  0.1692604E-013  0.7246154E+02  0.7816164E-02  0.1226708E+00
        -11   -1    0    0    0    0  0.00000000000E+00  0.00000000000E+00  0.45593999997E+02  0.45594000000E+02  0.51100000000E-03 0.  1.
         11   -1    0    0    0    0 -0.00000000000E+00 -0.00000000000E+00 -0.45593999997E+02  0.45594000000E+02  0.51100000000E-03 0. -1.
    9900012    2    1    2    0    0 -0.17325975491E+01  0.84360385172E+01  0.16628641286E+02  0.72461538744E+02  0.69999958900E+02 0.  0.
         12    1    1    2    0    0  0.17325975491E+01 -0.84360385172E+01 -0.16628641286E+02  0.18726461256E+02  0.00000000000E+00 0. -1.
         11    1    3    3    0    0 -0.31649789724E+02  0.90794417509E+01  0.11520068696E+02  0.34883483701E+02  0.51100000000E-03 0. -1.
        -11    1    3    3    0    0 -0.22742391806E+01  0.17994475906E+01  0.44203366666E+01  0.52867335841E+01  0.51100000000E-03 0.  1.
        -12    1    3    3    0    0  0.32191431356E+02 -0.24428508243E+01  0.68823592418E+00  0.32291321459E+02  0.00000000000E+00 0.  1.
</event>
<event>
 7    1  0.1692604E-013  0.7246157E+02  0.7816164E-02  0.1226708E+00
        -11   -1    0    0    0    0  0.00000000000E+00  0.00000000000E+00  0.45593999997E+02  0.45594000000E+02  0.51100000000E-03 0. -1.
         11   -1    0    0    0    0 -0.00000000000E+00 -0.00000000000E+00 -0.45593999997E+02  0.45594000000E+02  0.51100000000E-03 0.  1.
    9900012    2    1    2    0    0  0.34862451073E+01 -0.18327676775E+02 -0.16190837154E+01  0.72461572872E+02  0.70000003358E+02 0.  0.
         12    1    1    2    0    0 -0.34862451073E+01  0.18327676775E+02  0.16190837154E+01  0.18726427128E+02  0.00000000000E+00 0. -1.
         11    1    3    3    0    0 -0.25507799989E+02  0.50409282528E+01 -0.10250265339E+02  0.27948645006E+02  0.51100000000E-03 0. -1.
        -11    1    3    3    0    0  0.61292027171E+01 -0.65247041613E+01 -0.76519586708E+01  0.11776729686E+02  0.51100000000E-03 0.  1.
        -12    1    3    3    0    0  0.22864842379E+02 -0.16843900866E+02  0.16283140295E+02  0.32736198180E+02  0.00000000000E+00 0.  1.
</event>
<event>
 7    1  0.1692604E-013  0.7246161E+02  0.7816164E-02  0.1226708E+00
        -11   -1    0    0    0    0  0.00000000000E+00  0.00000000000E+00  0.45593999997E+02  0.45594000000E+02  0.51100000000E-03 0.  1.
         11   -1    0    0    0    0 -0.00000000000E+00 -0.00000000000E+00 -0.45593999997E+02  0.45594000000E+02  0.51100000000E-03 0. -1.
    9900012    2    1    2    0    0  0.13387887634E+02  0.60516034603E+01  0.11611213636E+02  0.72461608948E+02  0.70000050353E+02 0.  0.
         12    1    1    2    0    0 -0.13387887634E+02 -0.60516034603E+01 -0.11611213636E+02  0.18726391052E+02  0.00000000000E+00 0. -1.
         11    1    3    3    0    0  0.19720487064E+02  0.14893631083E+02  0.54840099523E+01  0.25313874107E+02  0.51100000000E-03 0. -1.
        -11    1    3    3    0    0 -0.94896609663E+01  0.15933085307E+02 -0.58541887230E+01  0.19447066578E+02  0.51100000000E-03 0.  1.
        -12    1    3    3    0    0  0.31570615367E+01 -0.24775112929E+02  0.11981392406E+02  0.27700668263E+02  0.00000000000E+00 0.  1.
</event>
<event>
 7    1  0.1692604E-013  0.7246148E+02  0.7816164E-02  0.1226708E+00
        -11   -1    0    0    0    0  0.00000000000E+00  0.00000000000E+00  0.45593999997E+02  0.45594000000E+02  0.51100000000E-03 0. -1.
         11   -1    0    0    0    0 -0.00000000000E+00 -0.00000000000E+00 -0.45593999997E+02  0.45594000000E+02  0.51100000000E-03 0.  1.
    9900012    2    1    2    0    0 -0.11722779946E+02  0.95883502052E+01 -0.11014649205E+02  0.72461480664E+02  0.69999883240E+02 0.  0.
         12    1    1    2    0    0  0.11722779946E+02 -0.95883502052E+01  0.11014649205E+02  0.18726519336E+02  0.00000000000E+00 0. -1.
         11    1    3    3    0    0 -0.12848514898E+02  0.65659592293E+01 -0.29272916647E+02  0.32635866849E+02  0.51100000000E-03 0. -1.
        -11    1    3    3    0    0  0.61039087671E+01  0.17930782793E+02  0.59233945332E+01  0.19845837772E+02  0.51100000000E-03 0.  1.
         12    1    3    3    0    0 -0.49781738157E+01 -0.14908391817E+02  0.12334872909E+02  0.19979776044E+02  0.00000000000E+00 0. -1.
</event>
<event>
 7    1  0.1692604E-013  0.7246160E+02  0.7816164E-02  0.1226708E+00
        -11   -1    0    0    0    0  0.00000000000E+00  0.00000000000E+00  0.45593999997E+02  0.45594000000E+02  0.51100000000E-03 0.  1.
         11   -1    0    0    0    0 -0.00000000000E+00 -0.00000000000E+00 -0.45593999997E+02  0.45594000000E+02  0.51100000000E-03 0. -1.
    9900012    2    1    2    0    0 -0.75848012203E+01  0.16882490638E+02  0.28514061577E+01  0.72461595733E+02  0.70000033139E+02 0.  0.
         12    1    1    2    0    0  0.75848012203E+01 -0.16882490638E+02 -0.28514061577E+01  0.18726404267E+02  0.00000000000E+00 0. -1.
         11    1    3    3    0    0  0.57159408157E+01  0.14809598946E+02 -0.23676178626E+02  0.28505396593E+02  0.51100000000E-03 0. -1.
        -11    1    3    3    0    0 -0.84728006684E+01  0.78651984315E+01 -0.42128908525E+01  0.12304395439E+02  0.51100000000E-03 0.  1.
         12    1    3    3    0    0 -0.48279413676E+01 -0.57923067399E+01  0.30740475636E+02  0.31651803701E+02  0.00000000000E+00 0. -1.
</event>
<event>
 7    1  0.1692604E-013  0.7246156E+02  0.7816164E-02  0.1226708E+00
        -11   -1    0    0    0    0  0.00000000000E+00  0.00000000000E+00  0.45593999997E+02  0.45594000000E+02  0.51100000000E-03 0.  1.
         11   -1    0    0    0    0 -0.00000000000E+00 -0.00000000000E+00 -0.45593999997E+02  0.45594000000E+02  0.51100000000E-03 0. -1.
    9900012    2    1    2    0    0 -0.18161936373E+02  0.26107618371E+01  0.37426726317E+01  0.72461558570E+02  0.69999984727E+02 0.  0.
         12    1    1    2    0    0  0.18161936373E+02 -0.26107618371E+01 -0.37426726317E+01  0.18726441430E+02  0.00000000000E+00 0. -1.
         11    1    3    3    0    0 -0.11666421437E+02  0.45859473692E+01 -0.75324126557E+01  0.14624415992E+02  0.51100000000E-03 0. -1.
        -11    1    3    3    0    0 -0.26606343987E+02  0.14561050924E+02  0.93090589081E+01  0.31726650033E+02  0.51100000000E-03 0.  1.
         12    1    3    3    0    0  0.20110829050E+02 -0.16536236456E+02  0.19660263793E+01  0.26110492545E+02  0.00000000000E+00 0. -1.
</event>
<event>
 7    1  0.1692604E-013  0.7246155E+02  0.7816164E-02  0.1226708E+00
        -11   -1    0    0    0    0  0.00000000000E+00  0.00000000000E+00  0.45593999997E+02  0.45594000000E+02  0.51100000000E-03 0.  1.
         11   -1    0    0    0    0 -0.00000000000E+00 -0.00000000000E+00 -0.45593999997E+02  0.45594000000E+02  0.51100000000E-03 0. -1.
    9900012    2    1    2    0    0  0.11893007733E+02  0.79063642811E+01  0.12113035340E+02  0.72461552012E+02  0.69999976184E+02 0.  0.
         12    1    1    2    0    0 -0.11893007733E+02 -0.79063642811E+01 -0.12113035340E+02  0.18726447988E+02  0.00000000000E+00 0. -1.
         11    1    3    3    0    0  0.93962352829E+01  0.45597369441E+01  0.14736339916E+01  0.10547608065E+02  0.51100000000E-03 0. -1.
        -11    1    3    3    0    0  0.24930724768E+01 -0.22891642314E+02 -0.13132368142E+02  0.26508522997E+02  0.51100000000E-03 0.  1.
         12    1    3    3    0    0  0.36999735865E-02  0.26238269651E+02  0.23771769490E+02  0.35405420950E+02  0.00000000000E+00 0. -1.
</event>
<event>
 7    1  0.1692604E-013  0.7246164E+02  0.7816164E-02  0.1226708E+00
        -11   -1    0    0    0    0  0.00000000000E+00  0.00000000000E+00  0.45593999997E+02  0.45594000000E+02  0.51100000000E-03 0. -1.
         11   -1    0    0    0    0 -0.00000000000E+00 -0.00000000000E+00 -0.45593999997E+02  0.45594000000E+02  0.51100000000E-03 0.  1.
    9900012    2    1    2    0    0  0.18207547141E+02  0.42737264693E+01 -0.94706081710E+00  0.72461643307E+02  0.70000095112E+02 0.  0.
         12    1    1    2    0    0 -0.18207547141E+02 -0.42737264693E+01  0.94706081710E+00  0.18726356693E+02  0.00000000000E+00 0. -1.
         11    1    3    3    0    0  0.47022665277E+01  0.15694651335E+02  0.19509286113E+02  0.25476374073E+02  0.51100000000E-03 0. -1.
        -11    1    3    3    0    0 -0.78819480216E+01  0.61919555774E+01  0.32336733525E+01  0.10531954334E+02  0.51100000000E-03 0.  1.
        -12    1    3    3    0    0  0.21387228634E+02 -0.17612880443E+02 -0.23690020282E+02  0.36453314899E+02  0.00000000000E+00 0.  1.
</event>
<event>
 7    1  0.1692604E-013  0.7246157E+02  0.7816164E-02  0.1226708E+00
        -11   -1    0    0    0    0  0.00000000000E+00  0.00000000000E+00  0.45593999997E+02  0.45594000000E+02  0.51100000000E-03 0.  1.
         11   -1    0    0    0    0 -0.00000000000E+00 -0.00000000000E+00 -0.45593999997E+02  0.45594000000E+02  0.51100000000E-03 0. -1.
    9900012    2    1    2    0    0 -0.14653025466E+02 -0.79160285878E+01  0.85617956031E+01  0.72461574611E+02  0.70000005623E+02 0.  0.
         12    1    1    2    0    0  0.14653025466E+02  0.79160285878E+01 -0.85617956031E+01  0.18726425389E+02  0.00000000000E+00 0. -1.
         11    1    3    3    0    0 -0.53681158757E+01 -0.11550873136E+02  0.66258596918E+01  0.14357623591E+02  0.51100000000E-03 0. -1.
        -11    1    3    3    0    0 -0.27961461812E+02 -0.32809433182E+01 -0.15054292206E+02  0.31925532882E+02  0.51100000000E-03 0.  1.
         12    1    3    3    0    0  0.18676552222E+02  0.69157878665E+01  0.16990228117E+02  0.26178418138E+02  0.00000000000E+00 0. -1.
</event>
<event>
 7    1  0.1692604E-013  0.7246157E+02  0.7816164E-02  0.1226708E+00
        -11   -1    0    0    0    0  0.00000000000E+00  0.00000000000E+00  0.45593999997E+02  0.45594000000E+02  0.51100000000E-03 0.  1.
         11   -1    0    0    0    0 -0.00000000000E+00 -0.00000000000E+00 -0.45593999997E+02  0.45594000000E+02  0.51100000000E-03 0. -1.
    9900012    2    1    2    0    0  0.65368544295E+01 -0.26903985544E+01  0.17341004417E+02  0.72461570965E+02  0.70000000873E+02 0.  0.
         12    1    1    2    0    0 -0.65368544295E+01  0.26903985544E+01 -0.17341004417E+02  0.18726429035E+02  0.00000000000E+00 0. -1.
         11    1    3    3    0    0  0.56559536141E+01  0.17403836794E+02 -0.10235600016E+02  0.20967852880E+02  0.51100000000E-03 0. -1.
        -11    1    3    3    0    0 -0.10871355725E+01  0.63684938195E+01  0.23835415520E+02  0.24695477532E+02  0.51100000000E-03 0.  1.
        -12    1    3    3    0    0  0.19680363880E+01 -0.26462729168E+02  0.37411889133E+01  0.26798240553E+02  0.00000000000E+00 0.  1.
</event>
<event>
 7    1  0.1692604E-013  0.7246156E+02  0.7816164E-02  0.1226708E+00
        -11   -1    0    0    0    0  0.00000000000E+00  0.00000000000E+00  0.45593999997E+02  0.45594000000E+02  0.51100000000E-03 0. -1.
         11   -1    0    0    0    0 -0.00000000000E+00 -0.00000000000E+00 -0.45593999997E+02  0.45594000000E+02  0.51100000000E-03 0.  1.
    9900012    2    1    2    0    0  0.81664403902E+01 -0.13483372054E+02  0.10108776257E+02  0.72461563393E+02  0.69999991009E+02 0.  0.
         12    1    1    2    0    0 -0.81664403902E+01  0.13483372054E+02 -0.10108776257E+02  0.18726436607E+02  0.00000000000E+00 0. -1.
         11    1    3    3    0    0 -0.50120730113E+01 -0.55567691507E+01  0.19688705326E+02  0.21062850636E+02  0.51100000000E-03 0. -1.
        -11    1    3    3    0    0 -0.97780648313E+01 -0.81361590776E+01  0.13705701192E+02  0.18699034248E+02  0.51100000000E-03 0.  1.
        -12    1    3    3    0    0  0.22956578233E+02  0.20955617437E+00 -0.23285630261E+02  0.32699678509E+02  0.00000000000E+00 0.  1.
</event>
<event>
 7    1  0.1692604E-013  0.7246150E+02  0.7816164E-02  0.1226708E+00
        -11   -1    0    0    0    0  0.00000000000E+00  0.00000000000E+00  0.45593999997E+02  0.45594000000E+02  0.51100000000E-03 0. -1.
         11   -1    0    0    0    0 -0.00000000000E+00 -0.00000000000E+00 -0.45593999997E+02  0.45594000000E+02  0.51100000000E-03 0.  1.
    9900012    2    1    2    0    0 -0.46030353401E+01  0.17781603320E+02 -0.36480593242E+01  0.72461503055E+02  0.69999912409E+02 0.  0.
         12    1    1    2    0    0  0.46030353401E+01 -0.17781603320E+02  0.36480593242E+01  0.18726496945E+02  0.00000000000E+00 0. -1.
         11    1    3    3    0    0  0.32768148033E+01 -0.52556331656E+01 -0.67143052376E+01  0.91346094778E+01  0.51100000000E-03 0. -1.
        -11    1    3    3    0    0  0.12134993994E+00  0.18631245718E+02 -0.26493010550E+02  0.32388541972E+02  0.51100000000E-03 0.  1.
         12    1    3    3    0    0 -0.80012000833E+01  0.44059907681E+01  0.29559256463E+02  0.30938351606E+02  0.00000000000E+00 0. -1.
</event>
<event>
 7    1  0.1692604E-013  0.7246157E+02  0.7816164E-02  0.1226708E+00
        -11   -1    0    0    0    0  0.00000000000E+00  0.00000000000E+00  0.45593999997E+02  0.45594000000E+02  0.51100000000E-03 0.  1.
         11   -1    0    0    0    0 -0.00000000000E+00 -0.00000000000E+00 -0.45593999997E+02  0.45594000000E+02  0.51100000000E-03 0. -1.
    9900012    2    1    2    0    0 -0.11602537763E+01  0.43738522553E+00  0.18685329677E+02  0.72461573758E+02  0.70000004512E+02 0.  0.
         12    1    1    2    0    0  0.11602537763E+01 -0.43738522553E+00 -0.18685329677E+02  0.18726426242E+02  0.00000000000E+00 0. -1.
         11    1    3    3    0    0  0.30507982807E+01  0.22692216876E+01  0.27971844119E+02  0.28229077224E+02  0.51100000000E-03 0. -1.
        -11    1    3    3    0    0 -0.10755316437E+01  0.16413220495E+02  0.85391898033E+01  0.18532898804E+02  0.51100000000E-03 0.  1.
         12    1    3    3    0    0 -0.31355204132E+01 -0.18245056957E+02 -0.17825704245E+02  0.25699597730E+02  0.00000000000E+00 0. -1.
</event>
<event>
 7    1  0.1692604E-013  0.7246157E+02  0.7816164E-02  0.1226708E+00
        -11   -1    0    0    0    0  0.00000000000E+00  0.00000000000E+00  0.45593999997E+02  0.45594000000E+02  0.51100000000E-03 0.  1.
         11   -1    0    0    0    0 -0.00000000000E+00 -0.00000000000E+00 -0.45593999997E+02  0.45594000000E+02  0.51100000000E-03 0. -1.
    9900012    2    1    2    0    0  0.12355469152E+02  0.36366210505E+01  0.13593984656E+02  0.72461573500E+02  0.70000004175E+02 0.  0.
         12    1    1    2    0    0 -0.12355469152E+02 -0.36366210505E+01 -0.13593984656E+02  0.18726426500E+02  0.00000000000E+00 0. -1.
         11    1    3    3    0    0  0.22631206512E+02  0.20148734848E+02 -0.17260392453E+02  0.34872111666E+02  0.51100000000E-03 0. -1.
        -11    1    3    3    0    0 -0.18298705938E+01  0.33407368211E+00  0.61571631039E+00  0.19593719532E+01  0.51100000000E-03 0.  1.
        -12    1    3    3    0    0 -0.84458667654E+01 -0.16846187479E+02  0.30238660799E+02  0.35630089881E+02  0.00000000000E+00 0.  1.
</event>
<event>
 7    1  0.1692604E-013  0.7246158E+02  0.7816164E-02  0.1226708E+00
        -11   -1    0    0    0    0  0.00000000000E+00  0.00000000000E+00  0.45593999997E+02  0.45594000000E+02  0.51100000000E-03 0.  1.
         11   -1    0    0    0    0 -0.00000000000E+00 -0.00000000000E+00 -0.45593999997E+02  0.45594000000E+02  0.51100000000E-03 0. -1.
    9900012    2    1    2    0    0 -0.12614927777E+02  0.11561327782E+02  0.76077673860E+01  0.72461579427E+02  0.70000011897E+02 0.  0.
         12    1    1    2    0    0  0.12614927777E+02 -0.11561327782E+02 -0.76077673860E+01  0.18726420573E+02  0.00000000000E+00 0. -1.
         11    1    3    3    0    0 -0.10859044768E+02 -0.55040998562E+01 -0.14780387995E+02  0.19148729411E+02  0.51100000000E-03 0. -1.
        -11    1    3    3    0    0 -0.10541942923E+02 -0.10271240241E+02  0.19532786615E+02  0.24457323850E+02  0.51100000000E-03 0.  1.
        -12    1    3    3    0    0  0.87860599144E+01  0.27336667879E+02  0.28553687661E+01  0.28855526166E+02  0.00000000000E+00 0.  1.
</event>
<event>
 7    1  0.1692604E-013  0.7246150E+02  0.7816164E-02  0.1226708E+00
        -11   -1    0    0    0    0  0.00000000000E+00  0.00000000000E+00  0.45593999997E+02  0.45594000000E+02  0.51100000000E-03 0.  1.
         11   -1    0    0    0    0 -0.00000000000E+00 -0.00000000000E+00 -0.45593999997E+02  0.45594000000E+02  0.51100000000E-03 0. -1.
    9900012    2    1    2    0    0  0.64528743597E+01  0.11621554021E+02  0.13190215683E+02  0.72461497520E+02  0.69999905198E+02 0.  0.
         12    1    1    2    0    0 -0.64528743597E+01 -0.11621554021E+02 -0.13190215683E+02  0.18726502480E+02  0.00000000000E+00 0. -1.
         11    1    3    3    0    0  0.12336974487E+01  0.57541388773E+01  0.24702415778E+01  0.63823363534E+01  0.51100000000E-03 0. -1.
        -11    1    3    3    0    0  0.53258927612E+01  0.30017712522E+02  0.23742714881E+02  0.38641230686E+02  0.51100000000E-03 0.  1.
         12    1    3    3    0    0 -0.10671585023E+00 -0.24150297378E+02 -0.13022740776E+02  0.27437930480E+02  0.00000000000E+00 0. -1.
</event>
<event>
 7    1  0.1692604E-013  0.7246158E+02  0.7816164E-02  0.1226708E+00
        -11   -1    0    0    0    0  0.00000000000E+00  0.00000000000E+00  0.45593999997E+02  0.45594000000E+02  0.51100000000E-03 0.  1.
         11   -1    0    0    0    0 -0.00000000000E+00 -0.00000000000E+00 -0.45593999997E+02  0.45594000000E+02  0.51100000000E-03 0. -1.
    9900012    2    1    2    0    0  0.24446466500E+01 -0.15446426832E+02  0.10300991819E+02  0.72461579318E+02  0.70000011754E+02 0.  0.
         12    1    1    2    0    0 -0.24446466500E+01  0.15446426832E+02 -0.10300991819E+02  0.18726420682E+02  0.00000000000E+00 0. -1.
         11    1    3    3    0    0 -0.11051164998E+02 -0.18987281290E+02  0.10570615950E+02  0.24379971707E+02  0.51100000000E-03 0. -1.
        -11    1    3    3    0    0 -0.15270976596E+02  0.92571933524E+01  0.43776317823E+01  0.18386462826E+02  0.51100000000E-03 0.  1.
        -12    1    3    3    0    0  0.28766788244E+02 -0.57163388941E+01 -0.46472559136E+01  0.29695144785E+02  0.00000000000E+00 0.  1.
</event>
<event>
 7    1  0.1692604E-013  0.7246156E+02  0.7816164E-02  0.1226708E+00
        -11   -1    0    0    0    0  0.00000000000E+00  0.00000000000E+00  0.45593999997E+02  0.45594000000E+02  0.51100000000E-03 0. -1.
         11   -1    0    0    0    0 -0.00000000000E+00 -0.00000000000E+00 -0.45593999997E+02  0.45594000000E+02  0.51100000000E-03 0.  1.
    9900012    2    1    2    0    0 -0.13194576816E+02  0.50492582851E+00  0.13278850194E+02  0.72461556933E+02  0.69999982595E+02 0.  0.
         12    1    1    2    0    0  0.13194576816E+02 -0.50492582851E+00 -0.13278850194E+02  0.18726443067E+02  0.00000000000E+00 0. -1.
         11    1    3    3    0    0 -0.15314510035E+01 -0.62191986742E+01  0.25409293780E+02  0.26204121527E+02  0.51100000000E-03 0. -1.
        -11    1    3    3    0    0 -0.23898296736E+01 -0.17902630050E+02 -0.74108499064E+01  0.19522708448E+02  0.51100000000E-03 0.  1.
        -12    1    3    3    0    0 -0.92732961387E+01  0.24626754552E+02 -0.47195936790E+01  0.26734726959E+02  0.00000000000E+00 0.  1.
</event>
<event>
 7    1  0.1692604E-013  0.7246161E+02  0.7816164E-02  0.1226708E+00
        -11   -1    0    0    0    0  0.00000000000E+00  0.00000000000E+00  0.45593999997E+02  0.45594000000E+02  0.51100000000E-03 0.  1.
         11   -1    0    0    0    0 -0.00000000000E+00 -0.00000000000E+00 -0.45593999997E+02  0.45594000000E+02  0.51100000000E-03 0. -1.
    9900012    2    1    2    0    0  0.14514700188E+02  0.55030931563E+01 -0.10474594904E+02  0.72461609685E+02  0.70000051314E+02 0.  0.
         12    1    1    2    0    0 -0.14514700188E+02 -0.55030931563E+01  0.10474594904E+02  0.18726390315E+02  0.00000000000E+00 0. -1.
         11    1    3    3    0    0  0.17896062531E+02  0.14338106141E+02 -0.29740901584E+01  0.23123484909E+02  0.51100000000E-03 0. -1.
        -11    1    3    3    0    0 -0.25205428172E+02 -0.63065132598E-02 -0.45295483037E+01  0.25609186969E+02  0.51100000000E-03 0.  1.
         12    1    3    3    0    0  0.21824065829E+02 -0.88287064713E+01 -0.29709564421E+01  0.23728937807E+02  0.00000000000E+00 0. -1.
</event>
<event>
 7    1  0.1692604E-013  0.7246162E+02  0.7816164E-02  0.1226708E+00
        -11   -1    0    0    0    0  0.00000000000E+00  0.00000000000E+00  0.45593999997E+02  0.45594000000E+02  0.51100000000E-03 0. -1.
         11   -1    0    0    0    0 -0.00000000000E+00 -0.00000000000E+00 -0.45593999997E+02  0.45594000000E+02  0.51100000000E-03 0.  1.
    9900012    2    1    2    0    0  0.70743575635E+01  0.80610564426E+01 -0.15350900903E+02  0.72461619558E+02  0.70000064176E+02 0.  0.
         12    1    1    2    0    0 -0.70743575635E+01 -0.80610564426E+01  0.15350900903E+02  0.18726380442E+02  0.00000000000E+00 0. -1.
         11    1    3    3    0    0 -0.58015339778E+01  0.10419709218E+02 -0.21632344796E+02  0.24701952925E+02  0.51100000000E-03 0. -1.
        -11    1    3    3    0    0 -0.78033304649E+01  0.90627897109E+01 -0.12707610437E+02  0.17450200199E+02  0.51100000000E-03 0.  1.
         12    1    3    3    0    0  0.20679222006E+02 -0.11421442486E+02  0.18989054330E+02  0.30309466435E+02  0.00000000000E+00 0. -1.
</event>
<event>
 7    1  0.1692604E-013  0.7246149E+02  0.7816164E-02  0.1226708E+00
        -11   -1    0    0    0    0  0.00000000000E+00  0.00000000000E+00  0.45593999997E+02  0.45594000000E+02  0.51100000000E-03 0. -1.
         11   -1    0    0    0    0 -0.00000000000E+00 -0.00000000000E+00 -0.45593999997E+02  0.45594000000E+02  0.51100000000E-03 0.  1.
    9900012    2    1    2    0    0  0.35333386749E+00 -0.14962023266E+02 -0.11255901181E+02  0.72461486805E+02  0.69999891239E+02 0.  0.
         12    1    1    2    0    0 -0.35333386749E+00  0.14962023266E+02  0.11255901181E+02  0.18726513195E+02  0.00000000000E+00 0. -1.
         11    1    3    3    0    0 -0.12851445076E+02 -0.31232794953E+01 -0.47037799681E+01  0.14037095910E+02  0.51100000000E-03 0. -1.
        -11    1    3    3    0    0 -0.15371443802E+02 -0.22691457890E+02 -0.15630428018E+01  0.27452261269E+02  0.51100000000E-03 0.  1.
         12    1    3    3    0    0  0.28576222745E+02  0.10852714119E+02 -0.49890784114E+01  0.30972129625E+02  0.00000000000E+00 0. -1.
</event>
<event>
 7    1  0.1692604E-013  0.7246155E+02  0.7816164E-02  0.1226708E+00
        -11   -1    0    0    0    0  0.00000000000E+00  0.00000000000E+00  0.45593999997E+02  0.45594000000E+02  0.51100000000E-03 0. -1.
         11   -1    0    0    0    0 -0.00000000000E+00 -0.00000000000E+00 -0.45593999997E+02  0.45594000000E+02  0.51100000000E-03 0.  1.
    9900012    2    1    2    0    0 -0.13185509501E+01 -0.17764108722E+02 -0.57773521484E+01  0.72461549906E+02  0.69999973440E+02 0.  0.
         12    1    1    2    0    0  0.13185509501E+01  0.17764108722E+02  0.57773521484E+01  0.18726450094E+02  0.00000000000E+00 0. -1.
         11    1    3    3    0    0  0.52594874607E+01  0.15369688160E+02 -0.10357243961E+02  0.19265565790E+02  0.51100000000E-03 0. -1.
        -11    1    3    3    0    0  0.15958203953E+02 -0.20698245500E+02  0.77531178919E+01  0.27261556769E+02  0.51100000000E-03 0.  1.
         12    1    3    3    0    0 -0.22536242364E+02 -0.12435551382E+02 -0.31732260790E+01  0.25934427347E+02  0.00000000000E+00 0. -1.
</event>
<event>
 7    1  0.1692604E-013  0.7246159E+02  0.7816164E-02  0.1226708E+00
        -11   -1    0    0    0    0  0.00000000000E+00  0.00000000000E+00  0.45593999997E+02  0.45594000000E+02  0.51100000000E-03 0. -1.
         11   -1    0    0    0    0 -0.00000000000E+00 -0.00000000000E+00 -0.45593999997E+02  0.45594000000E+02  0.51100000000E-03 0.  1.
    9900012    2    1    2    0    0 -0.11601110723E+01 -0.85323508609E+01 -0.16629236045E+02  0.72461591899E+02  0.70000028144E+02 0.  0.
         12    1    1    2    0    0  0.11601110723E+01  0.85323508609E+01  0.16629236045E+02  0.18726408101E+02  0.00000000000E+00 0. -1.
         11    1    3    3    0    0  0.35216574459E+01 -0.56765127002E+01  0.24347683683E+01  0.71100608204E+01  0.51100000000E-03 0. -1.
        -11    1    3    3    0    0  0.12432985974E+02 -0.58664669123E+01  0.19032812454E+02  0.23478554564E+02  0.51100000000E-03 0.  1.
         12    1    3    3    0    0 -0.17114754492E+02  0.30106287516E+01 -0.38096816867E+02  0.41872976515E+02  0.00000000000E+00 0. -1.
</event>
<event>
 7    1  0.1692604E-013  0.7246176E+02  0.7816164E-02  0.1226708E+00
        -11   -1    0    0    0    0  0.00000000000E+00  0.00000000000E+00  0.45593999997E+02  0.45594000000E+02  0.51100000000E-03 0. -1.
         11   -1    0    0    0    0 -0.00000000000E+00 -0.00000000000E+00 -0.45593999997E+02  0.45594000000E+02  0.51100000000E-03 0.  1.
    9900012    2    1    2    0    0 -0.75812126199E+01 -0.17023261584E+02  0.18454946634E+01  0.72461759846E+02  0.70000246925E+02 0.  0.
         12    1    1    2    0    0  0.75812126199E+01  0.17023261584E+02 -0.18454946634E+01  0.18726240154E+02  0.00000000000E+00 0. -1.
         11    1    3    3    0    0 -0.75903780347E+01  0.11259083628E+02  0.42791091283E+01  0.14236979246E+02  0.51100000000E-03 0. -1.
        -11    1    3    3    0    0 -0.15421671942E+02  0.86933982195E+01  0.24107380392E+01  0.17866583228E+02  0.51100000000E-03 0.  1.
        -12    1    3    3    0    0  0.15430837357E+02 -0.36975743432E+02 -0.48443525041E+01  0.40358197372E+02  0.00000000000E+00 0.  1.
</event>
<event>
 7    1  0.1692604E-013  0.7246157E+02  0.7816164E-02  0.1226708E+00
        -11   -1    0    0    0    0  0.00000000000E+00  0.00000000000E+00  0.45593999997E+02  0.45594000000E+02  0.51100000000E-03 0.  1.
         11   -1    0    0    0    0 -0.00000000000E+00 -0.00000000000E+00 -0.45593999997E+02  0.45594000000E+02  0.51100000000E-03 0. -1.
    9900012    2    1    2    0    0  0.53735405256E+01 -0.13016992191E+02  0.12343510020E+02  0.72461567796E+02  0.69999996745E+02 0.  0.
         12    1    1    2    0    0 -0.53735405256E+01  0.13016992191E+02 -0.12343510020E+02  0.18726432204E+02  0.00000000000E+00 0. -1.
         11    1    3    3    0    0 -0.15228195812E+01 -0.12576378617E+02  0.20989924469E+02  0.24516549677E+02  0.51100000000E-03 0. -1.
        -11    1    3    3    0    0  0.22279873790E+02 -0.11819106404E+02 -0.12922687474E+02  0.28338664472E+02  0.51100000000E-03 0.  1.
         12    1    3    3    0    0 -0.15383513683E+02  0.11378492830E+02  0.42762730248E+01  0.19606353646E+02  0.00000000000E+00 0. -1.
</event>
<event>
 7    1  0.1692604E-013  0.7246160E+02  0.7816164E-02  0.1226708E+00
        -11   -1    0    0    0    0  0.00000000000E+00  0.00000000000E+00  0.45593999997E+02  0.45594000000E+02  0.51100000000E-03 0. -1.
         11   -1    0    0    0    0 -0.00000000000E+00 -0.00000000000E+00 -0.45593999997E+02  0.45594000000E+02  0.51100000000E-03 0.  1.
    9900012    2    1    2    0    0 -0.11009616844E+02 -0.14522638300E+02 -0.43080698596E+01  0.72461597458E+02  0.70000035386E+02 0.  0.
         12    1    1    2    0    0  0.11009616844E+02  0.14522638300E+02  0.43080698596E+01  0.18726402542E+02  0.00000000000E+00 0. -1.
         11    1    3    3    0    0 -0.30122169887E+02 -0.14567520392E+02  0.16019643134E+02  0.37096990922E+02  0.51100000000E-03 0. -1.
        -11    1    3    3    0    0 -0.32261479670E+01 -0.68580366794E+00 -0.10396033366E+02  0.10906689112E+02  0.51100000000E-03 0.  1.
        -12    1    3    3    0    0  0.22338701010E+02  0.73068575970E+00 -0.99316796281E+01  0.24457917424E+02  0.00000000000E+00 0.  1.
</event>
<event>
 7    1  0.1692604E-013  0.7246162E+02  0.7816164E-02  0.1226708E+00
        -11   -1    0    0    0    0  0.00000000000E+00  0.00000000000E+00  0.45593999997E+02  0.45594000000E+02  0.51100000000E-03 0. -1.
         11   -1    0    0    0    0 -0.00000000000E+00 -0.00000000000E+00 -0.45593999997E+02  0.45594000000E+02  0.51100000000E-03 0.  1.
    9900012    2    1    2    0    0 -0.16076218745E+01 -0.32401420310E+01 -0.18373742180E+02  0.72461618337E+02  0.70000062585E+02 0.  0.
         12    1    1    2    0    0  0.16076218745E+01  0.32401420310E+01  0.18373742180E+02  0.18726381663E+02  0.00000000000E+00 0. -1.
         11    1    3    3    0    0 -0.69535357403E+01 -0.12062426741E+01 -0.28080876057E+01  0.75955274302E+01  0.51100000000E-03 0. -1.
        -11    1    3    3    0    0 -0.25323920468E+02 -0.99760064259E+01  0.41769288821E+01  0.27536673496E+02  0.51100000000E-03 0.  1.
         12    1    3    3    0    0  0.30669834334E+02  0.79421070690E+01 -0.19742583456E+02  0.37329417411E+02  0.00000000000E+00 0. -1.
</event>
<event>
 7    1  0.1692604E-013  0.7246164E+02  0.7816164E-02  0.1226708E+00
        -11   -1    0    0    0    0  0.00000000000E+00  0.00000000000E+00  0.45593999997E+02  0.45594000000E+02  0.51100000000E-03 0. -1.
         11   -1    0    0    0    0 -0.00000000000E+00 -0.00000000000E+00 -0.45593999997E+02  0.45594000000E+02  0.51100000000E-03 0.  1.
    9900012    2    1    2    0    0 -0.17048757961E+02  0.22989438436E+01  0.73980635786E+01  0.72461637953E+02  0.70000088138E+02 0.  0.
         12    1    1    2    0    0  0.17048757961E+02 -0.22989438436E+01 -0.73980635786E+01  0.18726362047E+02  0.00000000000E+00 0. -1.
         11    1    3    3    0    0  0.83144480205E+01  0.11088148211E+02 -0.10389005722E+02  0.17320753932E+02  0.51100000000E-03 0. -1.
        -11    1    3    3    0    0 -0.11614625319E+01  0.11189352885E+02  0.20765910488E+02  0.23617232096E+02  0.51100000000E-03 0.  1.
        -12    1    3    3    0    0 -0.24201743450E+02 -0.19978557252E+02 -0.29788411883E+01  0.31523651925E+02  0.00000000000E+00 0.  1.
</event>
<event>
 7    1  0.1692604E-013  0.7246161E+02  0.7816164E-02  0.1226708E+00
        -11   -1    0    0    0    0  0.00000000000E+00  0.00000000000E+00  0.45593999997E+02  0.45594000000E+02  0.51100000000E-03 0.  1.
         11   -1    0    0    0    0 -0.00000000000E+00 -0.00000000000E+00 -0.45593999997E+02  0.45594000000E+02  0.51100000000E-03 0. -1.
    9900012    2    1    2    0    0 -0.61404554206E+01  0.15227944724E+02 -0.90045623445E+01  0.72461611231E+02  0.70000053328E+02 0.  0.
         12    1    1    2    0    0  0.61404554206E+01 -0.15227944724E+02  0.90045623445E+01  0.18726388769E+02  0.00000000000E+00 0. -1.
         11    1    3    3    0    0 -0.31534565352E+01 -0.18259812112E+02 -0.14039064173E+02  0.23247803113E+02  0.51100000000E-03 0. -1.
        -11    1    3    3    0    0 -0.47274185795E+01 -0.63070774898E+01 -0.32545915787E+01  0.85276069031E+01  0.51100000000E-03 0.  1.
        -12    1    3    3    0    0  0.17404196942E+01  0.39794834326E+02  0.82890934070E+01  0.40686201215E+02  0.00000000000E+00 0.  1.
</event>
<event>
 7    1  0.1692604E-013  0.7246158E+02  0.7816164E-02  0.1226708E+00
        -11   -1    0    0    0    0  0.00000000000E+00  0.00000000000E+00  0.45593999997E+02  0.45594000000E+02  0.51100000000E-03 0. -1.
         11   -1    0    0    0    0 -0.00000000000E+00 -0.00000000000E+00 -0.45593999997E+02  0.45594000000E+02  0.51100000000E-03 0.  1.
    9900012    2    1    2    0    0  0.76675477115E+01  0.16525711391E+02  0.43345774090E+01  0.72461575189E+02  0.70000006376E+02 0.  0.
         12    1    1    2    0    0 -0.76675477115E+01 -0.16525711391E+02 -0.43345774090E+01  0.18726424811E+02  0.00000000000E+00 0. -1.
         11    1    3    3    0    0  0.43121899122E+01 -0.41122712760E+01  0.15146435123E+02  0.16276371035E+02  0.51100000000E-03 0. -1.
        -11    1    3    3    0    0  0.10989595648E+02  0.83807969496E+01  0.18745205906E+02  0.23289304728E+02  0.51100000000E-03 0.  1.
        -12    1    3    3    0    0 -0.76342378484E+01  0.12257185718E+02 -0.29557063619E+02  0.32895899426E+02  0.00000000000E+00 0.  1.
</event>
<event>
 7    1  0.1692604E-013  0.7246161E+02  0.7816164E-02  0.1226708E+00
        -11   -1    0    0    0    0  0.00000000000E+00  0.00000000000E+00  0.45593999997E+02  0.45594000000E+02  0.51100000000E-03 0. -1.
         11   -1    0    0    0    0 -0.00000000000E+00 -0.00000000000E+00 -0.45593999997E+02  0.45594000000E+02  0.51100000000E-03 0.  1.
    9900012    2    1    2    0    0 -0.14141268611E+02  0.10754766235E+02 -0.59192164763E+01  0.72461612244E+02  0.70000054647E+02 0.  0.
         12    1    1    2    0    0  0.14141268611E+02 -0.10754766235E+02  0.59192164763E+01  0.18726387756E+02  0.00000000000E+00 0. -1.
         11    1    3    3    0    0 -0.16591148719E+02 -0.10307814296E+02  0.50247418011E+01  0.20168422888E+02  0.51100000000E-03 0. -1.
        -11    1    3    3    0    0  0.29272362857E+01 -0.62028707495E+01 -0.21866844533E+02  0.22917312406E+02  0.51100000000E-03 0.  1.
        -12    1    3    3    0    0 -0.47735617820E+00  0.27265451280E+02  0.10922886256E+02  0.29375876950E+02  0.00000000000E+00 0.  1.
</event>
<event>
 7    1  0.1692604E-013  0.7246154E+02  0.7816164E-02  0.1226708E+00
        -11   -1    0    0    0    0  0.00000000000E+00  0.00000000000E+00  0.45593999997E+02  0.45594000000E+02  0.51100000000E-03 0. -1.
         11   -1    0    0    0    0 -0.00000000000E+00 -0.00000000000E+00 -0.45593999997E+02  0.45594000000E+02  0.51100000000E-03 0.  1.
    9900012    2    1    2    0    0 -0.12993272973E+02 -0.86949364245E+01 -0.10307914306E+02  0.72461543867E+02  0.69999965573E+02 0.  0.
         12    1    1    2    0    0  0.12993272973E+02  0.86949364245E+01  0.10307914306E+02  0.18726456133E+02  0.00000000000E+00 0. -1.
         11    1    3    3    0    0 -0.33131271895E+01 -0.65544733506E-01 -0.20619499939E+01  0.39029150548E+01  0.51100000000E-03 0. -1.
        -11    1    3    3    0    0 -0.37962955699E+02 -0.79091457012E+01  0.10094103263E+01  0.38791229686E+02  0.51100000000E-03 0.  1.
         12    1    3    3    0    0  0.28282809916E+02 -0.72024598977E+00 -0.92553746382E+01  0.29767399126E+02  0.00000000000E+00 0. -1.
</event>
<event>
 7    1  0.1692604E-013  0.7246121E+02  0.7816164E-02  0.1226709E+00
        -11   -1    0    0    0    0  0.00000000000E+00  0.00000000000E+00  0.45593999997E+02  0.45594000000E+02  0.51100000000E-03 0.  1.
         11   -1    0    0    0    0 -0.00000000000E+00 -0.00000000000E+00 -0.45593999997E+02  0.45594000000E+02  0.51100000000E-03 0. -1.
    9900012    2    1    2    0    0  0.14280744174E+02 -0.11419303102E+02  0.40438191311E+01  0.72461211416E+02  0.69999532493E+02 0.  0.
         12    1    1    2    0    0 -0.14280744174E+02  0.11419303102E+02 -0.40438191311E+01  0.18726788584E+02  0.00000000000E+00 0. -1.
         11    1    3    3    0    0  0.40277329769E+01 -0.28040556887E+02  0.61688415489E+01  0.28992241545E+02  0.51100000000E-03 0. -1.
        -11    1    3    3    0    0  0.23194391448E+02  0.14657450941E+01  0.11663777039E+01  0.23269908477E+02  0.51100000000E-03 0.  1.
        -12    1    3    3    0    0 -0.12941380251E+02  0.15155508691E+02 -0.32914001216E+01  0.20199061395E+02  0.00000000000E+00 0.  1.
</event>
<event>
 7    1  0.1692604E-013  0.7246157E+02  0.7816164E-02  0.1226708E+00
        -11   -1    0    0    0    0  0.00000000000E+00  0.00000000000E+00  0.45593999997E+02  0.45594000000E+02  0.51100000000E-03 0.  1.
         11   -1    0    0    0    0 -0.00000000000E+00 -0.00000000000E+00 -0.45593999997E+02  0.45594000000E+02  0.51100000000E-03 0. -1.
    9900012    2    1    2    0    0  0.12617893820E+02  0.47199632497E+01  0.13007304753E+02  0.72461567493E+02  0.69999996350E+02 0.  0.
         12    1    1    2    0    0 -0.12617893820E+02 -0.47199632497E+01 -0.13007304753E+02  0.18726432507E+02  0.00000000000E+00 0. -1.
         11    1    3    3    0    0  0.17428638976E+02 -0.10119556922E+02  0.47496207088E+01  0.20705597939E+02  0.51100000000E-03 0. -1.
        -11    1    3    3    0    0 -0.97479190775E+01 -0.11741588263E+02 -0.10785046582E+02  0.18687002203E+02  0.51100000000E-03 0.  1.
        -12    1    3    3    0    0  0.49371739213E+01  0.26581108435E+02  0.19042730626E+02  0.33068967351E+02  0.00000000000E+00 0.  1.
</event>
<event>
 7    1  0.1692604E-013  0.7246168E+02  0.7816164E-02  0.1226708E+00
        -11   -1    0    0    0    0  0.00000000000E+00  0.00000000000E+00  0.45593999997E+02  0.45594000000E+02  0.51100000000E-03 0.  1.
         11   -1    0    0    0    0 -0.00000000000E+00 -0.00000000000E+00 -0.45593999997E+02  0.45594000000E+02  0.51100000000E-03 0. -1.
    9900012    2    1    2    0    0  0.10567965801E+02  0.13051377932E+02  0.82858196416E+01  0.72461676970E+02  0.70000138964E+02 0.  0.
         12    1    1    2    0    0 -0.10567965801E+02 -0.13051377932E+02 -0.82858196416E+01  0.18726323030E+02  0.00000000000E+00 0. -1.
         11    1    3    3    0    0 -0.15135664910E+02  0.74681277542E+01 -0.12873453024E+02  0.21227036473E+02  0.51100000000E-03 0. -1.
        -11    1    3    3    0    0 -0.73149752906E+01  0.16930043629E+01 -0.49224459987E+01  0.89780622712E+01  0.51100000000E-03 0.  1.
        -12    1    3    3    0    0  0.33018606002E+02  0.38902458154E+01  0.26081718664E+02  0.42256578225E+02  0.00000000000E+00 0.  1.
</event>
<event>
 7    1  0.1692604E-013  0.7246159E+02  0.7816164E-02  0.1226708E+00
        -11   -1    0    0    0    0  0.00000000000E+00  0.00000000000E+00  0.45593999997E+02  0.45594000000E+02  0.51100000000E-03 0. -1.
         11   -1    0    0    0    0 -0.00000000000E+00 -0.00000000000E+00 -0.45593999997E+02  0.45594000000E+02  0.51100000000E-03 0.  1.
    9900012    2    1    2    0    0 -0.14256642166E+02 -0.11202284224E+02 -0.46835295061E+01  0.72461589070E+02  0.70000024458E+02 0.  0.
         12    1    1    2    0    0  0.14256642166E+02  0.11202284224E+02  0.46835295061E+01  0.18726410930E+02  0.00000000000E+00 0. -1.
         11    1    3    3    0    0 -0.17446575135E+01 -0.11058888116E+02 -0.21303832414E+02  0.24066493554E+02  0.51100000000E-03 0. -1.
        -11    1    3    3    0    0  0.62195997174E+01 -0.14962716201E+02 -0.41671960439E+01  0.16731163136E+02  0.51100000000E-03 0.  1.
         12    1    3    3    0    0 -0.18731584370E+02  0.14819320093E+02  0.20787498952E+02  0.31663932379E+02  0.00000000000E+00 0. -1.
</event>
<event>
 7    1  0.1692604E-013  0.7246160E+02  0.7816164E-02  0.1226708E+00
        -11   -1    0    0    0    0  0.00000000000E+00  0.00000000000E+00  0.45593999997E+02  0.45594000000E+02  0.51100000000E-03 0.  1.
         11   -1    0    0    0    0 -0.00000000000E+00 -0.00000000000E+00 -0.45593999997E+02  0.45594000000E+02  0.51100000000E-03 0. -1.
    9900012    2    1    2    0    0  0.14455397340E+02  0.77812463233E+01  0.90095459695E+01  0.72461595508E+02  0.70000032846E+02 0.  0.
         12    1    1    2    0    0 -0.14455397340E+02 -0.77812463233E+01 -0.90095459695E+01  0.18726404492E+02  0.00000000000E+00 0. -1.
         11    1    3    3    0    0  0.97790018315E+01  0.30400218281E+01 -0.89467050707E+01  0.13598313918E+02  0.51100000000E-03 0. -1.
        -11    1    3    3    0    0  0.23902098884E+02  0.43400267615E+01 -0.88657225413E+01  0.25860146941E+02  0.51100000000E-03 0.  1.
        -12    1    3    3    0    0 -0.19225703375E+02  0.40119773369E+00  0.26821973581E+02  0.33003134650E+02  0.00000000000E+00 0.  1.
</event>
<event>
 7    1  0.1692604E-013  0.7246177E+02  0.7816164E-02  0.1226707E+00
        -11   -1    0    0    0    0  0.00000000000E+00  0.00000000000E+00  0.45593999997E+02  0.45594000000E+02  0.51100000000E-03 0.  1.
         11   -1    0    0    0    0 -0.00000000000E+00 -0.00000000000E+00 -0.45593999997E+02  0.45594000000E+02  0.51100000000E-03 0. -1.
    9900012    2    1    2    0    0  0.87266761128E+01 -0.16504765177E+02 -0.14523949548E+01  0.72461772387E+02  0.70000263262E+02 0.  0.
         12    1    1    2    0    0 -0.87266761128E+01  0.16504765177E+02  0.14523949548E+01  0.18726227613E+02  0.00000000000E+00 0. -1.
         11    1    3    3    0    0  0.27080152914E+02  0.57115935366E+01 -0.92864838871E+00  0.27691503582E+02  0.51100000000E-03 0. -1.
        -11    1    3    3    0    0  0.81147366624E+01 -0.12981598432E+02  0.51822042323E+01  0.16162490214E+02  0.51100000000E-03 0.  1.
        -12    1    3    3    0    0 -0.26468213463E+02 -0.92347602818E+01 -0.57059507983E+01  0.28607778591E+02  0.00000000000E+00 0.  1.
</event>
<event>
 7    1  0.1692604E-013  0.7246157E+02  0.7816164E-02  0.1226708E+00
        -11   -1    0    0    0    0  0.00000000000E+00  0.00000000000E+00  0.45593999997E+02  0.45594000000E+02  0.51100000000E-03 0.  1.
         11   -1    0    0    0    0 -0.00000000000E+00 -0.00000000000E+00 -0.45593999997E+02  0.45594000000E+02  0.51100000000E-03 0. -1.
    9900012    2    1    2    0    0 -0.87456845829E+01 -0.10447297503E+02  0.12847032612E+02  0.72461567588E+02  0.69999996475E+02 0.  0.
         12    1    1    2    0    0  0.87456845829E+01  0.10447297503E+02 -0.12847032612E+02  0.18726432412E+02  0.00000000000E+00 0. -1.
         11    1    3    3    0    0  0.20198980410E+02 -0.67970571784E+01 -0.67313033054E+01  0.22349703361E+02  0.51100000000E-03 0. -1.
        -11    1    3    3    0    0 -0.23822176647E+01 -0.12767440116E+02 -0.38420018592E+01  0.13544130340E+02  0.51100000000E-03 0.  1.
        -12    1    3    3    0    0 -0.26562447328E+02  0.91171997915E+01  0.23420337777E+02  0.36567733887E+02  0.00000000000E+00 0.  1.
</event>
<event>
 7    1  0.1692604E-013  0.7246160E+02  0.7816164E-02  0.1226708E+00
        -11   -1    0    0    0    0  0.00000000000E+00  0.00000000000E+00  0.45593999997E+02  0.45594000000E+02  0.51100000000E-03 0.  1.
         11   -1    0    0    0    0 -0.00000000000E+00 -0.00000000000E+00 -0.45593999997E+02  0.45594000000E+02  0.51100000000E-03 0. -1.
    9900012    2    1    2    0    0  0.45408798932E+01 -0.29690229175E+01  0.17923267923E+02  0.72461595638E+02  0.70000033015E+02 0.  0.
         12    1    1    2    0    0 -0.45408798932E+01  0.29690229175E+01 -0.17923267923E+02  0.18726404362E+02  0.00000000000E+00 0. -1.
         11    1    3    3    0    0  0.17961347179E+02  0.80282497205E+01  0.14052991970E+02  0.24177455814E+02  0.51100000000E-03 0. -1.
        -11    1    3    3    0    0 -0.21436796572E+01 -0.27138836884E+02  0.75540721732E+01  0.28252005885E+02  0.51100000000E-03 0.  1.
         12    1    3    3    0    0 -0.11276787629E+02  0.16141564246E+02 -0.36837962197E+01  0.20032133938E+02  0.00000000000E+00 0. -1.
</event>
<event>
 7    1  0.1692604E-013  0.7246155E+02  0.7816164E-02  0.1226708E+00
        -11   -1    0    0    0    0  0.00000000000E+00  0.00000000000E+00  0.45593999997E+02  0.45594000000E+02  0.51100000000E-03 0.  1.
         11   -1    0    0    0    0 -0.00000000000E+00 -0.00000000000E+00 -0.45593999997E+02  0.45594000000E+02  0.51100000000E-03 0. -1.
    9900012    2    1    2    0    0  0.47750438960E+00  0.17575861395E+02 -0.64452387152E+01  0.72461547684E+02  0.69999970546E+02 0.  0.
         12    1    1    2    0    0 -0.47750438960E+00 -0.17575861395E+02  0.64452387152E+01  0.18726452316E+02  0.00000000000E+00 0. -1.
         11    1    3    3    0    0  0.26785996597E+02  0.13359183456E+01  0.12606005328E+02  0.29634197511E+02  0.51100000000E-03 0. -1.
        -11    1    3    3    0    0 -0.35189534759E+01 -0.53717504333E+01 -0.72078643509E+00  0.64620638831E+01  0.51100000000E-03 0.  1.
        -12    1    3    3    0    0 -0.22789538732E+02  0.21611693483E+02 -0.18330457609E+02  0.36365286290E+02  0.00000000000E+00 0.  1.
</event>
<event>
 7    1  0.1692604E-013  0.7246178E+02  0.7816164E-02  0.1226707E+00
        -11   -1    0    0    0    0  0.00000000000E+00  0.00000000000E+00  0.45593999997E+02  0.45594000000E+02  0.51100000000E-03 0.  1.
         11   -1    0    0    0    0 -0.00000000000E+00 -0.00000000000E+00 -0.45593999997E+02  0.45594000000E+02  0.51100000000E-03 0. -1.
    9900012    2    1    2    0    0 -0.16512373498E+02 -0.88284447327E+01  0.26729833075E+00  0.72461778723E+02  0.70000271516E+02 0.  0.
         12    1    1    2    0    0  0.16512373498E+02  0.88284447327E+01 -0.26729833075E+00  0.18726221277E+02  0.00000000000E+00 0. -1.
         11    1    3    3    0    0 -0.65049775117E+01 -0.11747793838E+02  0.53059077833E+00  0.13439007379E+02  0.51100000000E-03 0. -1.
        -11    1    3    3    0    0  0.13333132458E+02 -0.18871348632E+02  0.10426151084E+02  0.25349651813E+02  0.51100000000E-03 0.  1.
         12    1    3    3    0    0 -0.23340528443E+02  0.21790697738E+02 -0.10689443532E+02  0.33673119531E+02  0.00000000000E+00 0. -1.
</event>
<event>
 7    1  0.1692604E-013  0.7246152E+02  0.7816164E-02  0.1226708E+00
        -11   -1    0    0    0    0  0.00000000000E+00  0.00000000000E+00  0.45593999997E+02  0.45594000000E+02  0.51100000000E-03 0. -1.
         11   -1    0    0    0    0 -0.00000000000E+00 -0.00000000000E+00 -0.45593999997E+02  0.45594000000E+02  0.51100000000E-03 0.  1.
    9900012    2    1    2    0    0  0.78851040017E+00 -0.17341981078E+02 -0.70224737214E+01  0.72461516253E+02  0.69999929601E+02 0.  0.
         12    1    1    2    0    0 -0.78851040017E+00  0.17341981078E+02  0.70224737214E+01  0.18726483747E+02  0.00000000000E+00 0. -1.
         11    1    3    3    0    0  0.64666479107E+01 -0.84949593532E+01  0.16633192227E+02  0.19764740159E+02  0.51100000000E-03 0. -1.
        -11    1    3    3    0    0  0.15179380879E+01  0.18386584846E+02 -0.13049899161E+02  0.22598019973E+02  0.51100000000E-03 0.  1.
        -12    1    3    3    0    0 -0.71960755984E+01 -0.27233606571E+02 -0.10605766788E+02  0.30098756121E+02  0.00000000000E+00 0.  1.
</event>
<event>
 7    1  0.1692604E-013  0.7246156E+02  0.7816164E-02  0.1226708E+00
        -11   -1    0    0    0    0  0.00000000000E+00  0.00000000000E+00  0.45593999997E+02  0.45594000000E+02  0.51100000000E-03 0.  1.
         11   -1    0    0    0    0 -0.00000000000E+00 -0.00000000000E+00 -0.45593999997E+02  0.45594000000E+02  0.51100000000E-03 0. -1.
    9900012    2    1    2    0    0 -0.16650113306E+02  0.63851452729E+01  0.57169103545E+01  0.72461563680E+02  0.69999991384E+02 0.  0.
         12    1    1    2    0    0  0.16650113306E+02 -0.63851452729E+01 -0.57169103545E+01  0.18726436320E+02  0.00000000000E+00 0. -1.
         11    1    3    3    0    0 -0.23401743031E+02  0.83354647377E+01 -0.12098333032E+02  0.27631344732E+02  0.51100000000E-03 0. -1.
        -11    1    3    3    0    0 -0.16960627968E+02  0.99309061172E+00  0.49679287906E+01  0.17701114280E+02  0.51100000000E-03 0.  1.
        -12    1    3    3    0    0  0.23712257693E+02 -0.29434100765E+01  0.12847314596E+02  0.27129104668E+02  0.00000000000E+00 0.  1.
</event>
<event>
 7    1  0.1692604E-013  0.7246155E+02  0.7816164E-02  0.1226708E+00
        -11   -1    0    0    0    0  0.00000000000E+00  0.00000000000E+00  0.45593999997E+02  0.45594000000E+02  0.51100000000E-03 0. -1.
         11   -1    0    0    0    0 -0.00000000000E+00 -0.00000000000E+00 -0.45593999997E+02  0.45594000000E+02  0.51100000000E-03 0.  1.
    9900012    2    1    2    0    0  0.17998740379E+02  0.93087421459E+00 -0.50851436882E+01  0.72461551635E+02  0.69999975693E+02 0.  0.
         12    1    1    2    0    0 -0.17998740379E+02 -0.93087421459E+00  0.50851436882E+01  0.18726448365E+02  0.00000000000E+00 0. -1.
         11    1    3    3    0    0  0.34532546658E+01  0.15266654607E+02  0.85100568812E+01  0.17816194292E+02  0.51100000000E-03 0. -1.
        -11    1    3    3    0    0  0.16897190396E+02  0.13849267566E+02 -0.14713672109E+02  0.26340262007E+02  0.51100000000E-03 0.  1.
        -12    1    3    3    0    0 -0.23517046822E+01 -0.28185047959E+02  0.11184715401E+01  0.28305095335E+02  0.00000000000E+00 0.  1.
</event>
<event>
 7    1  0.1692604E-013  0.7246156E+02  0.7816164E-02  0.1226708E+00
        -11   -1    0    0    0    0  0.00000000000E+00  0.00000000000E+00  0.45593999997E+02  0.45594000000E+02  0.51100000000E-03 0. -1.
         11   -1    0    0    0    0 -0.00000000000E+00 -0.00000000000E+00 -0.45593999997E+02  0.45594000000E+02  0.51100000000E-03 0.  1.
    9900012    2    1    2    0    0 -0.11620954904E+02  0.12618512569E+02 -0.75103985607E+01  0.72461560433E+02  0.69999987154E+02 0.  0.
         12    1    1    2    0    0  0.11620954904E+02 -0.12618512569E+02  0.75103985607E+01  0.18726439567E+02  0.00000000000E+00 0. -1.
         11    1    3    3    0    0  0.40921734460E+00  0.11572502954E+02  0.98924655519E+01  0.15229942824E+02  0.51100000000E-03 0. -1.
        -11    1    3    3    0    0 -0.63312958123E+01  0.18404175571E+02 -0.29484134296E+02  0.35328645043E+02  0.51100000000E-03 0.  1.
         12    1    3    3    0    0 -0.56988764359E+01 -0.17358165956E+02  0.12081270183E+02  0.21902972566E+02  0.00000000000E+00 0. -1.
</event>
<event>
 7    1  0.1692604E-013  0.7246168E+02  0.7816164E-02  0.1226708E+00
        -11   -1    0    0    0    0  0.00000000000E+00  0.00000000000E+00  0.45593999997E+02  0.45594000000E+02  0.51100000000E-03 0.  1.
         11   -1    0    0    0    0 -0.00000000000E+00 -0.00000000000E+00 -0.45593999997E+02  0.45594000000E+02  0.51100000000E-03 0. -1.
    9900012    2    1    2    0    0  0.17443576675E+02  0.26866302747E+01  0.62592947408E+01  0.72461678415E+02  0.70000140847E+02 0.  0.
         12    1    1    2    0    0 -0.17443576675E+02 -0.26866302747E+01 -0.62592947408E+01  0.18726321585E+02  0.00000000000E+00 0. -1.
         11    1    3    3    0    0  0.90512530778E+01 -0.19275785926E+01 -0.27916696993E+02  0.29410588447E+02  0.51100000000E-03 0. -1.
        -11    1    3    3    0    0 -0.24032422805E+01  0.37951261453E+01 -0.22685718700E+01  0.50323925232E+01  0.51100000000E-03 0.  1.
        -12    1    3    3    0    0  0.10795565878E+02  0.81908272206E+00  0.36444563604E+02  0.38018697445E+02  0.00000000000E+00 0.  1.
</event>
<event>
 7    1  0.1692604E-013  0.7246157E+02  0.7816164E-02  0.1226708E+00
        -11   -1    0    0    0    0  0.00000000000E+00  0.00000000000E+00  0.45593999997E+02  0.45594000000E+02  0.51100000000E-03 0.  1.
         11   -1    0    0    0    0 -0.00000000000E+00 -0.00000000000E+00 -0.45593999997E+02  0.45594000000E+02  0.51100000000E-03 0. -1.
    9900012    2    1    2    0    0  0.45288251824E+01 -0.11893951214E+02  0.13736916794E+02  0.72461569053E+02  0.69999998382E+02 0.  0.
         12    1    1    2    0    0 -0.45288251824E+01  0.11893951214E+02 -0.13736916794E+02  0.18726430947E+02  0.00000000000E+00 0. -1.
         11    1    3    3    0    0  0.86687357732E+01  0.59146906844E+01  0.14820303524E+02  0.18159623967E+02  0.51100000000E-03 0. -1.
        -11    1    3    3    0    0  0.54596448311E+01 -0.18095549479E+01  0.23072915177E+02  0.23779016502E+02  0.51100000000E-03 0.  1.
        -12    1    3    3    0    0 -0.95995554219E+01 -0.15999086951E+02 -0.24156301906E+02  0.30522928584E+02  0.00000000000E+00 0.  1.
</event>
<event>
 7    1  0.1692604E-013  0.7246156E+02  0.7816164E-02  0.1226708E+00
        -11   -1    0    0    0    0  0.00000000000E+00  0.00000000000E+00  0.45593999997E+02  0.45594000000E+02  0.51100000000E-03 0.  1.
         11   -1    0    0    0    0 -0.00000000000E+00 -0.00000000000E+00 -0.45593999997E+02  0.45594000000E+02  0.51100000000E-03 0. -1.
    9900012    2    1    2    0    0 -0.14757211367E+02 -0.10067117945E+02  0.56175966761E+01  0.72461560310E+02  0.69999986993E+02 0.  0.
         12    1    1    2    0    0  0.14757211367E+02  0.10067117945E+02 -0.56175966761E+01  0.18726439690E+02  0.00000000000E+00 0. -1.
         11    1    3    3    0    0 -0.31646176688E+01  0.19251831425E+01 -0.17298819281E+02  0.17690966167E+02  0.51100000000E-03 0. -1.
        -11    1    3    3    0    0 -0.23597751628E+02 -0.58580141156E+01 -0.40244441066E+01  0.24644803953E+02  0.51100000000E-03 0.  1.
        -12    1    3    3    0    0  0.12005157929E+02 -0.61342869719E+01  0.26940860064E+02  0.30125790190E+02  0.00000000000E+00 0.  1.
</event>
<event>
 7    1  0.1692604E-013  0.7246156E+02  0.7816164E-02  0.1226708E+00
        -11   -1    0    0    0    0  0.00000000000E+00  0.00000000000E+00  0.45593999997E+02  0.45594000000E+02  0.51100000000E-03 0.  1.
         11   -1    0    0    0    0 -0.00000000000E+00 -0.00000000000E+00 -0.45593999997E+02  0.45594000000E+02  0.51100000000E-03 0. -1.
    9900012    2    1    2    0    0  0.18464615673E+02 -0.11780217784E+01 -0.28896280501E+01  0.72461555663E+02  0.69999980939E+02 0.  0.
         12    1    1    2    0    0 -0.18464615673E+02  0.11780217784E+01  0.28896280501E+01  0.18726444337E+02  0.00000000000E+00 0. -1.
         11    1    3    3    0    0 -0.11765249518E+02  0.18058335715E+02 -0.78362164663E+01  0.22933182810E+02  0.51100000000E-03 0. -1.
        -11    1    3    3    0    0 -0.38205372199E+01  0.47131730020E+01 -0.35659576509E+01  0.70375108259E+01  0.51100000000E-03 0.  1.
        -12    1    3    3    0    0  0.34050402411E+02 -0.23949530495E+02  0.85125460670E+01  0.42490862027E+02  0.00000000000E+00 0.  1.
</event>
<event>
 7    1  0.1692604E-013  0.7246150E+02  0.7816164E-02  0.1226708E+00
        -11   -1    0    0    0    0  0.00000000000E+00  0.00000000000E+00  0.45593999997E+02  0.45594000000E+02  0.51100000000E-03 0. -1.
         11   -1    0    0    0    0 -0.00000000000E+00 -0.00000000000E+00 -0.45593999997E+02  0.45594000000E+02  0.51100000000E-03 0.  1.
    9900012    2    1    2    0    0  0.13825490409E+02  0.12583414686E+02 -0.10933425027E+01  0.72461497176E+02  0.69999904749E+02 0.  0.
         12    1    1    2    0    0 -0.13825490409E+02 -0.12583414686E+02  0.10933425027E+01  0.18726502824E+02  0.00000000000E+00 0. -1.
         11    1    3    3    0    0 -0.11179700549E+02  0.24875544534E+01 -0.13161513908E+02  0.17447036429E+02  0.51100000000E-03 0. -1.
        -11    1    3    3    0    0  0.19968831602E+02 -0.10409189423E+01 -0.15209869225E+02  0.25123253569E+02  0.51100000000E-03 0.  1.
         12    1    3    3    0    0  0.50363593568E+01  0.11136779175E+02  0.27278040630E+02  0.29891207178E+02  0.00000000000E+00 0. -1.
</event>
<event>
 7    1  0.1692604E-013  0.7246154E+02  0.7816164E-02  0.1226708E+00
        -11   -1    0    0    0    0  0.00000000000E+00  0.00000000000E+00  0.45593999997E+02  0.45594000000E+02  0.51100000000E-03 0.  1.
         11   -1    0    0    0    0 -0.00000000000E+00 -0.00000000000E+00 -0.45593999997E+02  0.45594000000E+02  0.51100000000E-03 0. -1.
    9900012    2    1    2    0    0 -0.49373725155E+01  0.62577025925E+01  0.16945317503E+02  0.72461540795E+02  0.69999961571E+02 0.  0.
         12    1    1    2    0    0  0.49373725155E+01 -0.62577025925E+01 -0.16945317503E+02  0.18726459205E+02  0.00000000000E+00 0. -1.
         11    1    3    3    0    0 -0.12990381853E+01 -0.13397021634E+01 -0.70986401302E+01  0.73398224810E+01  0.51100000000E-03 0. -1.
        -11    1    3    3    0    0  0.19880817416E+02 -0.17152640883E+02  0.84241228298E+01  0.27575819772E+02  0.51100000000E-03 0.  1.
         12    1    3    3    0    0 -0.23519151746E+02  0.24750045639E+02  0.15619834803E+02  0.37545898541E+02  0.00000000000E+00 0. -1.
</event>
<event>
 7    1  0.1692604E-013  0.7246154E+02  0.7816164E-02  0.1226708E+00
        -11   -1    0    0    0    0  0.00000000000E+00  0.00000000000E+00  0.45593999997E+02  0.45594000000E+02  0.51100000000E-03 0.  1.
         11   -1    0    0    0    0 -0.00000000000E+00 -0.00000000000E+00 -0.45593999997E+02  0.45594000000E+02  0.51100000000E-03 0. -1.
    9900012    2    1    2    0    0  0.16387140376E+02  0.88489045714E+01 -0.19592512412E+01  0.72461544189E+02  0.69999965992E+02 0.  0.
         12    1    1    2    0    0 -0.16387140376E+02 -0.88489045714E+01  0.19592512412E+01  0.18726455811E+02  0.00000000000E+00 0. -1.
         11    1    3    3    0    0 -0.18160589650E+01  0.14609779660E+02 -0.24035942841E+02  0.28186349185E+02  0.51100000000E-03 0. -1.
        -11    1    3    3    0    0 -0.51766182370E+01  0.75034866578E+01 -0.55977300927E+00  0.91330736600E+01  0.51100000000E-03 0.  1.
        -12    1    3    3    0    0  0.23379817578E+02 -0.13264361746E+02  0.22636464609E+02  0.35142121344E+02  0.00000000000E+00 0.  1.
</event>
<event>
 7    1  0.1692604E-013  0.7246157E+02  0.7816164E-02  0.1226708E+00
        -11   -1    0    0    0    0  0.00000000000E+00  0.00000000000E+00  0.45593999997E+02  0.45594000000E+02  0.51100000000E-03 0.  1.
         11   -1    0    0    0    0 -0.00000000000E+00 -0.00000000000E+00 -0.45593999997E+02  0.45594000000E+02  0.51100000000E-03 0. -1.
    9900012    2    1    2    0    0 -0.15179518105E+02  0.10860821346E+02  0.15178696969E+01  0.72461571119E+02  0.70000001075E+02 0.  0.
         12    1    1    2    0    0  0.15179518105E+02 -0.10860821346E+02 -0.15178696969E+01  0.18726428881E+02  0.00000000000E+00 0. -1.
         11    1    3    3    0    0 -0.83398905575E+00 -0.14021495336E+02 -0.14251002226E+02  0.20009720985E+02  0.51100000000E-03 0. -1.
        -11    1    3    3    0    0 -0.13276536820E+02  0.46167525484E+01  0.26126489327E+02  0.29667731273E+02  0.51100000000E-03 0.  1.
         12    1    3    3    0    0 -0.10689922287E+01  0.20265564133E+02 -0.10357617404E+02  0.22784118862E+02  0.00000000000E+00 0. -1.
</event>
<event>
 7    1  0.1692604E-013  0.7246159E+02  0.7816164E-02  0.1226708E+00
        -11   -1    0    0    0    0  0.00000000000E+00  0.00000000000E+00  0.45593999997E+02  0.45594000000E+02  0.51100000000E-03 0.  1.
         11   -1    0    0    0    0 -0.00000000000E+00 -0.00000000000E+00 -0.45593999997E+02  0.45594000000E+02  0.51100000000E-03 0. -1.
    9900012    2    1    2    0    0  0.15882792524E+02 -0.94859189995E+01 -0.29039076243E+01  0.72461589850E+02  0.70000025474E+02 0.  0.
         12    1    1    2    0    0 -0.15882792524E+02  0.94859189995E+01  0.29039076243E+01  0.18726410150E+02  0.00000000000E+00 0. -1.
         11    1    3    3    0    0  0.27167925693E+02  0.31713986027E+01  0.98576658348E+01  0.29074516875E+02  0.51100000000E-03 0. -1.
        -11    1    3    3    0    0  0.10826680733E+02  0.51400406113E+01  0.63156522723E+00  0.12001496076E+02  0.51100000000E-03 0.  1.
        -12    1    3    3    0    0 -0.22111813901E+02 -0.17797358213E+02 -0.13393138686E+02  0.31385576898E+02  0.00000000000E+00 0.  1.
</event>
<event>
 7    1  0.1692604E-013  0.7246153E+02  0.7816164E-02  0.1226708E+00
        -11   -1    0    0    0    0  0.00000000000E+00  0.00000000000E+00  0.45593999997E+02  0.45594000000E+02  0.51100000000E-03 0. -1.
         11   -1    0    0    0    0 -0.00000000000E+00 -0.00000000000E+00 -0.45593999997E+02  0.45594000000E+02  0.51100000000E-03 0.  1.
    9900012    2    1    2    0    0 -0.96215316042E+01  0.35454247564E+01 -0.15669612948E+02  0.72461530043E+02  0.69999947565E+02 0.  0.
         12    1    1    2    0    0  0.96215316042E+01 -0.35454247564E+01  0.15669612948E+02  0.18726469957E+02  0.00000000000E+00 0. -1.
         11    1    3    3    0    0 -0.24204678784E+02  0.13033232639E+01 -0.49846384314E+01  0.24746954300E+02  0.51100000000E-03 0. -1.
        -11    1    3    3    0    0 -0.13607698501E+02  0.67554091950E+01 -0.11655472774E+02  0.19148239024E+02  0.51100000000E-03 0.  1.
         12    1    3    3    0    0  0.28190845681E+02 -0.45133077024E+01  0.97049825718E+00  0.28566336719E+02  0.00000000000E+00 0. -1.
</event>
<event>
 7    1  0.1692604E-013  0.7246150E+02  0.7816164E-02  0.1226708E+00
        -11   -1    0    0    0    0  0.00000000000E+00  0.00000000000E+00  0.45593999997E+02  0.45594000000E+02  0.51100000000E-03 0. -1.
         11   -1    0    0    0    0 -0.00000000000E+00 -0.00000000000E+00 -0.45593999997E+02  0.45594000000E+02  0.51100000000E-03 0.  1.
    9900012    2    1    2    0    0  0.11295757822E+02 -0.14860431799E+02  0.15017198748E+01  0.72461501646E+02  0.69999910572E+02 0.  0.
         12    1    1    2    0    0 -0.11295757822E+02  0.14860431799E+02 -0.15017198748E+01  0.18726498354E+02  0.00000000000E+00 0. -1.
         11    1    3    3    0    0  0.58261265783E+01  0.11466273370E+02 -0.34718471477E+01  0.13321895465E+02  0.51100000000E-03 0. -1.
        -11    1    3    3    0    0  0.46375498162E+01 -0.20016205457E+02  0.28293386300E+02  0.34966713569E+02  0.51100000000E-03 0.  1.
         12    1    3    3    0    0  0.83208142784E+00 -0.63104997114E+01 -0.23319819277E+02  0.24172892612E+02  0.00000000000E+00 0. -1.
</event>
<event>
 7    1  0.1692604E-013  0.7246160E+02  0.7816164E-02  0.1226708E+00
        -11   -1    0    0    0    0  0.00000000000E+00  0.00000000000E+00  0.45593999997E+02  0.45594000000E+02  0.51100000000E-03 0.  1.
         11   -1    0    0    0    0 -0.00000000000E+00 -0.00000000000E+00 -0.45593999997E+02  0.45594000000E+02  0.51100000000E-03 0. -1.
    9900012    2    1    2    0    0 -0.36999510706E+01 -0.38887914063E+00  0.18353129074E+02  0.72461595868E+02  0.70000033314E+02 0.  0.
         12    1    1    2    0    0  0.36999510706E+01  0.38887914063E+00 -0.18353129074E+02  0.18726404132E+02  0.00000000000E+00 0. -1.
         11    1    3    3    0    0  0.15629017288E+02  0.15353790607E+02 -0.48272654904E+01  0.22434517150E+02  0.51100000000E-03 0. -1.
        -11    1    3    3    0    0  0.98225601236E+01 -0.29555871440E+01  0.13096446300E+02  0.16635356585E+02  0.51100000000E-03 0.  1.
        -12    1    3    3    0    0 -0.29151528482E+02 -0.12787082604E+02  0.10083948265E+02  0.33391722133E+02  0.00000000000E+00 0.  1.
</event>
<event>
 7    1  0.1692604E-013  0.7246137E+02  0.7816164E-02  0.1226709E+00
        -11   -1    0    0    0    0  0.00000000000E+00  0.00000000000E+00  0.45593999997E+02  0.45594000000E+02  0.51100000000E-03 0.  1.
         11   -1    0    0    0    0 -0.00000000000E+00 -0.00000000000E+00 -0.45593999997E+02  0.45594000000E+02  0.51100000000E-03 0. -1.
    9900012    2    1    2    0    0  0.24558467169E+00 -0.12461151641E+02  0.13976618913E+02  0.72461374882E+02  0.69999745439E+02 0.  0.
         12    1    1    2    0    0 -0.24558467169E+00  0.12461151641E+02 -0.13976618913E+02  0.18726625118E+02  0.00000000000E+00 0. -1.
         11    1    3    3    0    0 -0.11915012871E+02  0.11789708196E+02 -0.53910897405E+01  0.17607629026E+02  0.51100000000E-03 0. -1.
        -11    1    3    3    0    0 -0.12398245951E+01  0.10517021247E+02 -0.34784403705E+01  0.11146499388E+02  0.51100000000E-03 0.  1.
         12    1    3    3    0    0  0.13400422138E+02 -0.34767881084E+02  0.22846149024E+02  0.43707246468E+02  0.00000000000E+00 0. -1.
</event>
<event>
 7    1  0.1692604E-013  0.7246157E+02  0.7816164E-02  0.1226708E+00
        -11   -1    0    0    0    0  0.00000000000E+00  0.00000000000E+00  0.45593999997E+02  0.45594000000E+02  0.51100000000E-03 0.  1.
         11   -1    0    0    0    0 -0.00000000000E+00 -0.00000000000E+00 -0.45593999997E+02  0.45594000000E+02  0.51100000000E-03 0. -1.
    9900012    2    1    2    0    0 -0.51402966189E+00 -0.18548368945E+02 -0.25244896987E+01  0.72461567738E+02  0.69999996670E+02 0.  0.
         12    1    1    2    0    0  0.51402966189E+00  0.18548368945E+02  0.25244896987E+01  0.18726432262E+02  0.00000000000E+00 0. -1.
         11    1    3    3    0    0  0.58001255545E+01  0.20937205229E+02 -0.76434321177E+01  0.23031067584E+02  0.51100000000E-03 0. -1.
        -11    1    3    3    0    0 -0.54436761284E+01  0.30002529893E+01  0.29505456494E+01  0.68804685655E+01  0.51100000000E-03 0.  1.
         12    1    3    3    0    0 -0.87047908798E+00 -0.42485827164E+02  0.21683967696E+01  0.42550031589E+02  0.00000000000E+00 0. -1.
</event>
<event>
 7    1  0.1692604E-013  0.7246158E+02  0.7816164E-02  0.1226708E+00
        -11   -1    0    0    0    0  0.00000000000E+00  0.00000000000E+00  0.45593999997E+02  0.45594000000E+02  0.51100000000E-03 0.  1.
         11   -1    0    0    0    0 -0.00000000000E+00 -0.00000000000E+00 -0.45593999997E+02  0.45594000000E+02  0.51100000000E-03 0. -1.
    9900012    2    1    2    0    0 -0.45871278580E+01 -0.28749627128E+01  0.17926846329E+02  0.72461575571E+02  0.70000006874E+02 0.  0.
         12    1    1    2    0    0  0.45871278580E+01  0.28749627128E+01 -0.17926846329E+02  0.18726424429E+02  0.00000000000E+00 0. -1.
         11    1    3    3    0    0 -0.33334247866E+02 -0.11640663086E+02  0.34523810857E+01  0.35476697328E+02  0.51100000000E-03 0. -1.
        -11    1    3    3    0    0 -0.19666469192E+01  0.14970383210E+01  0.97427298961E+00  0.26566956843E+01  0.51100000000E-03 0.  1.
        -12    1    3    3    0    0  0.30713766928E+02  0.72686620518E+01  0.13500192254E+02  0.34328182559E+02  0.00000000000E+00 0.  1.
</event>
<event>
 7    1  0.1692604E-013  0.7246157E+02  0.7816164E-02  0.1226708E+00
        -11   -1    0    0    0    0  0.00000000000E+00  0.00000000000E+00  0.45593999997E+02  0.45594000000E+02  0.51100000000E-03 0. -1.
         11   -1    0    0    0    0 -0.00000000000E+00 -0.00000000000E+00 -0.45593999997E+02  0.45594000000E+02  0.51100000000E-03 0.  1.
    9900012    2    1    2    0    0  0.24165061416E+01  0.53182656457E+01 -0.17792016920E+02  0.72461566344E+02  0.69999994853E+02 0.  0.
         12    1    1    2    0    0 -0.24165061416E+01 -0.53182656457E+01  0.17792016920E+02  0.18726433656E+02  0.00000000000E+00 0. -1.
         11    1    3    3    0    0  0.37707466685E+01 -0.21600990715E+00  0.12448217244E+02  0.13008585762E+02  0.51100000000E-03 0. -1.
        -11    1    3    3    0    0 -0.14701636556E+02  0.13778998389E+02  0.51018484721E+01  0.20785277774E+02  0.51100000000E-03 0.  1.
        -12    1    3    3    0    0  0.13347396029E+02 -0.82447228357E+01 -0.35342082636E+02  0.38667702808E+02  0.00000000000E+00 0.  1.
</event>
<event>
 7    1  0.1692604E-013  0.7246156E+02  0.7816164E-02  0.1226708E+00
        -11   -1    0    0    0    0  0.00000000000E+00  0.00000000000E+00  0.45593999997E+02  0.45594000000E+02  0.51100000000E-03 0. -1.
         11   -1    0    0    0    0 -0.00000000000E+00 -0.00000000000E+00 -0.45593999997E+02  0.45594000000E+02  0.51100000000E-03 0.  1.
    9900012    2    1    2    0    0 -0.16183704301E+02  0.77404044926E+01  0.53715395318E+01  0.72461559240E+02  0.69999985599E+02 0.  0.
         12    1    1    2    0    0  0.16183704301E+02 -0.77404044926E+01 -0.53715395318E+01  0.18726440760E+02  0.00000000000E+00 0. -1.
         11    1    3    3    0    0  0.22787561167E+02  0.18672138894E+01 -0.61351862561E+01  0.23672767948E+02  0.51100000000E-03 0. -1.
        -11    1    3    3    0    0 -0.36972028350E+01  0.66194670829E+01  0.11176140213E+02  0.13505286505E+02  0.51100000000E-03 0.  1.
        -12    1    3    3    0    0 -0.35274062633E+02 -0.74627647967E+00  0.33058557467E+00  0.35283504787E+02  0.00000000000E+00 0.  1.
</event>
<event>
 7    1  0.1692604E-013  0.7246133E+02  0.7816164E-02  0.1226709E+00
        -11   -1    0    0    0    0  0.00000000000E+00  0.00000000000E+00  0.45593999997E+02  0.45594000000E+02  0.51100000000E-03 0.  1.
         11   -1    0    0    0    0 -0.00000000000E+00 -0.00000000000E+00 -0.45593999997E+02  0.45594000000E+02  0.51100000000E-03 0. -1.
    9900012    2    1    2    0    0 -0.10274890851E+02 -0.57519115359E+01  0.14561256623E+02  0.72461332844E+02  0.69999690676E+02 0.  0.
         12    1    1    2    0    0  0.10274890851E+02  0.57519115359E+01 -0.14561256623E+02  0.18726667156E+02  0.00000000000E+00 0. -1.
         11    1    3    3    0    0 -0.92770583630E+01  0.14024074801E+01 -0.14073519696E+02  0.16914328704E+02  0.51100000000E-03 0. -1.
        -11    1    3    3    0    0 -0.21392531309E+02 -0.39929246666E+01  0.20023391196E+01  0.21853905953E+02  0.51100000000E-03 0.  1.
        -12    1    3    3    0    0  0.20394698820E+02 -0.31613943493E+01  0.26632437200E+02  0.33693098187E+02  0.00000000000E+00 0.  1.
</event>
<event>
 7    1  0.1692604E-013  0.7246153E+02  0.7816164E-02  0.1226708E+00
        -11   -1    0    0    0    0  0.00000000000E+00  0.00000000000E+00  0.45593999997E+02  0.45594000000E+02  0.51100000000E-03 0. -1.
         11   -1    0    0    0    0 -0.00000000000E+00 -0.00000000000E+00 -0.45593999997E+02  0.45594000000E+02  0.51100000000E-03 0.  1.
    9900012    2    1    2    0    0 -0.10281368836E+02  0.11961887197E+02 -0.10093937309E+02  0.72461525135E+02  0.69999941172E+02 0.  0.
         12    1    1    2    0    0  0.10281368836E+02 -0.11961887197E+02  0.10093937309E+02  0.18726474865E+02  0.00000000000E+00 0. -1.
         11    1    3    3    0    0  0.31519956431E+01  0.25614548619E+02  0.73085640117E+00  0.25818100798E+02  0.51100000000E-03 0. -1.
        -11    1    3    3    0    0  0.11661686309E+02 -0.90005551307E+01 -0.14720257270E+02  0.20825246567E+02  0.51100000000E-03 0.  1.
        -12    1    3    3    0    0 -0.25095050788E+02 -0.46521062908E+01  0.38954635599E+01  0.25818177770E+02  0.00000000000E+00 0.  1.
</event>
<event>
 7    1  0.1692604E-013  0.7246159E+02  0.7816164E-02  0.1226708E+00
        -11   -1    0    0    0    0  0.00000000000E+00  0.00000000000E+00  0.45593999997E+02  0.45594000000E+02  0.51100000000E-03 0.  1.
         11   -1    0    0    0    0 -0.00000000000E+00 -0.00000000000E+00 -0.45593999997E+02  0.45594000000E+02  0.51100000000E-03 0. -1.
    9900012    2    1    2    0    0 -0.74144757013E+01 -0.12431058570E+02  0.11881621578E+02  0.72461585543E+02  0.70000019864E+02 0.  0.
         12    1    1    2    0    0  0.74144757013E+01  0.12431058570E+02 -0.11881621578E+02  0.18726414457E+02  0.00000000000E+00 0. -1.
         11    1    3    3    0    0  0.10339818340E+02 -0.16883584177E+02 -0.40770567260E+00  0.19802360519E+02  0.51100000000E-03 0. -1.
        -11    1    3    3    0    0 -0.42082127232E+01 -0.10667170194E+02  0.25827489012E+02  0.28258746667E+02  0.51100000000E-03 0.  1.
        -12    1    3    3    0    0 -0.13546081318E+02  0.15119695800E+02 -0.13538161762E+02  0.24400478357E+02  0.00000000000E+00 0.  1.
</event>
<event>
 7    1  0.1692604E-013  0.7246159E+02  0.7816164E-02  0.1226708E+00
        -11   -1    0    0    0    0  0.00000000000E+00  0.00000000000E+00  0.45593999997E+02  0.45594000000E+02  0.51100000000E-03 0.  1.
         11   -1    0    0    0    0 -0.00000000000E+00 -0.00000000000E+00 -0.45593999997E+02  0.45594000000E+02  0.51100000000E-03 0. -1.
    9900012    2    1    2    0    0 -0.17355430227E+02 -0.34710478732E+01  0.61171278709E+01  0.72461591239E+02  0.70000027284E+02 0.  0.
         12    1    1    2    0    0  0.17355430227E+02  0.34710478732E+01 -0.61171278709E+01  0.18726408761E+02  0.00000000000E+00 0. -1.
         11    1    3    3    0    0 -0.88361224341E+01 -0.29516654139E+01 -0.20137757887E+02  0.22188255483E+02  0.51100000000E-03 0. -1.
        -11    1    3    3    0    0 -0.20939548200E+02 -0.13368579263E+02  0.13120390022E+02  0.28094985761E+02  0.51100000000E-03 0.  1.
         12    1    3    3    0    0  0.12420240406E+02  0.12849196804E+02  0.13134495736E+02  0.22178349995E+02  0.00000000000E+00 0. -1.
</event>
<event>
 7    1  0.1692604E-013  0.7246153E+02  0.7816164E-02  0.1226708E+00
        -11   -1    0    0    0    0  0.00000000000E+00  0.00000000000E+00  0.45593999997E+02  0.45594000000E+02  0.51100000000E-03 0. -1.
         11   -1    0    0    0    0 -0.00000000000E+00 -0.00000000000E+00 -0.45593999997E+02  0.45594000000E+02  0.51100000000E-03 0.  1.
    9900012    2    1    2    0    0 -0.87303939333E+01  0.55752734695E+01 -0.15600553677E+02  0.72461528695E+02  0.69999945809E+02 0.  0.
         12    1    1    2    0    0  0.87303939333E+01 -0.55752734695E+01  0.15600553677E+02  0.18726471305E+02  0.00000000000E+00 0. -1.
         11    1    3    3    0    0 -0.12257057613E+02 -0.80180211866E+01  0.95018431684E+01  0.17458784292E+02  0.51100000000E-03 0. -1.
        -11    1    3    3    0    0 -0.13404602331E+02 -0.68587234157E+01  0.40290050706E+01  0.15587120730E+02  0.51100000000E-03 0.  1.
        -12    1    3    3    0    0  0.16931266011E+02  0.20452018072E+02 -0.29131401916E+02  0.39415623673E+02  0.00000000000E+00 0.  1.
</event>
<event>
 7    1  0.1692604E-013  0.7246157E+02  0.7816164E-02  0.1226708E+00
        -11   -1    0    0    0    0  0.00000000000E+00  0.00000000000E+00  0.45593999997E+02  0.45594000000E+02  0.51100000000E-03 0.  1.
         11   -1    0    0    0    0 -0.00000000000E+00 -0.00000000000E+00 -0.45593999997E+02  0.45594000000E+02  0.51100000000E-03 0. -1.
    9900012    2    1    2    0    0  0.69698800367E+01 -0.12604703590E+01  0.17335253846E+02  0.72461573775E+02  0.70000004534E+02 0.  0.
         12    1    1    2    0    0 -0.69698800367E+01  0.12604703590E+01 -0.17335253846E+02  0.18726426225E+02  0.00000000000E+00 0. -1.
         11    1    3    3    0    0  0.17902176100E+02 -0.93322009054E-01  0.87546825928E+01  0.19928398974E+02  0.51100000000E-03 0. -1.
        -11    1    3    3    0    0  0.17453888497E+02 -0.92189266074E+01  0.11563629910E+02  0.22876721103E+02  0.51100000000E-03 0.  1.
         12    1    3    3    0    0 -0.28386184560E+02  0.80517782575E+01 -0.29830586571E+01  0.29656453698E+02  0.00000000000E+00 0. -1.
</event>
<event>
 7    1  0.1692604E-013  0.7246164E+02  0.7816164E-02  0.1226708E+00
        -11   -1    0    0    0    0  0.00000000000E+00  0.00000000000E+00  0.45593999997E+02  0.45594000000E+02  0.51100000000E-03 0.  1.
         11   -1    0    0    0    0 -0.00000000000E+00 -0.00000000000E+00 -0.45593999997E+02  0.45594000000E+02  0.51100000000E-03 0. -1.
    9900012    2    1    2    0    0  0.58472735128E+00  0.18170422384E+02  0.44911411597E+01  0.72461641448E+02  0.70000092691E+02 0.  0.
         12    1    1    2    0    0 -0.58472735128E+00 -0.18170422384E+02 -0.44911411597E+01  0.18726358552E+02  0.00000000000E+00 0. -1.
         11    1    3    3    0    0 -0.44070106869E+01  0.58946603623E+01 -0.17445479342E+02  0.18934453088E+02  0.51100000000E-03 0. -1.
        -11    1    3    3    0    0 -0.14407887254E+02 -0.59049451829E+01  0.21984100290E+02  0.26939863744E+02  0.51100000000E-03 0.  1.
         12    1    3    3    0    0  0.19399625292E+02  0.18180707205E+02 -0.47479787746E-01  0.26587324617E+02  0.00000000000E+00 0. -1.
</event>
<event>
 7    1  0.1692604E-013  0.7246159E+02  0.7816164E-02  0.1226708E+00
        -11   -1    0    0    0    0  0.00000000000E+00  0.00000000000E+00  0.45593999997E+02  0.45594000000E+02  0.51100000000E-03 0.  1.
         11   -1    0    0    0    0 -0.00000000000E+00 -0.00000000000E+00 -0.45593999997E+02  0.45594000000E+02  0.51100000000E-03 0. -1.
    9900012    2    1    2    0    0  0.27298006968E+01 -0.83549609579E+01  0.16535459873E+02  0.72461585029E+02  0.70000019195E+02 0.  0.
         12    1    1    2    0    0 -0.27298006968E+01  0.83549609579E+01 -0.16535459873E+02  0.18726414971E+02  0.00000000000E+00 0. -1.
         11    1    3    3    0    0  0.57879121654E+01  0.49231618415E+01  0.14385490268E+01  0.77334903709E+01  0.51100000000E-03 0. -1.
        -11    1    3    3    0    0 -0.36753143196E+01 -0.35627315349E+01  0.38783083292E+02  0.39119413866E+02  0.51100000000E-03 0.  1.
         12    1    3    3    0    0  0.61720285090E+00 -0.97153912645E+01 -0.23686172446E+02  0.25608680792E+02  0.00000000000E+00 0. -1.
</event>
<event>
 7    1  0.1692604E-013  0.7246160E+02  0.7816164E-02  0.1226708E+00
        -11   -1    0    0    0    0  0.00000000000E+00  0.00000000000E+00  0.45593999997E+02  0.45594000000E+02  0.51100000000E-03 0.  1.
         11   -1    0    0    0    0 -0.00000000000E+00 -0.00000000000E+00 -0.45593999997E+02  0.45594000000E+02  0.51100000000E-03 0. -1.
    9900012    2    1    2    0    0  0.14538405375E+02  0.10691625670E+02  0.50002103927E+01  0.72461596333E+02  0.70000033921E+02 0.  0.
         12    1    1    2    0    0 -0.14538405375E+02 -0.10691625670E+02 -0.50002103927E+01  0.18726403667E+02  0.00000000000E+00 0. -1.
         11    1    3    3    0    0 -0.49923749336E+00 -0.13783483849E+02 -0.37471264407E+01  0.14292467313E+02  0.51100000000E-03 0. -1.
        -11    1    3    3    0    0 -0.50597460241E+00 -0.13348652998E+02  0.10868488808E+02  0.17221109035E+02  0.51100000000E-03 0.  1.
         12    1    3    3    0    0  0.15543617470E+02  0.37823762517E+02 -0.21211519748E+01  0.40948019985E+02  0.00000000000E+00 0. -1.
</event>
<event>
 7    1  0.1692604E-013  0.7246177E+02  0.7816164E-02  0.1226707E+00
        -11   -1    0    0    0    0  0.00000000000E+00  0.00000000000E+00  0.45593999997E+02  0.45594000000E+02  0.51100000000E-03 0. -1.
         11   -1    0    0    0    0 -0.00000000000E+00 -0.00000000000E+00 -0.45593999997E+02  0.45594000000E+02  0.51100000000E-03 0.  1.
    9900012    2    1    2    0    0  0.12230846228E+00 -0.14673385872E+02 -0.11633939256E+02  0.72461768267E+02  0.70000257895E+02 0.  0.
         12    1    1    2    0    0 -0.12230846228E+00  0.14673385872E+02  0.11633939256E+02  0.18726231733E+02  0.00000000000E+00 0. -1.
         11    1    3    3    0    0 -0.47629872405E+01  0.12452982712E+02 -0.94003818020E+01  0.16313491477E+02  0.51100000000E-03 0. -1.
        -11    1    3    3    0    0 -0.18776315262E+02 -0.94874346201E+01  0.11074176344E+02  0.23773910331E+02  0.51100000000E-03 0.  1.
        -12    1    3    3    0    0  0.23661610964E+02 -0.17638933964E+02 -0.13307733797E+02  0.32374366459E+02  0.00000000000E+00 0.  1.
</event>
<event>
 7    1  0.1692604E-013  0.7246167E+02  0.7816164E-02  0.1226708E+00
        -11   -1    0    0    0    0  0.00000000000E+00  0.00000000000E+00  0.45593999997E+02  0.45594000000E+02  0.51100000000E-03 0.  1.
         11   -1    0    0    0    0 -0.00000000000E+00 -0.00000000000E+00 -0.45593999997E+02  0.45594000000E+02  0.51100000000E-03 0. -1.
    9900012    2    1    2    0    0 -0.17525207509E+01  0.82782842824E+01  0.16705510915E+02  0.72461670553E+02  0.70000130605E+02 0.  0.
         12    1    1    2    0    0  0.17525207509E+01 -0.82782842824E+01 -0.16705510915E+02  0.18726329447E+02  0.00000000000E+00 0. -1.
         11    1    3    3    0    0 -0.26980272330E+02 -0.44831506027E+01 -0.67314033104E+01  0.28166389991E+02  0.51100000000E-03 0. -1.
        -11    1    3    3    0    0 -0.44672602900E+01 -0.48608051398E+00  0.53889847237E+00  0.45258259566E+01  0.51100000000E-03 0.  1.
        -12    1    3    3    0    0  0.29695011869E+02  0.13247515399E+02  0.22898015753E+02  0.39769454605E+02  0.00000000000E+00 0.  1.
</event>
<event>
 7    1  0.1692604E-013  0.7246156E+02  0.7816164E-02  0.1226708E+00
        -11   -1    0    0    0    0  0.00000000000E+00  0.00000000000E+00  0.45593999997E+02  0.45594000000E+02  0.51100000000E-03 0. -1.
         11   -1    0    0    0    0 -0.00000000000E+00 -0.00000000000E+00 -0.45593999997E+02  0.45594000000E+02  0.51100000000E-03 0.  1.
    9900012    2    1    2    0    0  0.72351420560E+01 -0.53730594607E+01 -0.16415316225E+02  0.72461557324E+02  0.69999983104E+02 0.  0.
         12    1    1    2    0    0 -0.72351420560E+01  0.53730594607E+01  0.16415316225E+02  0.18726442676E+02  0.00000000000E+00 0. -1.
         11    1    3    3    0    0 -0.17052792123E+01 -0.16129275323E+01 -0.25204266476E+01  0.34441346029E+01  0.51100000000E-03 0. -1.
        -11    1    3    3    0    0 -0.10161544912E+02  0.25058367891E+02 -0.20354160480E+02  0.33844802341E+02  0.51100000000E-03 0.  1.
         12    1    3    3    0    0  0.19101966180E+02 -0.28818499820E+02  0.64592709024E+01  0.35172620380E+02  0.00000000000E+00 0. -1.
</event>
<event>
 7    1  0.1692604E-013  0.7246148E+02  0.7816164E-02  0.1226708E+00
        -11   -1    0    0    0    0  0.00000000000E+00  0.00000000000E+00  0.45593999997E+02  0.45594000000E+02  0.51100000000E-03 0.  1.
         11   -1    0    0    0    0 -0.00000000000E+00 -0.00000000000E+00 -0.45593999997E+02  0.45594000000E+02  0.51100000000E-03 0. -1.
    9900012    2    1    2    0    0  0.29126245562E+01  0.17759933822E+01  0.18413176603E+02  0.72461478515E+02  0.69999880440E+02 0.  0.
         12    1    1    2    0    0 -0.29126245562E+01 -0.17759933822E+01 -0.18413176603E+02  0.18726521485E+02  0.00000000000E+00 0. -1.
         11    1    3    3    0    0  0.97542793192E+01 -0.21043743528E+01  0.23901742192E+01  0.10260959483E+02  0.51100000000E-03 0. -1.
        -11    1    3    3    0    0  0.40186850367E+01  0.11340080069E+02  0.36175236236E+02  0.38123417506E+02  0.51100000000E-03 0.  1.
         12    1    3    3    0    0 -0.10860339800E+02 -0.74597123343E+01 -0.20152233851E+02  0.24077101526E+02  0.00000000000E+00 0. -1.
</event>
<event>
 7    1  0.1692604E-013  0.7246155E+02  0.7816164E-02  0.1226708E+00
        -11   -1    0    0    0    0  0.00000000000E+00  0.00000000000E+00  0.45593999997E+02  0.45594000000E+02  0.51100000000E-03 0.  1.
         11   -1    0    0    0    0 -0.00000000000E+00 -0.00000000000E+00 -0.45593999997E+02  0.45594000000E+02  0.51100000000E-03 0. -1.
    9900012    2    1    2    0    0 -0.36146056979E+01  0.17608153823E+02  0.52504640178E+01  0.72461552718E+02  0.69999977103E+02 0.  0.
         12    1    1    2    0    0  0.36146056979E+01 -0.17608153823E+02 -0.52504640178E+01  0.18726447282E+02  0.00000000000E+00 0. -1.
         11    1    3    3    0    0 -0.11929622283E+02 -0.75507084920E+01 -0.16438672977E+02  0.21669311388E+02  0.51100000000E-03 0. -1.
        -11    1    3    3    0    0  0.27629141585E+01 -0.93769650566E+01  0.98146659448E+01  0.13852394601E+02  0.51100000000E-03 0.  1.
        -12    1    3    3    0    0  0.55521024264E+01  0.34535827372E+02  0.11874471050E+02  0.36939846728E+02  0.00000000000E+00 0.  1.
</event>
<event>
 7    1  0.1692604E-013  0.7246082E+02  0.7816164E-02  0.1226710E+00
        -11   -1    0    0    0    0  0.00000000000E+00  0.00000000000E+00  0.45593999997E+02  0.45594000000E+02  0.51100000000E-03 0. -1.
         11   -1    0    0    0    0 -0.00000000000E+00 -0.00000000000E+00 -0.45593999997E+02  0.45594000000E+02  0.51100000000E-03 0.  1.
    9900012    2    1    2    0    0  0.11308652531E+02 -0.70636826586E+01 -0.13150135362E+02  0.72460819358E+02  0.69999021759E+02 0.  0.
         12    1    1    2    0    0 -0.11308652531E+02  0.70636826586E+01  0.13150135362E+02  0.18727180642E+02  0.00000000000E+00 0. -1.
         11    1    3    3    0    0  0.25241929732E+02 -0.99287203581E+01 -0.27352285788E+02  0.38521189527E+02  0.51100000000E-03 0. -1.
        -11    1    3    3    0    0  0.31364440159E+01 -0.29058958836E+01 -0.56785595710E+01  0.71082734200E+01  0.51100000000E-03 0.  1.
        -12    1    3    3    0    0 -0.17069721216E+02  0.57709335830E+01  0.19880709997E+02  0.26831356410E+02  0.00000000000E+00 0.  1.
</event>
<event>
 7    1  0.1692604E-013  0.7246156E+02  0.7816164E-02  0.1226708E+00
        -11   -1    0    0    0    0  0.00000000000E+00  0.00000000000E+00  0.45593999997E+02  0.45594000000E+02  0.51100000000E-03 0. -1.
         11   -1    0    0    0    0 -0.00000000000E+00 -0.00000000000E+00 -0.45593999997E+02  0.45594000000E+02  0.51100000000E-03 0.  1.
    9900012    2    1    2    0    0  0.24472153901E+01 -0.18536410520E+02  0.10450245569E+01  0.72461562687E+02  0.69999990090E+02 0.  0.
         12    1    1    2    0    0 -0.24472153901E+01  0.18536410520E+02 -0.10450245569E+01  0.18726437313E+02  0.00000000000E+00 0. -1.
         11    1    3    3    0    0 -0.28865268679E+01 -0.96420781624E+01  0.20893794851E+02  0.23191644447E+02  0.51100000000E-03 0. -1.
        -11    1    3    3    0    0 -0.18385996012E+02 -0.16661300342E-01 -0.24632088103E+01  0.18550270210E+02  0.51100000000E-03 0.  1.
        -12    1    3    3    0    0  0.23719738270E+02 -0.88776710568E+01 -0.17385561484E+02  0.30719648030E+02  0.00000000000E+00 0.  1.
</event>
<event>
 7    1  0.1692604E-013  0.7246162E+02  0.7816164E-02  0.1226708E+00
        -11   -1    0    0    0    0  0.00000000000E+00  0.00000000000E+00  0.45593999997E+02  0.45594000000E+02  0.51100000000E-03 0.  1.
         11   -1    0    0    0    0 -0.00000000000E+00 -0.00000000000E+00 -0.45593999997E+02  0.45594000000E+02  0.51100000000E-03 0. -1.
    9900012    2    1    2    0    0 -0.16143408347E+02  0.81582103303E+01  0.48488611729E+01  0.72461615311E+02  0.70000058643E+02 0.  0.
         12    1    1    2    0    0  0.16143408347E+02 -0.81582103303E+01 -0.48488611729E+01  0.18726384689E+02  0.00000000000E+00 0. -1.
         11    1    3    3    0    0 -0.10284074915E+02  0.20350454750E+02  0.88819794033E+01  0.24470242413E+02  0.51100000000E-03 0. -1.
        -11    1    3    3    0    0 -0.12228636370E+02  0.66729448436E+01  0.14982648345E+02  0.20458433275E+02  0.51100000000E-03 0.  1.
         12    1    3    3    0    0  0.63693029378E+01 -0.18865189263E+02 -0.19015766575E+02  0.27532939623E+02  0.00000000000E+00 0. -1.
</event>
<event>
 7    1  0.1692604E-013  0.7246134E+02  0.7816164E-02  0.1226709E+00
        -11   -1    0    0    0    0  0.00000000000E+00  0.00000000000E+00  0.45593999997E+02  0.45594000000E+02  0.51100000000E-03 0.  1.
         11   -1    0    0    0    0 -0.00000000000E+00 -0.00000000000E+00 -0.45593999997E+02  0.45594000000E+02  0.51100000000E-03 0. -1.
    9900012    2    1    2    0    0 -0.52258772910E+01 -0.73371785148E+01  0.16417791923E+02  0.72461337894E+02  0.69999697254E+02 0.  0.
         12    1    1    2    0    0  0.52258772910E+01  0.73371785148E+01 -0.16417791923E+02  0.18726662106E+02  0.00000000000E+00 0. -1.
         11    1    3    3    0    0 -0.92335273422E+01  0.24641650081E+01  0.43064133376E+01  0.10482143505E+02  0.51100000000E-03 0. -1.
        -11    1    3    3    0    0 -0.33457999756E+01 -0.86211599070E+01  0.35889633501E+02  0.37061901849E+02  0.51100000000E-03 0.  1.
         12    1    3    3    0    0  0.73534500268E+01 -0.11801836159E+01 -0.23778254915E+02  0.24917292539E+02  0.00000000000E+00 0. -1.
</event>
<event>
 7    1  0.1692604E-013  0.7246160E+02  0.7816164E-02  0.1226708E+00
        -11   -1    0    0    0    0  0.00000000000E+00  0.00000000000E+00  0.45593999997E+02  0.45594000000E+02  0.51100000000E-03 0.  1.
         11   -1    0    0    0    0 -0.00000000000E+00 -0.00000000000E+00 -0.45593999997E+02  0.45594000000E+02  0.51100000000E-03 0. -1.
    9900012    2    1    2    0    0  0.15660903167E+02 -0.43260231758E+01  0.93112728819E+01  0.72461597056E+02  0.70000034862E+02 0.  0.
         12    1    1    2    0    0 -0.15660903167E+02  0.43260231758E+01 -0.93112728819E+01  0.18726402944E+02  0.00000000000E+00 0. -1.
         11    1    3    3    0    0  0.12576081484E+02  0.21677463966E+01  0.67559441298E+01  0.14439519773E+02  0.51100000000E-03 0. -1.
        -11    1    3    3    0    0  0.28396264685E+02 -0.13798575766E+02  0.19273436098E+00  0.31571912961E+02  0.51100000000E-03 0.  1.
         12    1    3    3    0    0 -0.25311443002E+02  0.73048061933E+01  0.23625943912E+01  0.26450164322E+02  0.00000000000E+00 0. -1.
</event>
<event>
 7    1  0.1692604E-013  0.7246157E+02  0.7816164E-02  0.1226708E+00
        -11   -1    0    0    0    0  0.00000000000E+00  0.00000000000E+00  0.45593999997E+02  0.45594000000E+02  0.51100000000E-03 0. -1.
         11   -1    0    0    0    0 -0.00000000000E+00 -0.00000000000E+00 -0.45593999997E+02  0.45594000000E+02  0.51100000000E-03 0.  1.
    9900012    2    1    2    0    0  0.99524774747E+01  0.72310815560E+01 -0.14118741639E+02  0.72461569112E+02  0.69999998459E+02 0.  0.
         12    1    1    2    0    0 -0.99524774747E+01 -0.72310815560E+01  0.14118741639E+02  0.18726430888E+02  0.00000000000E+00 0. -1.
         11    1    3    3    0    0  0.84328638517E+01 -0.14172362987E+02 -0.90302992254E+01  0.18802004407E+02  0.51100000000E-03 0. -1.
        -11    1    3    3    0    0  0.23432407770E+02  0.12620730137E+01 -0.44800344324E+01  0.23890191941E+02  0.51100000000E-03 0.  1.
        -12    1    3    3    0    0 -0.21912794147E+02  0.20141371529E+02 -0.60840798098E+00  0.29769372763E+02  0.00000000000E+00 0.  1.
</event>
<event>
 7    1  0.1692604E-013  0.7246155E+02  0.7816164E-02  0.1226708E+00
        -11   -1    0    0    0    0  0.00000000000E+00  0.00000000000E+00  0.45593999997E+02  0.45594000000E+02  0.51100000000E-03 0.  1.
         11   -1    0    0    0    0 -0.00000000000E+00 -0.00000000000E+00 -0.45593999997E+02  0.45594000000E+02  0.51100000000E-03 0. -1.
    9900012    2    1    2    0    0 -0.10974647840E+02 -0.50012109077E+01  0.14325672966E+02  0.72461550478E+02  0.69999974186E+02 0.  0.
         12    1    1    2    0    0  0.10974647840E+02  0.50012109077E+01 -0.14325672966E+02  0.18726449522E+02  0.00000000000E+00 0. -1.
         11    1    3    3    0    0  0.28494277686E+01  0.20852331227E+02  0.57691134167E+01  0.21822502746E+02  0.51100000000E-03 0. -1.
        -11    1    3    3    0    0 -0.11767018360E+02  0.78672076479E+01  0.91424710797E+01  0.16850532780E+02  0.51100000000E-03 0.  1.
         12    1    3    3    0    0 -0.20570572490E+01 -0.33720749782E+02 -0.58591153031E+00  0.33788514953E+02  0.00000000000E+00 0. -1.
</event>
<event>
 7    1  0.1692604E-013  0.7246151E+02  0.7816164E-02  0.1226708E+00
        -11   -1    0    0    0    0  0.00000000000E+00  0.00000000000E+00  0.45593999997E+02  0.45594000000E+02  0.51100000000E-03 0.  1.
         11   -1    0    0    0    0 -0.00000000000E+00 -0.00000000000E+00 -0.45593999997E+02  0.45594000000E+02  0.51100000000E-03 0. -1.
    9900012    2    1    2    0    0  0.93961305642E+01  0.49284401216E+01  0.15430638246E+02  0.72461511052E+02  0.69999922826E+02 0.  0.
         12    1    1    2    0    0 -0.93961305642E+01 -0.49284401216E+01 -0.15430638246E+02  0.18726488948E+02  0.00000000000E+00 0. -1.
         11    1    3    3    0    0  0.14850955646E+01 -0.25593639958E+02  0.22068660830E+01  0.25731501575E+02  0.51100000000E-03 0. -1.
        -11    1    3    3    0    0  0.79474176305E+01 -0.42902738760E+01 -0.10755102446E+01  0.90953075524E+01  0.51100000000E-03 0.  1.
        -12    1    3    3    0    0 -0.36382630919E-01  0.34812353955E+02  0.14299282408E+02  0.37634701925E+02  0.00000000000E+00 0.  1.
</event>
<event>
 7    1  0.1692604E-013  0.7246152E+02  0.7816164E-02  0.1226708E+00
        -11   -1    0    0    0    0  0.00000000000E+00  0.00000000000E+00  0.45593999997E+02  0.45594000000E+02  0.51100000000E-03 0.  1.
         11   -1    0    0    0    0 -0.00000000000E+00 -0.00000000000E+00 -0.45593999997E+02  0.45594000000E+02  0.51100000000E-03 0. -1.
    9900012    2    1    2    0    0  0.11271496169E+02  0.78523355062E+01  0.12726954674E+02  0.72461516773E+02  0.69999930278E+02 0.  0.
         12    1    1    2    0    0 -0.11271496169E+02 -0.78523355062E+01 -0.12726954674E+02  0.18726483227E+02  0.00000000000E+00 0. -1.
         11    1    3    3    0    0 -0.42868376793E+00 -0.20720700441E+02  0.16796035755E+02  0.26676544265E+02  0.51100000000E-03 0. -1.
        -11    1    3    3    0    0  0.13267580864E+02  0.22444940277E+01  0.91601039372E+01  0.16278020759E+02  0.51100000000E-03 0.  1.
         12    1    3    3    0    0 -0.15674009266E+01  0.26328541920E+02 -0.13229185018E+02  0.29506951749E+02  0.00000000000E+00 0. -1.
</event>
<event>
 7    1  0.1692604E-013  0.7246159E+02  0.7816164E-02  0.1226708E+00
        -11   -1    0    0    0    0  0.00000000000E+00  0.00000000000E+00  0.45593999997E+02  0.45594000000E+02  0.51100000000E-03 0.  1.
         11   -1    0    0    0    0 -0.00000000000E+00 -0.00000000000E+00 -0.45593999997E+02  0.45594000000E+02  0.51100000000E-03 0. -1.
    9900012    2    1    2    0    0 -0.18233639461E+02  0.59901248917E+00  0.42254056450E+01  0.72461588789E+02  0.70000024093E+02 0.  0.
         12    1    1    2    0    0  0.18233639461E+02 -0.59901248917E+00 -0.42254056450E+01  0.18726411211E+02  0.00000000000E+00 0. -1.
         11    1    3    3    0    0  0.15373814898E+02 -0.11096817424E+02 -0.10363998889E+02  0.21608008115E+02  0.51100000000E-03 0. -1.
        -11    1    3    3    0    0  0.65355861874E+01 -0.98446846404E+00  0.16578852800E+01  0.68140772546E+01  0.51100000000E-03 0.  1.
         12    1    3    3    0    0 -0.40143040547E+02  0.12680298377E+02  0.12931519254E+02  0.44039503420E+02  0.00000000000E+00 0. -1.
</event>
<event>
 7    1  0.1692604E-013  0.7246117E+02  0.7816164E-02  0.1226709E+00
        -11   -1    0    0    0    0  0.00000000000E+00  0.00000000000E+00  0.45593999997E+02  0.45594000000E+02  0.51100000000E-03 0.  1.
         11   -1    0    0    0    0 -0.00000000000E+00 -0.00000000000E+00 -0.45593999997E+02  0.45594000000E+02  0.51100000000E-03 0. -1.
    9900012    2    1    2    0    0 -0.10642629587E+02  0.13419209140E+02 -0.75731955597E+01  0.72461173535E+02  0.69999483146E+02 0.  0.
         12    1    1    2    0    0  0.10642629587E+02 -0.13419209140E+02  0.75731955597E+01  0.18726826465E+02  0.00000000000E+00 0. -1.
         11    1    3    3    0    0  0.20255128772E+01  0.31580043950E+02 -0.18517582886E+02  0.36664734480E+02  0.51100000000E-03 0. -1.
        -11    1    3    3    0    0 -0.61133179493E+01  0.61654066062E+01  0.11182541214E+01  0.87541640097E+01  0.51100000000E-03 0.  1.
        -12    1    3    3    0    0 -0.65548245145E+01 -0.24326241416E+02  0.98261332052E+01  0.27042275045E+02  0.00000000000E+00 0.  1.
</event>
<event>
 7    1  0.1692604E-013  0.7246116E+02  0.7816164E-02  0.1226709E+00
        -11   -1    0    0    0    0  0.00000000000E+00  0.00000000000E+00  0.45593999997E+02  0.45594000000E+02  0.51100000000E-03 0. -1.
         11   -1    0    0    0    0 -0.00000000000E+00 -0.00000000000E+00 -0.45593999997E+02  0.45594000000E+02  0.51100000000E-03 0.  1.
    9900012    2    1    2    0    0 -0.99335582355E+00  0.76751571224E+01 -0.17052856657E+02  0.72461155289E+02  0.69999459377E+02 0.  0.
         12    1    1    2    0    0  0.99335582355E+00 -0.76751571224E+01  0.17052856657E+02  0.18726844711E+02  0.00000000000E+00 0. -1.
         11    1    3    3    0    0 -0.11253869996E+02 -0.17444147170E+02  0.38340608160E+01  0.21110373824E+02  0.51100000000E-03 0. -1.
        -11    1    3    3    0    0 -0.95095631053E+01 -0.11021280477E+01 -0.15287427988E+02  0.18037514559E+02  0.51100000000E-03 0.  1.
        -12    1    3    3    0    0  0.19770077277E+02  0.26221432340E+02 -0.55994894849E+01  0.33313266907E+02  0.00000000000E+00 0.  1.
</event>
<event>
 7    1  0.1692604E-013  0.7246150E+02  0.7816164E-02  0.1226708E+00
        -11   -1    0    0    0    0  0.00000000000E+00  0.00000000000E+00  0.45593999997E+02  0.45594000000E+02  0.51100000000E-03 0.  1.
         11   -1    0    0    0    0 -0.00000000000E+00 -0.00000000000E+00 -0.45593999997E+02  0.45594000000E+02  0.51100000000E-03 0. -1.
    9900012    2    1    2    0    0  0.97312849403E+01 -0.15609776273E+02  0.35098180986E+01  0.72461498859E+02  0.69999906943E+02 0.  0.
         12    1    1    2    0    0 -0.97312849403E+01  0.15609776273E+02 -0.35098180986E+01  0.18726501141E+02  0.00000000000E+00 0. -1.
         11    1    3    3    0    0  0.94781384978E+00  0.20272923002E+01 -0.49353112590E+01  0.54190001521E+01  0.51100000000E-03 0. -1.
        -11    1    3    3    0    0 -0.14994669256E+02 -0.33981286850E+02  0.62462238581E+00  0.37147787491E+02  0.51100000000E-03 0.  1.
         12    1    3    3    0    0  0.23778140346E+02  0.16344218277E+02  0.78205069717E+01  0.29894711216E+02  0.00000000000E+00 0. -1.
</event>
<event>
 7    1  0.1692604E-013  0.7246158E+02  0.7816164E-02  0.1226708E+00
        -11   -1    0    0    0    0  0.00000000000E+00  0.00000000000E+00  0.45593999997E+02  0.45594000000E+02  0.51100000000E-03 0.  1.
         11   -1    0    0    0    0 -0.00000000000E+00 -0.00000000000E+00 -0.45593999997E+02  0.45594000000E+02  0.51100000000E-03 0. -1.
    9900012    2    1    2    0    0 -0.16113914837E+02 -0.78311736899E+01  0.54491659184E+01  0.72461576371E+02  0.70000007916E+02 0.  0.
         12    1    1    2    0    0  0.16113914837E+02  0.78311736899E+01 -0.54491659184E+01  0.18726423629E+02  0.00000000000E+00 0. -1.
         11    1    3    3    0    0 -0.34322014408E+02  0.47426993317E+01 -0.41290001327E+01  0.34893301826E+02  0.51100000000E-03 0. -1.
        -11    1    3    3    0    0 -0.76444015492E+01 -0.18200676005E+00  0.23992524256E+01  0.80141383797E+01  0.51100000000E-03 0.  1.
        -12    1    3    3    0    0  0.25852501120E+02 -0.12391866262E+02  0.71789136256E+01  0.29554136165E+02  0.00000000000E+00 0.  1.
</event>
<event>
 7    1  0.1692604E-013  0.7246157E+02  0.7816164E-02  0.1226708E+00
        -11   -1    0    0    0    0  0.00000000000E+00  0.00000000000E+00  0.45593999997E+02  0.45594000000E+02  0.51100000000E-03 0. -1.
         11   -1    0    0    0    0 -0.00000000000E+00 -0.00000000000E+00 -0.45593999997E+02  0.45594000000E+02  0.51100000000E-03 0.  1.
    9900012    2    1    2    0    0  0.13881359778E+02 -0.28148839432E+01 -0.12250044226E+02  0.72461566692E+02  0.69999995307E+02 0.  0.
         12    1    1    2    0    0 -0.13881359778E+02  0.28148839432E+01  0.12250044226E+02  0.18726433308E+02  0.00000000000E+00 0. -1.
         11    1    3    3    0    0 -0.53081146843E+01  0.24294475859E+01  0.11863625479E+02  0.13222099184E+02  0.51100000000E-03 0. -1.
        -11    1    3    3    0    0  0.30293401158E+02  0.79163127521E+01 -0.22250020802E+01  0.31389628794E+02  0.51100000000E-03 0.  1.
        -12    1    3    3    0    0 -0.11103926696E+02 -0.13160644281E+02 -0.21888667625E+02  0.27849838714E+02  0.00000000000E+00 0.  1.
</event>
<event>
 7    1  0.1692604E-013  0.7246163E+02  0.7816164E-02  0.1226708E+00
        -11   -1    0    0    0    0  0.00000000000E+00  0.00000000000E+00  0.45593999997E+02  0.45594000000E+02  0.51100000000E-03 0. -1.
         11   -1    0    0    0    0 -0.00000000000E+00 -0.00000000000E+00 -0.45593999997E+02  0.45594000000E+02  0.51100000000E-03 0.  1.
    9900012    2    1    2    0    0 -0.76310758444E+01 -0.16124987298E+02 -0.56946054020E+01  0.72461626497E+02  0.70000073214E+02 0.  0.
         12    1    1    2    0    0  0.76310758444E+01  0.16124987298E+02  0.56946054020E+01  0.18726373503E+02  0.00000000000E+00 0. -1.
         11    1    3    3    0    0  0.19870595284E+01 -0.12722439602E+02  0.25602575203E+02  0.28658344898E+02  0.51100000000E-03 0. -1.
        -11    1    3    3    0    0 -0.70892420615E+01 -0.70752384122E+01  0.19960455798E+01  0.10212764063E+02  0.51100000000E-03 0.  1.
        -12    1    3    3    0    0 -0.25288933114E+01  0.36726907166E+01 -0.33293226185E+02  0.33590517536E+02  0.00000000000E+00 0.  1.
</event>
<event>
 8    1  0.1692604E-013  0.7246158E+02  0.7816164E-02  0.1226708E+00
        -11   -1    0    0    0    0  0.00000000000E+00  0.00000000000E+00  0.45593999997E+02  0.45594000000E+02  0.51100000000E-03 0.  1.
         11   -1    0    0    0    0 -0.00000000000E+00 -0.00000000000E+00 -0.45593999997E+02  0.45594000000E+02  0.51100000000E-03 0. -1.
    9900012    2    1    2    0    0  0.44854123212E+01 -0.17988802539E+02  0.26387188067E+01  0.72461580764E+02  0.70000013638E+02 0.  0.
         23    2    3    3    0    0  0.10562359223E+02 -0.11386741103E+02  0.11986358551E+02  0.59504155570E+02  0.56176956428E+02 0.  0.
         12    1    1    2    0    0 -0.44854123212E+01  0.17988802539E+02 -0.26387188067E+01  0.18726419236E+02  0.00000000000E+00 0. -1.
         11    1    4    4    0    0  0.23769579936E+02 -0.14230032300E+02  0.27429705004E+02  0.38985580237E+02  0.51100000000E-03 0.  1.
        -11    1    4    4    0    0 -0.13207220713E+02  0.28432911968E+01 -0.15443346452E+02  0.20518575333E+02  0.51100000000E-03 0. -1.
        -12    1    3    3    0    0 -0.60769469022E+01 -0.66020614357E+01 -0.93476397445E+01  0.12957425194E+02  0.00000000000E+00 0.  1.
</event>
<event>
 7    1  0.1692604E-013  0.7246155E+02  0.7816164E-02  0.1226708E+00
        -11   -1    0    0    0    0  0.00000000000E+00  0.00000000000E+00  0.45593999997E+02  0.45594000000E+02  0.51100000000E-03 0. -1.
         11   -1    0    0    0    0 -0.00000000000E+00 -0.00000000000E+00 -0.45593999997E+02  0.45594000000E+02  0.51100000000E-03 0.  1.
    9900012    2    1    2    0    0 -0.28492622643E+01 -0.88182696111E+01  0.16272665129E+02  0.72461553333E+02  0.69999977905E+02 0.  0.
         12    1    1    2    0    0  0.28492622643E+01  0.88182696111E+01 -0.16272665129E+02  0.18726446667E+02  0.00000000000E+00 0. -1.
         11    1    3    3    0    0  0.65287230647E+01 -0.12131459099E+02  0.10944773324E+02  0.17595016002E+02  0.51100000000E-03 0. -1.
        -11    1    3    3    0    0 -0.32141716728E+01  0.20899030751E+02  0.21527320040E+02  0.30174921611E+02  0.51100000000E-03 0.  1.
         12    1    3    3    0    0 -0.61638136562E+01 -0.17585841263E+02 -0.16199428235E+02  0.24691615720E+02  0.00000000000E+00 0. -1.
</event>
<event>
 7    1  0.1692604E-013  0.7246152E+02  0.7816164E-02  0.1226708E+00
        -11   -1    0    0    0    0  0.00000000000E+00  0.00000000000E+00  0.45593999997E+02  0.45594000000E+02  0.51100000000E-03 0.  1.
         11   -1    0    0    0    0 -0.00000000000E+00 -0.00000000000E+00 -0.45593999997E+02  0.45594000000E+02  0.51100000000E-03 0. -1.
    9900012    2    1    2    0    0  0.90894468430E+01  0.17289912436E+01  0.16281081059E+02  0.72461519949E+02  0.69999934416E+02 0.  0.
         12    1    1    2    0    0 -0.90894468430E+01 -0.17289912436E+01 -0.16281081059E+02  0.18726480051E+02  0.00000000000E+00 0. -1.
         11    1    3    3    0    0 -0.74599053210E+01  0.18128259079E+02 -0.10470177378E+02  0.22224054068E+02  0.51100000000E-03 0. -1.
        -11    1    3    3    0    0 -0.34200325629E+01 -0.19020477969E+02  0.37882711391E+01  0.19693303516E+02  0.51100000000E-03 0.  1.
        -12    1    3    3    0    0  0.19969384727E+02  0.26212101335E+01  0.22962987298E+02  0.30544162365E+02  0.00000000000E+00 0.  1.
</event>
<event>
 7    1  0.1692604E-013  0.7246163E+02  0.7816164E-02  0.1226708E+00
        -11   -1    0    0    0    0  0.00000000000E+00  0.00000000000E+00  0.45593999997E+02  0.45594000000E+02  0.51100000000E-03 0. -1.
         11   -1    0    0    0    0 -0.00000000000E+00 -0.00000000000E+00 -0.45593999997E+02  0.45594000000E+02  0.51100000000E-03 0.  1.
    9900012    2    1    2    0    0 -0.56413023442E+01 -0.17481904268E+02  0.36381104188E+01  0.72461625113E+02  0.70000071411E+02 0.  0.
         12    1    1    2    0    0  0.56413023442E+01  0.17481904268E+02 -0.36381104188E+01  0.18726374887E+02  0.00000000000E+00 0. -1.
         11    1    3    3    0    0 -0.31130922251E+02 -0.17885793553E+02 -0.82094782976E+01  0.36829763309E+02  0.51100000000E-03 0. -1.
        -11    1    3    3    0    0  0.22037161279E+01 -0.27865694666E+01 -0.54105871543E+01  0.64726955575E+01  0.51100000000E-03 0.  1.
        -12    1    3    3    0    0  0.23285903779E+02  0.31904587512E+01  0.17258175871E+02  0.29159166247E+02  0.00000000000E+00 0.  1.
</event>
<event>
 7    1  0.1692604E-013  0.7246159E+02  0.7816164E-02  0.1226708E+00
        -11   -1    0    0    0    0  0.00000000000E+00  0.00000000000E+00  0.45593999997E+02  0.45594000000E+02  0.51100000000E-03 0.  1.
         11   -1    0    0    0    0 -0.00000000000E+00 -0.00000000000E+00 -0.45593999997E+02  0.45594000000E+02  0.51100000000E-03 0. -1.
    9900012    2    1    2    0    0 -0.13291557466E+02 -0.12609482358E+02  0.38747778456E+01  0.72461589544E+02  0.70000025076E+02 0.  0.
         12    1    1    2    0    0  0.13291557466E+02  0.12609482358E+02 -0.38747778456E+01  0.18726410456E+02  0.00000000000E+00 0. -1.
         11    1    3    3    0    0  0.11103225686E+02 -0.29434533414E+02  0.26518245829E+01  0.31570643829E+02  0.51100000000E-03 0. -1.
        -11    1    3    3    0    0 -0.60242039176E+01  0.19923529026E+02 -0.47068999847E+01  0.21339937897E+02  0.51100000000E-03 0.  1.
        -12    1    3    3    0    0 -0.18370579235E+02 -0.30984779702E+01  0.59298532474E+01  0.19551007818E+02  0.00000000000E+00 0.  1.
</event>
<event>
 7    1  0.1692604E-013  0.7246135E+02  0.7816164E-02  0.1226709E+00
        -11   -1    0    0    0    0  0.00000000000E+00  0.00000000000E+00  0.45593999997E+02  0.45594000000E+02  0.51100000000E-03 0. -1.
         11   -1    0    0    0    0 -0.00000000000E+00 -0.00000000000E+00 -0.45593999997E+02  0.45594000000E+02  0.51100000000E-03 0.  1.
    9900012    2    1    2    0    0  0.23772154995E+01  0.17969105038E+02  0.47061172457E+01  0.72461349767E+02  0.69999712722E+02 0.  0.
         12    1    1    2    0    0 -0.23772154995E+01 -0.17969105038E+02 -0.47061172457E+01  0.18726650233E+02  0.00000000000E+00 0. -1.
         11    1    3    3    0    0 -0.20028675737E+02  0.21267400001E+02  0.23128466028E+01  0.29305279631E+02  0.51100000000E-03 0. -1.
        -11    1    3    3    0    0  0.61954591365E+01 -0.78899257591E+01  0.17731022198E+02  0.20372132702E+02  0.51100000000E-03 0.  1.
        -12    1    3    3    0    0  0.16210432100E+02  0.45916307963E+01 -0.15337751555E+02  0.22783937434E+02  0.00000000000E+00 0.  1.
</event>
<event>
 7    1  0.1692604E-013  0.7246158E+02  0.7816164E-02  0.1226708E+00
        -11   -1    0    0    0    0  0.00000000000E+00  0.00000000000E+00  0.45593999997E+02  0.45594000000E+02  0.51100000000E-03 0.  1.
         11   -1    0    0    0    0 -0.00000000000E+00 -0.00000000000E+00 -0.45593999997E+02  0.45594000000E+02  0.51100000000E-03 0. -1.
    9900012    2    1    2    0    0  0.14306233508E+02 -0.66254161132E+01  0.10105173231E+02  0.72461575304E+02  0.70000006526E+02 0.  0.
         12    1    1    2    0    0 -0.14306233508E+02  0.66254161132E+01 -0.10105173231E+02  0.18726424696E+02  0.00000000000E+00 0. -1.
         11    1    3    3    0    0  0.11407811900E+02  0.10718208770E+02  0.43132647882E+01  0.16236453584E+02  0.51100000000E-03 0. -1.
        -11    1    3    3    0    0  0.34993301063E+00  0.18419245381E+02 -0.44204845362E+01  0.18945493852E+02  0.51100000000E-03 0.  1.
         12    1    3    3    0    0  0.25484885977E+01 -0.35762870264E+02  0.10212392979E+02  0.37279627868E+02  0.00000000000E+00 0. -1.
</event>
<event>
 7    1  0.1692604E-013  0.7246181E+02  0.7816164E-02  0.1226707E+00
        -11   -1    0    0    0    0  0.00000000000E+00  0.00000000000E+00  0.45593999997E+02  0.45594000000E+02  0.51100000000E-03 0. -1.
         11   -1    0    0    0    0 -0.00000000000E+00 -0.00000000000E+00 -0.45593999997E+02  0.45594000000E+02  0.51100000000E-03 0.  1.
    9900012    2    1    2    0    0  0.68237869385E+01  0.12776520686E+01 -0.17391770891E+02  0.72461810914E+02  0.70000313450E+02 0.  0.
         12    1    1    2    0    0 -0.68237869385E+01 -0.12776520686E+01  0.17391770891E+02  0.18726189086E+02  0.00000000000E+00 0. -1.
         11    1    3    3    0    0  0.10329479530E+02  0.88398458578E+01 -0.11632358988E+02  0.17892814145E+02  0.51100000000E-03 0. -1.
        -11    1    3    3    0    0 -0.28455814326E+02 -0.17287468925E+01 -0.49384497625E+01  0.28932857119E+02  0.51100000000E-03 0.  1.
         12    1    3    3    0    0  0.24950121735E+02 -0.58334468967E+01 -0.82096214057E+00  0.25636139649E+02  0.00000000000E+00 0. -1.
</event>
<event>
 7    1  0.2985011E-013  0.7246158E+02  0.7816164E-02  0.1226708E+00
        -11   -1    0    0    0    0  0.00000000000E+00  0.00000000000E+00  0.45593999997E+02  0.45594000000E+02  0.51100000000E-03 0. -1.
         11   -1    0    0    0    0 -0.00000000000E+00 -0.00000000000E+00 -0.45593999997E+02  0.45594000000E+02  0.51100000000E-03 0.  1.
    9900012    2    1    2    0    0 -0.64473767799E+01 -0.31028040355E+01 -0.17305571512E+02  0.72461578409E+02  0.70000010571E+02 0.  0.
         12    1    1    2    0    0  0.64473767799E+01  0.31028040355E+01  0.17305571512E+02  0.18726421591E+02  0.00000000000E+00 0. -1.
         11    1    3    3    0    0  0.78356668710E+01  0.52357166917E+00  0.18846367631E+02  0.20417085388E+02  0.51100000000E-03 0. -1.
        -11    1    3    3    0    0 -0.10948671705E+02  0.12526280567E+02 -0.60171478437E+01  0.17691443847E+02  0.51100000000E-03 0.  1.
        -12    1    3    3    0    0 -0.33343719462E+01 -0.16152656272E+02 -0.30134791300E+02  0.34353049174E+02  0.00000000000E+00 0.  1.
</event>
<event>
 7    1  0.1692604E-013  0.7246152E+02  0.7816164E-02  0.1226708E+00
        -11   -1    0    0    0    0  0.00000000000E+00  0.00000000000E+00  0.45593999997E+02  0.45594000000E+02  0.51100000000E-03 0. -1.
         11   -1    0    0    0    0 -0.00000000000E+00 -0.00000000000E+00 -0.45593999997E+02  0.45594000000E+02  0.51100000000E-03 0.  1.
    9900012    2    1    2    0    0  0.18181272562E+02 -0.44614197598E+01  0.46720216986E+00  0.72461515649E+02  0.69999928815E+02 0.  0.
         12    1    1    2    0    0 -0.18181272562E+02  0.44614197598E+01 -0.46720216986E+00  0.18726484351E+02  0.00000000000E+00 0. -1.
         11    1    3    3    0    0  0.11089097191E+02 -0.22727551518E+02  0.26624435394E+02  0.36720161149E+02  0.51100000000E-03 0. -1.
        -11    1    3    3    0    0  0.15937503469E+01  0.47274790010E+01  0.82472332712E+00  0.50566062434E+01  0.51100000000E-03 0.  1.
        -12    1    3    3    0    0  0.54984250247E+01  0.13538652757E+02 -0.26981956552E+02  0.30684748257E+02  0.00000000000E+00 0.  1.
</event>
<event>
 7    1  0.1692604E-013  0.7246155E+02  0.7816164E-02  0.1226708E+00
        -11   -1    0    0    0    0  0.00000000000E+00  0.00000000000E+00  0.45593999997E+02  0.45594000000E+02  0.51100000000E-03 0.  1.
         11   -1    0    0    0    0 -0.00000000000E+00 -0.00000000000E+00 -0.45593999997E+02  0.45594000000E+02  0.51100000000E-03 0. -1.
    9900012    2    1    2    0    0 -0.33829659350E+01  0.17315365671E+02  0.62780192308E+01  0.72461551530E+02  0.69999975556E+02 0.  0.
         12    1    1    2    0    0  0.33829659350E+01 -0.17315365671E+02 -0.62780192308E+01  0.18726448470E+02  0.00000000000E+00 0. -1.
         11    1    3    3    0    0 -0.10855708032E+02  0.11621352128E+02  0.69050359094E+01  0.17337293426E+02  0.51100000000E-03 0. -1.
        -11    1    3    3    0    0 -0.99251671167E-01  0.26735948957E+02 -0.12822741936E+02  0.29652040883E+02  0.51100000000E-03 0.  1.
        -12    1    3    3    0    0  0.75719937681E+01 -0.21041935414E+02  0.12195725257E+02  0.25472217221E+02  0.00000000000E+00 0.  1.
</event>
<event>
 7    1  0.1692604E-013  0.7246153E+02  0.7816164E-02  0.1226708E+00
        -11   -1    0    0    0    0  0.00000000000E+00  0.00000000000E+00  0.45593999997E+02  0.45594000000E+02  0.51100000000E-03 0.  1.
         11   -1    0    0    0    0 -0.00000000000E+00 -0.00000000000E+00 -0.45593999997E+02  0.45594000000E+02  0.51100000000E-03 0. -1.
    9900012    2    1    2    0    0  0.18451515482E+02  0.23830467078E+01  0.21315259968E+01  0.72461528408E+02  0.69999945435E+02 0.  0.
         12    1    1    2    0    0 -0.18451515482E+02 -0.23830467078E+01 -0.21315259968E+01  0.18726471592E+02  0.00000000000E+00 0. -1.
         11    1    3    3    0    0  0.85441581316E+01  0.20169845808E+02 -0.19950226916E+02  0.29628312007E+02  0.51100000000E-03 0. -1.
        -11    1    3    3    0    0  0.27127616908E+01 -0.40480418353E+01 -0.77825069192E+01  0.91822182995E+01  0.51100000000E-03 0.  1.
        -12    1    3    3    0    0  0.71945956599E+01 -0.13738757265E+02  0.29864259832E+02  0.33650998102E+02  0.00000000000E+00 0.  1.
</event>
<event>
 7    1  0.1692604E-013  0.7246158E+02  0.7816164E-02  0.1226708E+00
        -11   -1    0    0    0    0  0.00000000000E+00  0.00000000000E+00  0.45593999997E+02  0.45594000000E+02  0.51100000000E-03 0.  1.
         11   -1    0    0    0    0 -0.00000000000E+00 -0.00000000000E+00 -0.45593999997E+02  0.45594000000E+02  0.51100000000E-03 0. -1.
    9900012    2    1    2    0    0 -0.18131467534E+02  0.11317377669E+01  0.45439906800E+01  0.72461580252E+02  0.70000012971E+02 0.  0.
         12    1    1    2    0    0  0.18131467534E+02 -0.11317377669E+01 -0.45439906800E+01  0.18726419748E+02  0.00000000000E+00 0. -1.
         11    1    3    3    0    0 -0.14410250624E+01 -0.46323427938E+01 -0.22173170119E+02  0.22697678877E+02  0.51100000000E-03 0. -1.
        -11    1    3    3    0    0  0.10626427728E+02  0.40326118189E+01 -0.20961519784E+00  0.11367799397E+02  0.51100000000E-03 0.  1.
        -12    1    3    3    0    0 -0.27316870199E+02  0.17314687418E+01  0.26926775997E+02  0.38396101978E+02  0.00000000000E+00 0.  1.
</event>
<event>
 7    1  0.1692604E-013  0.7246163E+02  0.7816164E-02  0.1226708E+00
        -11   -1    0    0    0    0  0.00000000000E+00  0.00000000000E+00  0.45593999997E+02  0.45594000000E+02  0.51100000000E-03 0.  1.
         11   -1    0    0    0    0 -0.00000000000E+00 -0.00000000000E+00 -0.45593999997E+02  0.45594000000E+02  0.51100000000E-03 0. -1.
    9900012    2    1    2    0    0 -0.27531673052E+01 -0.16962083950E+02  0.74421021023E+01  0.72461625395E+02  0.70000071779E+02 0.  0.
         12    1    1    2    0    0  0.27531673052E+01  0.16962083950E+02 -0.74421021023E+01  0.18726374605E+02  0.00000000000E+00 0. -1.
         11    1    3    3    0    0  0.14594131524E+02  0.61762132441E+01 -0.11568365468E+02  0.19620432331E+02  0.51100000000E-03 0. -1.
        -11    1    3    3    0    0  0.66689163079E+01 -0.13818665142E+02  0.22090661599E+02  0.26896603525E+02  0.51100000000E-03 0.  1.
        -12    1    3    3    0    0 -0.24016215137E+02 -0.93196320518E+01 -0.30801940286E+01  0.25944589539E+02  0.00000000000E+00 0.  1.
</event>
<event>
 7    1  0.1692604E-013  0.7246152E+02  0.7816164E-02  0.1226708E+00
        -11   -1    0    0    0    0  0.00000000000E+00  0.00000000000E+00  0.45593999997E+02  0.45594000000E+02  0.51100000000E-03 0. -1.
         11   -1    0    0    0    0 -0.00000000000E+00 -0.00000000000E+00 -0.45593999997E+02  0.45594000000E+02  0.51100000000E-03 0.  1.
    9900012    2    1    2    0    0 -0.92983339539E+01  0.12124209872E+02 -0.10827071472E+02  0.72461522595E+02  0.69999937863E+02 0.  0.
         12    1    1    2    0    0  0.92983339539E+01 -0.12124209872E+02  0.10827071472E+02  0.18726477405E+02  0.00000000000E+00 0. -1.
         11    1    3    3    0    0  0.59744706989E+01 -0.26065919250E+02  0.38339488989E+01  0.27015284764E+02  0.51100000000E-03 0. -1.
        -11    1    3    3    0    0 -0.90041003105E+01  0.10382457892E+02 -0.88747066946E+01  0.16359390987E+02  0.51100000000E-03 0.  1.
        -12    1    3    3    0    0 -0.62687043422E+01  0.27807671230E+02 -0.57863136765E+01  0.29086846844E+02  0.00000000000E+00 0.  1.
</event>
<event>
 7    1  0.1692604E-013  0.7246159E+02  0.7816164E-02  0.1226708E+00
        -11   -1    0    0    0    0  0.00000000000E+00  0.00000000000E+00  0.45593999997E+02  0.45594000000E+02  0.51100000000E-03 0. -1.
         11   -1    0    0    0    0 -0.00000000000E+00 -0.00000000000E+00 -0.45593999997E+02  0.45594000000E+02  0.51100000000E-03 0.  1.
    9900012    2    1    2    0    0 -0.16669164141E+02  0.76545306539E+01 -0.37716649750E+01  0.72461592726E+02  0.70000029222E+02 0.  0.
         12    1    1    2    0    0  0.16669164141E+02 -0.76545306539E+01  0.37716649750E+01  0.18726407274E+02  0.00000000000E+00 0. -1.
         11    1    3    3    0    0  0.17957712659E+01  0.71336085782E+01  0.40729385197E+01  0.84084477898E+01  0.51100000000E-03 0. -1.
        -11    1    3    3    0    0 -0.96383491521E+01  0.23887066547E+02 -0.23256093809E+02  0.34703539043E+02  0.51100000000E-03 0.  1.
         12    1    3    3    0    0 -0.88265862551E+01 -0.23366144472E+02  0.15411490314E+02  0.29349605893E+02  0.00000000000E+00 0. -1.
</event>
<event>
 7    1  0.1692604E-013  0.7246149E+02  0.7816164E-02  0.1226708E+00
        -11   -1    0    0    0    0  0.00000000000E+00  0.00000000000E+00  0.45593999997E+02  0.45594000000E+02  0.51100000000E-03 0. -1.
         11   -1    0    0    0    0 -0.00000000000E+00 -0.00000000000E+00 -0.45593999997E+02  0.45594000000E+02  0.51100000000E-03 0.  1.
    9900012    2    1    2    0    0  0.15199812769E+02 -0.19356925633E+01 -0.10765733163E+02  0.72461488727E+02  0.69999893744E+02 0.  0.
         12    1    1    2    0    0 -0.15199812769E+02  0.19356925633E+01  0.10765733163E+02  0.18726511273E+02  0.00000000000E+00 0. -1.
         11    1    3    3    0    0  0.16288277077E+01  0.10699672218E+02  0.24680484434E+02  0.26949255601E+02  0.51100000000E-03 0. -1.
        -11    1    3    3    0    0  0.44743739931E+01  0.61874131286E+01 -0.98860344631E+01  0.12491508377E+02  0.51100000000E-03 0.  1.
        -12    1    3    3    0    0  0.90966110682E+01 -0.18822777910E+02 -0.25560183134E+02  0.33020724750E+02  0.00000000000E+00 0.  1.
</event>
<event>
 7    1  0.1692604E-013  0.7246156E+02  0.7816164E-02  0.1226708E+00
        -11   -1    0    0    0    0  0.00000000000E+00  0.00000000000E+00  0.45593999997E+02  0.45594000000E+02  0.51100000000E-03 0.  1.
         11   -1    0    0    0    0 -0.00000000000E+00 -0.00000000000E+00 -0.45593999997E+02  0.45594000000E+02  0.51100000000E-03 0. -1.
    9900012    2    1    2    0    0  0.17454834848E+01 -0.16529558162E+02 -0.86259214953E+01  0.72461560742E+02  0.69999987557E+02 0.  0.
         12    1    1    2    0    0 -0.17454834848E+01  0.16529558162E+02  0.86259214953E+01  0.18726439258E+02  0.00000000000E+00 0. -1.
         11    1    3    3    0    0 -0.20266343231E+01  0.74323961389E+01  0.11217089899E+02  0.13607750185E+02  0.51100000000E-03 0. -1.
        -11    1    3    3    0    0  0.10100863233E+01 -0.36913897523E+02 -0.24719195381E+01  0.37010356540E+02  0.51100000000E-03 0.  1.
         12    1    3    3    0    0  0.27620314846E+01  0.12951943222E+02 -0.17371091856E+02  0.21843454018E+02  0.00000000000E+00 0. -1.
</event>
<event>
 7    1  0.1692604E-013  0.7246161E+02  0.7816164E-02  0.1226708E+00
        -11   -1    0    0    0    0  0.00000000000E+00  0.00000000000E+00  0.45593999997E+02  0.45594000000E+02  0.51100000000E-03 0. -1.
         11   -1    0    0    0    0 -0.00000000000E+00 -0.00000000000E+00 -0.45593999997E+02  0.45594000000E+02  0.51100000000E-03 0.  1.
    9900012    2    1    2    0    0 -0.24618343904E+01 -0.17855402942E+02  0.50795397533E+01  0.72461607744E+02  0.70000048786E+02 0.  0.
         12    1    1    2    0    0  0.24618343904E+01  0.17855402942E+02 -0.50795397533E+01  0.18726392256E+02  0.00000000000E+00 0. -1.
         11    1    3    3    0    0  0.24894992670E+01 -0.29485821215E+02  0.17098034064E+02  0.34175342404E+02  0.51100000000E-03 0. -1.
        -11    1    3    3    0    0  0.10983918427E+02  0.12044037040E+02  0.27795296463E+01  0.16535751496E+02  0.51100000000E-03 0.  1.
        -12    1    3    3    0    0 -0.15935252084E+02 -0.41361876759E+00 -0.14798023957E+02  0.21750513844E+02  0.00000000000E+00 0.  1.
</event>
<event>
 7    1  0.1692604E-013  0.7246155E+02  0.7816164E-02  0.1226708E+00
        -11   -1    0    0    0    0  0.00000000000E+00  0.00000000000E+00  0.45593999997E+02  0.45594000000E+02  0.51100000000E-03 0.  1.
         11   -1    0    0    0    0 -0.00000000000E+00 -0.00000000000E+00 -0.45593999997E+02  0.45594000000E+02  0.51100000000E-03 0. -1.
    9900012    2    1    2    0    0  0.93562169386E+01  0.11235435697E+02  0.11700683348E+02  0.72461553420E+02  0.69999978018E+02 0.  0.
         12    1    1    2    0    0 -0.93562169386E+01 -0.11235435697E+02 -0.11700683348E+02  0.18726446580E+02  0.00000000000E+00 0. -1.
         11    1    3    3    0    0  0.79575125082E+01  0.20085446032E+02  0.90741718714E+01  0.23432621344E+02  0.51100000000E-03 0. -1.
        -11    1    3    3    0    0  0.20648789366E+02 -0.16304626544E+02  0.83568476013E+01  0.27605257672E+02  0.51100000000E-03 0.  1.
         12    1    3    3    0    0 -0.19250084936E+02  0.74546162098E+01 -0.57303361246E+01  0.21423674404E+02  0.00000000000E+00 0. -1.
</event>
<event>
 7    1  0.1692604E-013  0.7246159E+02  0.7816164E-02  0.1226708E+00
        -11   -1    0    0    0    0  0.00000000000E+00  0.00000000000E+00  0.45593999997E+02  0.45594000000E+02  0.51100000000E-03 0.  1.
         11   -1    0    0    0    0 -0.00000000000E+00 -0.00000000000E+00 -0.45593999997E+02  0.45594000000E+02  0.51100000000E-03 0. -1.
    9900012    2    1    2    0    0 -0.12744230946E+02  0.11157108574E+02 -0.79863706813E+01  0.72461585212E+02  0.70000019433E+02 0.  0.
         12    1    1    2    0    0  0.12744230946E+02 -0.11157108574E+02  0.79863706813E+01  0.18726414788E+02  0.00000000000E+00 0. -1.
         11    1    3    3    0    0 -0.11671000737E+02  0.62173039280E+01 -0.13797770590E+01  0.13295522228E+02  0.51100000000E-03 0. -1.
        -11    1    3    3    0    0 -0.95660364854E+01 -0.15472083423E+02  0.18341118499E+02  0.25831977229E+02  0.51100000000E-03 0.  1.
         12    1    3    3    0    0  0.84928062760E+01  0.20411888069E+02 -0.24947712122E+02  0.33334085755E+02  0.00000000000E+00 0. -1.
</event>
<event>
 7    1  0.1692604E-013  0.7246149E+02  0.7816164E-02  0.1226708E+00
        -11   -1    0    0    0    0  0.00000000000E+00  0.00000000000E+00  0.45593999997E+02  0.45594000000E+02  0.51100000000E-03 0. -1.
         11   -1    0    0    0    0 -0.00000000000E+00 -0.00000000000E+00 -0.45593999997E+02  0.45594000000E+02  0.51100000000E-03 0.  1.
    9900012    2    1    2    0    0 -0.74451642177E+01  0.10819562292E+02 -0.13348743559E+02  0.72461485295E+02  0.69999889272E+02 0.  0.
         12    1    1    2    0    0  0.74451642177E+01 -0.10819562292E+02  0.13348743559E+02  0.18726514705E+02  0.00000000000E+00 0. -1.
         11    1    3    3    0    0 -0.15635560387E+02  0.16378687520E+02 -0.27015876740E+02  0.35250386520E+02  0.51100000000E-03 0. -1.
        -11    1    3    3    0    0 -0.81770174276E+01  0.91925727581E+01  0.71657104466E+01  0.14237781231E+02  0.51100000000E-03 0.  1.
         12    1    3    3    0    0  0.16367413597E+02 -0.14751697987E+02  0.65014227347E+01  0.22973317543E+02  0.00000000000E+00 0. -1.
</event>
<event>
 7    1  0.1692604E-013  0.7246161E+02  0.7816164E-02  0.1226708E+00
        -11   -1    0    0    0    0  0.00000000000E+00  0.00000000000E+00  0.45593999997E+02  0.45594000000E+02  0.51100000000E-03 0. -1.
         11   -1    0    0    0    0 -0.00000000000E+00 -0.00000000000E+00 -0.45593999997E+02  0.45594000000E+02  0.51100000000E-03 0.  1.
    9900012    2    1    2    0    0 -0.82455281586E+01 -0.15261311147E+02  0.70555787212E+01  0.72461613706E+02  0.70000056552E+02 0.  0.
         12    1    1    2    0    0  0.82455281586E+01  0.15261311147E+02 -0.70555787212E+01  0.18726386294E+02  0.00000000000E+00 0. -1.
         11    1    3    3    0    0  0.12522224409E+02 -0.34577826171E+02  0.48693126715E+01  0.37096392991E+02  0.51100000000E-03 0. -1.
        -11    1    3    3    0    0 -0.11989212874E+02 -0.19539337909E+01  0.22519927142E+01  0.12354373883E+02  0.51100000000E-03 0.  1.
        -12    1    3    3    0    0 -0.87785396934E+01  0.21270448814E+02 -0.65726664531E-01  0.23010846832E+02  0.00000000000E+00 0.  1.
</event>
<event>
 7    1  0.1692604E-013  0.7246154E+02  0.7816164E-02  0.1226708E+00
        -11   -1    0    0    0    0  0.00000000000E+00  0.00000000000E+00  0.45593999997E+02  0.45594000000E+02  0.51100000000E-03 0. -1.
         11   -1    0    0    0    0 -0.00000000000E+00 -0.00000000000E+00 -0.45593999997E+02  0.45594000000E+02  0.51100000000E-03 0.  1.
    9900012    2    1    2    0    0  0.53069813336E+01  0.13372629665E+02 -0.11987032988E+02  0.72461541849E+02  0.69999962945E+02 0.  0.
         12    1    1    2    0    0 -0.53069813336E+01 -0.13372629665E+02  0.11987032988E+02  0.18726458151E+02  0.00000000000E+00 0. -1.
         11    1    3    3    0    0 -0.10176676857E+02  0.17210957025E+02 -0.24196922600E+02  0.31389056328E+02  0.51100000000E-03 0. -1.
        -11    1    3    3    0    0 -0.63891708961E+00 -0.78096826241E+01 -0.10399353621E+02  0.13020979753E+02  0.51100000000E-03 0.  1.
        -12    1    3    3    0    0  0.16122575280E+02  0.39713552643E+01  0.22609243233E+02  0.28051505768E+02  0.00000000000E+00 0.  1.
</event>
<event>
 7    1  0.1692604E-013  0.7246156E+02  0.7816164E-02  0.1226708E+00
        -11   -1    0    0    0    0  0.00000000000E+00  0.00000000000E+00  0.45593999997E+02  0.45594000000E+02  0.51100000000E-03 0.  1.
         11   -1    0    0    0    0 -0.00000000000E+00 -0.00000000000E+00 -0.45593999997E+02  0.45594000000E+02  0.51100000000E-03 0. -1.
    9900012    2    1    2    0    0 -0.86295628392E+01 -0.71943549328E+01  0.14981706149E+02  0.72461558351E+02  0.69999984442E+02 0.  0.
         12    1    1    2    0    0  0.86295628392E+01  0.71943549328E+01 -0.14981706149E+02  0.18726441649E+02  0.00000000000E+00 0. -1.
         11    1    3    3    0    0 -0.62216716969E+01  0.26643118195E+02  0.36858845719E+01  0.27607076832E+02  0.51100000000E-03 0. -1.
        -11    1    3    3    0    0 -0.10244732285E+02 -0.33752589941E+01  0.75760121118E+01  0.13181155968E+02  0.51100000000E-03 0.  1.
        -12    1    3    3    0    0  0.78368411430E+01 -0.30462214134E+02  0.37198094654E+01  0.31673325551E+02  0.00000000000E+00 0.  1.
</event>
<event>
 7    1  0.1692604E-013  0.7246156E+02  0.7816164E-02  0.1226708E+00
        -11   -1    0    0    0    0  0.00000000000E+00  0.00000000000E+00  0.45593999997E+02  0.45594000000E+02  0.51100000000E-03 0.  1.
         11   -1    0    0    0    0 -0.00000000000E+00 -0.00000000000E+00 -0.45593999997E+02  0.45594000000E+02  0.51100000000E-03 0. -1.
    9900012    2    1    2    0    0  0.11658203459E+02  0.13687102744E+02  0.52372805085E+01  0.72461558893E+02  0.69999985147E+02 0.  0.
         12    1    1    2    0    0 -0.11658203459E+02 -0.13687102744E+02 -0.52372805085E+01  0.18726441107E+02  0.00000000000E+00 0. -1.
         11    1    3    3    0    0 -0.13127720642E+02 -0.21954217531E+02 -0.71530197799E+01  0.26561069423E+02  0.51100000000E-03 0. -1.
        -11    1    3    3    0    0  0.10134102585E+01  0.59774451708E+01  0.28944452476E+01  0.67182337466E+01  0.51100000000E-03 0.  1.
        -12    1    3    3    0    0  0.23772513842E+02  0.29663875105E+02  0.94958550408E+01  0.39182255723E+02  0.00000000000E+00 0.  1.
</event>
<event>
 7    1  0.1692604E-013  0.7246154E+02  0.7816164E-02  0.1226708E+00
        -11   -1    0    0    0    0  0.00000000000E+00  0.00000000000E+00  0.45593999997E+02  0.45594000000E+02  0.51100000000E-03 0.  1.
         11   -1    0    0    0    0 -0.00000000000E+00 -0.00000000000E+00 -0.45593999997E+02  0.45594000000E+02  0.51100000000E-03 0. -1.
    9900012    2    1    2    0    0  0.48974993521E+01 -0.17240756573E+02 -0.54268780041E+01  0.72461542994E+02  0.69999964437E+02 0.  0.
         12    1    1    2    0    0 -0.48974993521E+01  0.17240756573E+02  0.54268780041E+01  0.18726457006E+02  0.00000000000E+00 0. -1.
         11    1    3    3    0    0 -0.28711504652E+02 -0.17657604840E+02  0.43101761258E+01  0.33981158405E+02  0.51100000000E-03 0. -1.
        -11    1    3    3    0    0 -0.79870866912E+00  0.15447261366E+01  0.14688379981E+01  0.22763127424E+01  0.51100000000E-03 0.  1.
        -12    1    3    3    0    0  0.34407712673E+02 -0.11278778691E+01 -0.11205892128E+02  0.36204071847E+02  0.00000000000E+00 0.  1.
</event>
<event>
 7    1  0.1692604E-013  0.7246139E+02  0.7816164E-02  0.1226708E+00
        -11   -1    0    0    0    0  0.00000000000E+00  0.00000000000E+00  0.45593999997E+02  0.45594000000E+02  0.51100000000E-03 0.  1.
         11   -1    0    0    0    0 -0.00000000000E+00 -0.00000000000E+00 -0.45593999997E+02  0.45594000000E+02  0.51100000000E-03 0. -1.
    9900012    2    1    2    0    0  0.17353481885E+02  0.34351592142E+01 -0.61434660258E+01  0.72461392535E+02  0.69999768434E+02 0.  0.
         12    1    1    2    0    0 -0.17353481885E+02 -0.34351592142E+01  0.61434660258E+01  0.18726607465E+02  0.00000000000E+00 0. -1.
         11    1    3    3    0    0  0.36971481314E+01 -0.68810809459E+01  0.32019264779E+01  0.84421864893E+01  0.51100000000E-03 0. -1.
        -11    1    3    3    0    0 -0.15452950750E+01 -0.22526824230E+02  0.79104360934E+01  0.23925316010E+02  0.51100000000E-03 0.  1.
        -12    1    3    3    0    0  0.15201628828E+02  0.32843064390E+02 -0.17255828597E+02  0.40093890035E+02  0.00000000000E+00 0.  1.
</event>
<event>
 7    1  0.1692604E-013  0.7246166E+02  0.7816164E-02  0.1226708E+00
        -11   -1    0    0    0    0  0.00000000000E+00  0.00000000000E+00  0.45593999997E+02  0.45594000000E+02  0.51100000000E-03 0. -1.
         11   -1    0    0    0    0 -0.00000000000E+00 -0.00000000000E+00 -0.45593999997E+02  0.45594000000E+02  0.51100000000E-03 0.  1.
    9900012    2    1    2    0    0 -0.14861522598E+01  0.17515036519E+02 -0.64568271744E+01  0.72461661063E+02  0.70000118243E+02 0.  0.
         12    1    1    2    0    0  0.14861522598E+01 -0.17515036519E+02  0.64568271744E+01  0.18726338937E+02  0.00000000000E+00 0. -1.
         11    1    3    3    0    0  0.16693558542E+02  0.91640431968E+01 -0.18970684647E+02  0.26880131338E+02  0.51100000000E-03 0. -1.
        -11    1    3    3    0    0 -0.11427827851E+01 -0.12762744744E+02 -0.44730860959E+01  0.13572107625E+02  0.51100000000E-03 0.  1.
         12    1    3    3    0    0 -0.17036928017E+02  0.21113738067E+02  0.16986943568E+02  0.32009422100E+02  0.00000000000E+00 0. -1.
</event>
<event>
 7    1  0.1692604E-013  0.7246159E+02  0.7816164E-02  0.1226708E+00
        -11   -1    0    0    0    0  0.00000000000E+00  0.00000000000E+00  0.45593999997E+02  0.45594000000E+02  0.51100000000E-03 0.  1.
         11   -1    0    0    0    0 -0.00000000000E+00 -0.00000000000E+00 -0.45593999997E+02  0.45594000000E+02  0.51100000000E-03 0. -1.
    9900012    2    1    2    0    0 -0.17199316331E+02 -0.73513199587E+01 -0.90565076612E+00  0.72461585749E+02  0.70000020133E+02 0.  0.
         12    1    1    2    0    0  0.17199316331E+02  0.73513199587E+01  0.90565076612E+00  0.18726414251E+02  0.00000000000E+00 0. -1.
         11    1    3    3    0    0  0.43006284922E+00  0.60666833030E+01  0.21938451598E+01  0.64654897107E+01  0.51100000000E-03 0. -1.
        -11    1    3    3    0    0 -0.18119028259E+01  0.16942907724E+02  0.18787276457E+02  0.25363494849E+02  0.51100000000E-03 0.  1.
        -12    1    3    3    0    0 -0.15817476354E+02 -0.30360910986E+02 -0.21886772383E+02  0.40632601190E+02  0.00000000000E+00 0.  1.
</event>
<event>
 7    1  0.1692604E-013  0.7246145E+02  0.7816164E-02  0.1226708E+00
        -11   -1    0    0    0    0  0.00000000000E+00  0.00000000000E+00  0.45593999997E+02  0.45594000000E+02  0.51100000000E-03 0. -1.
         11   -1    0    0    0    0 -0.00000000000E+00 -0.00000000000E+00 -0.45593999997E+02  0.45594000000E+02  0.51100000000E-03 0.  1.
    9900012    2    1    2    0    0  0.14556979217E+02 -0.54570522741E+01 -0.10440239937E+02  0.72461450040E+02  0.69999843346E+02 0.  0.
         12    1    1    2    0    0 -0.14556979217E+02  0.54570522741E+01  0.10440239937E+02  0.18726549960E+02  0.00000000000E+00 0. -1.
         11    1    3    3    0    0 -0.16317232201E+02 -0.40934177045E+01 -0.29839451617E+01  0.17085434270E+02  0.51100000000E-03 0. -1.
        -11    1    3    3    0    0 -0.86157660525E+01 -0.89032622801E+01 -0.87238939934E+01  0.15152749934E+02  0.51100000000E-03 0.  1.
        -12    1    3    3    0    0  0.39489977471E+02  0.75396277104E+01  0.12675992181E+01  0.40223265836E+02  0.00000000000E+00 0.  1.
</event>
<event>
 7    1  0.1692604E-013  0.7246156E+02  0.7816164E-02  0.1226708E+00
        -11   -1    0    0    0    0  0.00000000000E+00  0.00000000000E+00  0.45593999997E+02  0.45594000000E+02  0.51100000000E-03 0. -1.
         11   -1    0    0    0    0 -0.00000000000E+00 -0.00000000000E+00 -0.45593999997E+02  0.45594000000E+02  0.51100000000E-03 0.  1.
    9900012    2    1    2    0    0 -0.11358928878E+02  0.97817398723E+01 -0.11223716270E+02  0.72461561281E+02  0.69999988259E+02 0.  0.
         12    1    1    2    0    0  0.11358928878E+02 -0.97817398723E+01  0.11223716270E+02  0.18726438719E+02  0.00000000000E+00 0. -1.
         11    1    3    3    0    0 -0.35221799158E+02  0.63328253760E+01 -0.18207003401E+02  0.40151896421E+02  0.51100000000E-03 0. -1.
        -11    1    3    3    0    0 -0.32714025858E+01  0.27394211599E+00 -0.16291772934E+01  0.36648789988E+01  0.51100000000E-03 0.  1.
        -12    1    3    3    0    0  0.27134272866E+02  0.31749723803E+01  0.86124644240E+01  0.28644785861E+02  0.00000000000E+00 0.  1.
</event>
<event>
 7    1  0.1692604E-013  0.7246155E+02  0.7816164E-02  0.1226708E+00
        -11   -1    0    0    0    0  0.00000000000E+00  0.00000000000E+00  0.45593999997E+02  0.45594000000E+02  0.51100000000E-03 0. -1.
         11   -1    0    0    0    0 -0.00000000000E+00 -0.00000000000E+00 -0.45593999997E+02  0.45594000000E+02  0.51100000000E-03 0.  1.
    9900012    2    1    2    0    0  0.16096946261E+02  0.11491207055E+01 -0.94998759654E+01  0.72461553442E+02  0.69999978047E+02 0.  0.
         12    1    1    2    0    0 -0.16096946261E+02 -0.11491207055E+01  0.94998759654E+01  0.18726446558E+02  0.00000000000E+00 0. -1.
         11    1    3    3    0    0 -0.19683649643E+02 -0.10328206362E+02  0.21954431630E+01  0.22336917443E+02  0.51100000000E-03 0. -1.
        -11    1    3    3    0    0  0.16849808225E+02 -0.21005896117E+01  0.87738008334E+01  0.19113034695E+02  0.51100000000E-03 0.  1.
        -12    1    3    3    0    0  0.18930787678E+02  0.13577916679E+02 -0.20469119962E+02  0.31011601305E+02  0.00000000000E+00 0.  1.
</event>
<event>
 7    1  0.1692604E-013  0.7246145E+02  0.7816164E-02  0.1226708E+00
        -11   -1    0    0    0    0  0.00000000000E+00  0.00000000000E+00  0.45593999997E+02  0.45594000000E+02  0.51100000000E-03 0.  1.
         11   -1    0    0    0    0 -0.00000000000E+00 -0.00000000000E+00 -0.45593999997E+02  0.45594000000E+02  0.51100000000E-03 0. -1.
    9900012    2    1    2    0    0 -0.12804932006E+02  0.72792407778E+01  0.11564164659E+02  0.72461453755E+02  0.69999848186E+02 0.  0.
         12    1    1    2    0    0  0.12804932006E+02 -0.72792407778E+01 -0.11564164659E+02  0.18726546245E+02  0.00000000000E+00 0. -1.
         11    1    3    3    0    0  0.15927108626E+02  0.17783551496E+02  0.33398315206E+01  0.24105641826E+02  0.51100000000E-03 0. -1.
        -11    1    3    3    0    0 -0.10608711457E+02  0.13456211080E+02 -0.26330032440E+00  0.17137202302E+02  0.51100000000E-03 0.  1.
        -12    1    3    3    0    0 -0.18123329174E+02 -0.23960521799E+02  0.84876334632E+01  0.31218609627E+02  0.00000000000E+00 0.  1.
</event>
<event>
 7    1  0.1692604E-013  0.7246155E+02  0.7816164E-02  0.1226708E+00
        -11   -1    0    0    0    0  0.00000000000E+00  0.00000000000E+00  0.45593999997E+02  0.45594000000E+02  0.51100000000E-03 0.  1.
         11   -1    0    0    0    0 -0.00000000000E+00 -0.00000000000E+00 -0.45593999997E+02  0.45594000000E+02  0.51100000000E-03 0. -1.
    9900012    2    1    2    0    0 -0.12809531352E+02 -0.48895624989E+01 -0.12754918740E+02  0.72461551673E+02  0.69999975742E+02 0.  0.
         12    1    1    2    0    0  0.12809531352E+02  0.48895624989E+01  0.12754918740E+02  0.18726448327E+02  0.00000000000E+00 0. -1.
         11    1    3    3    0    0  0.16481092108E+01 -0.15189894904E+02 -0.13035446307E+02  0.20084123876E+02  0.51100000000E-03 0. -1.
        -11    1    3    3    0    0  0.74513405392E+01 -0.31276128010E+01 -0.18739399997E+02  0.20407585603E+02  0.51100000000E-03 0.  1.
        -12    1    3    3    0    0 -0.21908981102E+02  0.13427945207E+02  0.19019927563E+02  0.31969842194E+02  0.00000000000E+00 0.  1.
</event>
<event>
 7    1  0.1692604E-013  0.7246157E+02  0.7816164E-02  0.1226708E+00
        -11   -1    0    0    0    0  0.00000000000E+00  0.00000000000E+00  0.45593999997E+02  0.45594000000E+02  0.51100000000E-03 0.  1.
         11   -1    0    0    0    0 -0.00000000000E+00 -0.00000000000E+00 -0.45593999997E+02  0.45594000000E+02  0.51100000000E-03 0. -1.
    9900012    2    1    2    0    0 -0.76693797286E+00 -0.17154670840E+01  0.18631914569E+02  0.72461567834E+02  0.69999996794E+02 0.  0.
         12    1    1    2    0    0  0.76693797286E+00  0.17154670840E+01 -0.18631914569E+02  0.18726432166E+02  0.00000000000E+00 0. -1.
         11    1    3    3    0    0 -0.74851949292E+01 -0.22870024763E+02  0.11857177754E+02  0.26826457841E+02  0.51100000000E-03 0. -1.
        -11    1    3    3    0    0  0.62754213984E+00 -0.11154234295E+02  0.61468105271E+01  0.12751236480E+02  0.51100000000E-03 0.  1.
        -12    1    3    3    0    0  0.60907148165E+01  0.32308791974E+02  0.62792628852E+00  0.32883873513E+02  0.00000000000E+00 0.  1.
</event>
<event>
 7    1  0.1692604E-013  0.7246153E+02  0.7816164E-02  0.1226708E+00
        -11   -1    0    0    0    0  0.00000000000E+00  0.00000000000E+00  0.45593999997E+02  0.45594000000E+02  0.51100000000E-03 0. -1.
         11   -1    0    0    0    0 -0.00000000000E+00 -0.00000000000E+00 -0.45593999997E+02  0.45594000000E+02  0.51100000000E-03 0.  1.
    9900012    2    1    2    0    0 -0.15624556939E+02 -0.84316099066E+01 -0.59549986509E+01  0.72461525850E+02  0.69999942103E+02 0.  0.
         12    1    1    2    0    0  0.15624556939E+02  0.84316099066E+01  0.59549986509E+01  0.18726474150E+02  0.00000000000E+00 0. -1.
         11    1    3    3    0    0  0.16438406223E+02 -0.20640450540E+02 -0.98669263251E+01  0.28171006958E+02  0.51100000000E-03 0. -1.
        -11    1    3    3    0    0  0.29280643437E+01 -0.62562205243E+00  0.62670986309E+01  0.69456093515E+01  0.51100000000E-03 0.  1.
        -12    1    3    3    0    0 -0.34991027506E+02  0.12834462686E+02 -0.23551709567E+01  0.37344909540E+02  0.00000000000E+00 0.  1.
</event>
<event>
 7    1  0.1692604E-013  0.7246155E+02  0.7816164E-02  0.1226708E+00
        -11   -1    0    0    0    0  0.00000000000E+00  0.00000000000E+00  0.45593999997E+02  0.45594000000E+02  0.51100000000E-03 0.  1.
         11   -1    0    0    0    0 -0.00000000000E+00 -0.00000000000E+00 -0.45593999997E+02  0.45594000000E+02  0.51100000000E-03 0. -1.
    9900012    2    1    2    0    0 -0.36898795297E+01 -0.15922059967E+02  0.91407133961E+01  0.72461552234E+02  0.69999976473E+02 0.  0.
         12    1    1    2    0    0  0.36898795297E+01  0.15922059967E+02 -0.91407133961E+01  0.18726447766E+02  0.00000000000E+00 0. -1.
         11    1    3    3    0    0  0.75215237743E+01  0.18729190429E+02  0.12958803284E+02  0.23985130327E+02  0.51100000000E-03 0. -1.
        -11    1    3    3    0    0  0.10643226379E+02 -0.12711488320E+02  0.27895345473E+01  0.16811951294E+02  0.51100000000E-03 0.  1.
        -12    1    3    3    0    0 -0.21854629683E+02 -0.21939762076E+02 -0.66076244351E+01  0.31664470613E+02  0.00000000000E+00 0.  1.
</event>
<event>
 7    1  0.1692604E-013  0.7246160E+02  0.7816164E-02  0.1226708E+00
        -11   -1    0    0    0    0  0.00000000000E+00  0.00000000000E+00  0.45593999997E+02  0.45594000000E+02  0.51100000000E-03 0. -1.
         11   -1    0    0    0    0 -0.00000000000E+00 -0.00000000000E+00 -0.45593999997E+02  0.45594000000E+02  0.51100000000E-03 0.  1.
    9900012    2    1    2    0    0 -0.75887145717E+01 -0.96860427141E+01 -0.14116301159E+02  0.72461602302E+02  0.70000041697E+02 0.  0.
         12    1    1    2    0    0  0.75887145717E+01  0.96860427141E+01  0.14116301159E+02  0.18726397698E+02  0.00000000000E+00 0. -1.
         11    1    3    3    0    0 -0.57925083783E+01 -0.16959010149E+02  0.59138068468E+01  0.18871520612E+02  0.51100000000E-03 0. -1.
        -11    1    3    3    0    0  0.11820181834E+02 -0.17489341742E+02 -0.11670527385E+02  0.24120426673E+02  0.51100000000E-03 0.  1.
         12    1    3    3    0    0 -0.13616388028E+02  0.24762309177E+02 -0.83595806207E+01  0.29469655017E+02  0.00000000000E+00 0. -1.
</event>
<event>
 7    1  0.1692604E-013  0.7246159E+02  0.7816164E-02  0.1226708E+00
        -11   -1    0    0    0    0  0.00000000000E+00  0.00000000000E+00  0.45593999997E+02  0.45594000000E+02  0.51100000000E-03 0.  1.
         11   -1    0    0    0    0 -0.00000000000E+00 -0.00000000000E+00 -0.45593999997E+02  0.45594000000E+02  0.51100000000E-03 0. -1.
    9900012    2    1    2    0    0  0.16263917720E+02  0.76467687550E+01  0.52621524306E+01  0.72461592438E+02  0.70000028846E+02 0.  0.
         12    1    1    2    0    0 -0.16263917720E+02 -0.76467687550E+01 -0.52621524306E+01  0.18726407562E+02  0.00000000000E+00 0. -1.
         11    1    3    3    0    0  0.17684397151E+02  0.16585200455E+02 -0.14768267323E+01  0.24289664349E+02  0.51100000000E-03 0. -1.
        -11    1    3    3    0    0  0.18707250626E+01  0.12902557120E+02  0.18897929779E+02  0.22958818408E+02  0.51100000000E-03 0.  1.
        -12    1    3    3    0    0 -0.32912044939E+01 -0.21840988820E+02 -0.12158950616E+02  0.25213109680E+02  0.00000000000E+00 0.  1.
</event>
<event>
 7    1  0.1692604E-013  0.7246163E+02  0.7816164E-02  0.1226708E+00
        -11   -1    0    0    0    0  0.00000000000E+00  0.00000000000E+00  0.45593999997E+02  0.45594000000E+02  0.51100000000E-03 0.  1.
         11   -1    0    0    0    0 -0.00000000000E+00 -0.00000000000E+00 -0.45593999997E+02  0.45594000000E+02  0.51100000000E-03 0. -1.
    9900012    2    1    2    0    0  0.45745328468E+01  0.15481430784E+02  0.94908305965E+01  0.72461630483E+02  0.70000078406E+02 0.  0.
         12    1    1    2    0    0 -0.45745328468E+01 -0.15481430784E+02 -0.94908305965E+01  0.18726369517E+02  0.00000000000E+00 0. -1.
         11    1    3    3    0    0  0.16595183292E+02  0.36608504024E+02  0.65571670122E+01  0.40725656715E+02  0.51100000000E-03 0. -1.
        -11    1    3    3    0    0 -0.12742887475E+02 -0.40497968240E+01 -0.28878747746E+01  0.13679249120E+02  0.51100000000E-03 0.  1.
        -12    1    3    3    0    0  0.72223702993E+00 -0.17077276416E+02  0.58215383589E+01  0.18056724647E+02  0.00000000000E+00 0.  1.
</event>
<event>
 7    1  0.1692604E-013  0.7246159E+02  0.7816164E-02  0.1226708E+00
        -11   -1    0    0    0    0  0.00000000000E+00  0.00000000000E+00  0.45593999997E+02  0.45594000000E+02  0.51100000000E-03 0.  1.
         11   -1    0    0    0    0 -0.00000000000E+00 -0.00000000000E+00 -0.45593999997E+02  0.45594000000E+02  0.51100000000E-03 0. -1.
    9900012    2    1    2    0    0  0.36237013418E+01 -0.43247427081E+01  0.17856198040E+02  0.72461590324E+02  0.70000026093E+02 0.  0.
         12    1    1    2    0    0 -0.36237013418E+01  0.43247427081E+01 -0.17856198040E+02  0.18726409676E+02  0.00000000000E+00 0. -1.
         11    1    3    3    0    0 -0.92713513865E+01  0.13316745946E+02 -0.84143930405E+01  0.18278284647E+02  0.51100000000E-03 0. -1.
        -11    1    3    3    0    0 -0.60171336199E+01  0.12822267893E+01  0.26726437879E+02  0.27425398530E+02  0.51100000000E-03 0.  1.
        -12    1    3    3    0    0  0.18912186348E+02 -0.18923715443E+02 -0.45584679899E+00  0.26757907148E+02  0.00000000000E+00 0.  1.
</event>
<event>
 7    1  0.1692604E-013  0.7246155E+02  0.7816164E-02  0.1226708E+00
        -11   -1    0    0    0    0  0.00000000000E+00  0.00000000000E+00  0.45593999997E+02  0.45594000000E+02  0.51100000000E-03 0. -1.
         11   -1    0    0    0    0 -0.00000000000E+00 -0.00000000000E+00 -0.45593999997E+02  0.45594000000E+02  0.51100000000E-03 0.  1.
    9900012    2    1    2    0    0  0.93220700846E+01  0.13841810355E+02 -0.84960630320E+01  0.72461553684E+02  0.69999978363E+02 0.  0.
         12    1    1    2    0    0 -0.93220700846E+01 -0.13841810355E+02  0.84960630320E+01  0.18726446316E+02  0.00000000000E+00 0. -1.
         11    1    3    3    0    0  0.13156204701E+01 -0.40040272936E+01 -0.10007875372E+02  0.10859128027E+02  0.51100000000E-03 0. -1.
        -11    1    3    3    0    0 -0.14756771442E+01  0.60380129969E+01 -0.27866141901E+02  0.28550956003E+02  0.51100000000E-03 0.  1.
         12    1    3    3    0    0  0.94821267587E+01  0.11807824652E+02  0.29377954241E+02  0.33051469654E+02  0.00000000000E+00 0. -1.
</event>
<event>
 7    1  0.1692604E-013  0.7246166E+02  0.7816164E-02  0.1226708E+00
        -11   -1    0    0    0    0  0.00000000000E+00  0.00000000000E+00  0.45593999997E+02  0.45594000000E+02  0.51100000000E-03 0. -1.
         11   -1    0    0    0    0 -0.00000000000E+00 -0.00000000000E+00 -0.45593999997E+02  0.45594000000E+02  0.51100000000E-03 0.  1.
    9900012    2    1    2    0    0 -0.18669027085E+02 -0.14562162251E+01  0.15081277156E+00  0.72461658059E+02  0.70000114330E+02 0.  0.
         12    1    1    2    0    0  0.18669027085E+02  0.14562162251E+01 -0.15081277156E+00  0.18726341941E+02  0.00000000000E+00 0. -1.
         11    1    3    3    0    0 -0.32712675094E+01  0.26164876933E+02  0.89933446404E+01  0.27860047095E+02  0.51100000000E-03 0. -1.
        -11    1    3    3    0    0 -0.23642533595E+02 -0.13364704700E+02 -0.41211781766E+01  0.27469416382E+02  0.51100000000E-03 0.  1.
        -12    1    3    3    0    0  0.82447740197E+01 -0.14256388459E+02 -0.47213536922E+01  0.17132194582E+02  0.00000000000E+00 0.  1.
</event>
<event>
 7    1  0.1692604E-013  0.7246157E+02  0.7816164E-02  0.1226708E+00
        -11   -1    0    0    0    0  0.00000000000E+00  0.00000000000E+00  0.45593999997E+02  0.45594000000E+02  0.51100000000E-03 0.  1.
         11   -1    0    0    0    0 -0.00000000000E+00 -0.00000000000E+00 -0.45593999997E+02  0.45594000000E+02  0.51100000000E-03 0. -1.
    9900012    2    1    2    0    0 -0.47752098027E+01 -0.15678724076E+02  0.90583751392E+01  0.72461570082E+02  0.69999999724E+02 0.  0.
         12    1    1    2    0    0  0.47752098027E+01  0.15678724076E+02 -0.90583751392E+01  0.18726429918E+02  0.00000000000E+00 0. -1.
         11    1    3    3    0    0 -0.15217226521E+02  0.11619586659E+01 -0.63972670443E+01  0.16548086198E+02  0.51100000000E-03 0. -1.
        -11    1    3    3    0    0  0.78095741281E+01  0.17322877934E+01 -0.16795773326E+02  0.18603447824E+02  0.51100000000E-03 0.  1.
        -12    1    3    3    0    0  0.26324425900E+01 -0.18572970535E+02  0.32251415509E+02  0.37310036060E+02  0.00000000000E+00 0.  1.
</event>
<event>
 7    1  0.1692604E-013  0.7246147E+02  0.7816164E-02  0.1226708E+00
        -11   -1    0    0    0    0  0.00000000000E+00  0.00000000000E+00  0.45593999997E+02  0.45594000000E+02  0.51100000000E-03 0.  1.
         11   -1    0    0    0    0 -0.00000000000E+00 -0.00000000000E+00 -0.45593999997E+02  0.45594000000E+02  0.51100000000E-03 0. -1.
    9900012    2    1    2    0    0  0.11128356598E+01  0.16509216491E+02  0.87687028402E+01  0.72461473845E+02  0.69999874357E+02 0.  0.
         12    1    1    2    0    0 -0.11128356598E+01 -0.16509216491E+02 -0.87687028402E+01  0.18726526155E+02  0.00000000000E+00 0. -1.
         11    1    3    3    0    0  0.44016815987E+01 -0.12315616864E+02  0.22817543191E+02  0.26299990441E+02  0.51100000000E-03 0. -1.
        -11    1    3    3    0    0  0.86256948055E+01 -0.32407213061E+01 -0.60752899984E+01  0.11036939534E+02  0.51100000000E-03 0.  1.
        -12    1    3    3    0    0 -0.11914540744E+02  0.32065554660E+02 -0.79735503528E+01  0.35124543870E+02  0.00000000000E+00 0.  1.
</event>
<event>
 7    1  0.1692604E-013  0.7246158E+02  0.7816164E-02  0.1226708E+00
        -11   -1    0    0    0    0  0.00000000000E+00  0.00000000000E+00  0.45593999997E+02  0.45594000000E+02  0.51100000000E-03 0.  1.
         11   -1    0    0    0    0 -0.00000000000E+00 -0.00000000000E+00 -0.45593999997E+02  0.45594000000E+02  0.51100000000E-03 0. -1.
    9900012    2    1    2    0    0 -0.89393234054E+01  0.65055974977E+01  0.15114378525E+02  0.72461581764E+02  0.70000014941E+02 0.  0.
         12    1    1    2    0    0  0.89393234054E+01 -0.65055974977E+01 -0.15114378525E+02  0.18726418236E+02  0.00000000000E+00 0. -1.
         11    1    3    3    0    0 -0.17676370947E+02  0.75074054157E+00  0.78138097118E+01  0.19340975252E+02  0.51100000000E-03 0. -1.
        -11    1    3    3    0    0  0.19952022782E+02 -0.86906378799E+01  0.21021694944E+02  0.30257595053E+02  0.51100000000E-03 0.  1.
         12    1    3    3    0    0 -0.11214975240E+02  0.14445494836E+02 -0.13721126130E+02  0.22863011459E+02  0.00000000000E+00 0. -1.
</event>
<event>
 7    1  0.1692604E-013  0.7246160E+02  0.7816164E-02  0.1226708E+00
        -11   -1    0    0    0    0  0.00000000000E+00  0.00000000000E+00  0.45593999997E+02  0.45594000000E+02  0.51100000000E-03 0.  1.
         11   -1    0    0    0    0 -0.00000000000E+00 -0.00000000000E+00 -0.45593999997E+02  0.45594000000E+02  0.51100000000E-03 0. -1.
    9900012    2    1    2    0    0 -0.49605038560E+01 -0.17669629384E+02 -0.37223239702E+01  0.72461598936E+02  0.70000037312E+02 0.  0.
         12    1    1    2    0    0  0.49605038560E+01  0.17669629384E+02  0.37223239702E+01  0.18726401064E+02  0.00000000000E+00 0. -1.
         11    1    3    3    0    0 -0.12219231352E+02 -0.80643184648E+01 -0.21122157923E+01  0.14792035119E+02  0.51100000000E-03 0.  1.
        -11    1    3    3    0    0 -0.22221450648E+02 -0.13546574946E+02 -0.80426734368E+01  0.27239441220E+02  0.51100000000E-03 0. -1.
        -12    1    3    3    0    0  0.29480178144E+02  0.39412640274E+01  0.64325652589E+01  0.30430122598E+02  0.00000000000E+00 0.  1.
</event>
<event>
 7    1  0.1692604E-013  0.7246139E+02  0.7816164E-02  0.1226708E+00
        -11   -1    0    0    0    0  0.00000000000E+00  0.00000000000E+00  0.45593999997E+02  0.45594000000E+02  0.51100000000E-03 0. -1.
         11   -1    0    0    0    0 -0.00000000000E+00 -0.00000000000E+00 -0.45593999997E+02  0.45594000000E+02  0.51100000000E-03 0.  1.
    9900012    2    1    2    0    0  0.71990508491E+01 -0.15673318979E+02 -0.72942954744E+01  0.72461387722E+02  0.69999762166E+02 0.  0.
         12    1    1    2    0    0 -0.71990508491E+01  0.15673318979E+02  0.72942954744E+01  0.18726612278E+02  0.00000000000E+00 0. -1.
         11    1    3    3    0    0  0.51695794525E+01 -0.13784093498E+02  0.21032350381E+02  0.25672661492E+02  0.51100000000E-03 0. -1.
        -11    1    3    3    0    0  0.14082077444E+02 -0.52589964562E+01  0.83490558650E+00  0.15055198984E+02  0.51100000000E-03 0.  1.
        -12    1    3    3    0    0 -0.12052606047E+02  0.33697709753E+01 -0.29161551442E+02  0.31733527246E+02  0.00000000000E+00 0.  1.
</event>
<event>
 7    1  0.1692604E-013  0.7246157E+02  0.7816164E-02  0.1226708E+00
        -11   -1    0    0    0    0  0.00000000000E+00  0.00000000000E+00  0.45593999997E+02  0.45594000000E+02  0.51100000000E-03 0.  1.
         11   -1    0    0    0    0 -0.00000000000E+00 -0.00000000000E+00 -0.45593999997E+02  0.45594000000E+02  0.51100000000E-03 0. -1.
    9900012    2    1    2    0    0 -0.39543581595E+01  0.14231164758E+02  0.11511570660E+02  0.72461567935E+02  0.69999996927E+02 0.  0.
         12    1    1    2    0    0  0.39543581595E+01 -0.14231164758E+02 -0.11511570660E+02  0.18726432065E+02  0.00000000000E+00 0. -1.
         11    1    3    3    0    0 -0.43238786521E+00 -0.25560897275E+01  0.30682210218E+01  0.40167816048E+01  0.51100000000E-03 0. -1.
        -11    1    3    3    0    0 -0.47037609654E+01 -0.16444050879E+02  0.25785213218E+02  0.30942032860E+02  0.51100000000E-03 0.  1.
         12    1    3    3    0    0  0.11817906712E+01  0.33231305364E+02 -0.17341863580E+02  0.37502753470E+02  0.00000000000E+00 0. -1.
</event>
<event>
 7    1  0.1692604E-013  0.7246163E+02  0.7816164E-02  0.1226708E+00
        -11   -1    0    0    0    0  0.00000000000E+00  0.00000000000E+00  0.45593999997E+02  0.45594000000E+02  0.51100000000E-03 0.  1.
         11   -1    0    0    0    0 -0.00000000000E+00 -0.00000000000E+00 -0.45593999997E+02  0.45594000000E+02  0.51100000000E-03 0. -1.
    9900012    2    1    2    0    0  0.15014257013E+02  0.99959478186E+01 -0.50329118032E+01  0.72461625881E+02  0.70000072412E+02 0.  0.
         12    1    1    2    0    0 -0.15014257013E+02 -0.99959478186E+01  0.50329118032E+01  0.18726374119E+02  0.00000000000E+00 0. -1.
         11    1    3    3    0    0 -0.62773495553E+01 -0.12606044818E+02 -0.78316572524E+01  0.16113731379E+02  0.51100000000E-03 0. -1.
        -11    1    3    3    0    0  0.11512218571E+02 -0.30096606811E+01  0.20508183320E+02  0.23710226004E+02  0.51100000000E-03 0.  1.
         12    1    3    3    0    0  0.97793879973E+01  0.25611653317E+02 -0.17709437871E+02  0.32637668497E+02  0.00000000000E+00 0. -1.
</event>
<event>
 7    1  0.1692604E-013  0.7246162E+02  0.7816164E-02  0.1226708E+00
        -11   -1    0    0    0    0  0.00000000000E+00  0.00000000000E+00  0.45593999997E+02  0.45594000000E+02  0.51100000000E-03 0. -1.
         11   -1    0    0    0    0 -0.00000000000E+00 -0.00000000000E+00 -0.45593999997E+02  0.45594000000E+02  0.51100000000E-03 0.  1.
    9900012    2    1    2    0    0  0.91201418386E+01 -0.83512030955E+01 -0.14062629560E+02  0.72461624739E+02  0.70000070924E+02 0.  0.
         12    1    1    2    0    0 -0.91201418386E+01  0.83512030955E+01  0.14062629560E+02  0.18726375261E+02  0.00000000000E+00 0. -1.
         11    1    3    3    0    0  0.22377203939E+02 -0.27359712429E+02  0.80675657546E+01  0.36254361638E+02  0.51100000000E-03 0. -1.
        -11    1    3    3    0    0 -0.35250049950E+01  0.16910902921E+02 -0.82958045470E+01  0.19163107033E+02  0.51100000000E-03 0.  1.
        -12    1    3    3    0    0 -0.97320571054E+01  0.20976064118E+01 -0.13834390767E+02  0.17044156068E+02  0.00000000000E+00 0.  1.
</event>
<event>
 7    1  0.1692604E-013  0.7246182E+02  0.7816164E-02  0.1226707E+00
        -11   -1    0    0    0    0  0.00000000000E+00  0.00000000000E+00  0.45593999997E+02  0.45594000000E+02  0.51100000000E-03 0. -1.
         11   -1    0    0    0    0 -0.00000000000E+00 -0.00000000000E+00 -0.45593999997E+02  0.45594000000E+02  0.51100000000E-03 0.  1.
    9900012    2    1    2    0    0  0.67680598768E+01 -0.17324648920E+02  0.21724991365E+01  0.72461819204E+02  0.70000324250E+02 0.  0.
         12    1    1    2    0    0 -0.67680598768E+01  0.17324648920E+02 -0.21724991365E+01  0.18726180796E+02  0.00000000000E+00 0. -1.
         11    1    3    3    0    0  0.24316598076E+00  0.79276015424E+01  0.69075388083E+01  0.10517608500E+02  0.51100000000E-03 0. -1.
        -11    1    3    3    0    0  0.14473926603E+02  0.14286039870E+02 -0.71127041110E+01  0.21544745218E+02  0.51100000000E-03 0.  1.
        -12    1    3    3    0    0 -0.79490327068E+01 -0.39538290332E+02  0.23776644393E+01  0.40399465486E+02  0.00000000000E+00 0.  1.
</event>
<event>
 7    1  0.1692604E-013  0.7246153E+02  0.7816164E-02  0.1226708E+00
        -11   -1    0    0    0    0  0.00000000000E+00  0.00000000000E+00  0.45593999997E+02  0.45594000000E+02  0.51100000000E-03 0.  1.
         11   -1    0    0    0    0 -0.00000000000E+00 -0.00000000000E+00 -0.45593999997E+02  0.45594000000E+02  0.51100000000E-03 0. -1.
    9900012    2    1    2    0    0  0.15498352727E+02 -0.88458001018E+01  0.56774665187E+01  0.72461528288E+02  0.69999945279E+02 0.  0.
         12    1    1    2    0    0 -0.15498352727E+02  0.88458001018E+01 -0.56774665187E+01  0.18726471712E+02  0.00000000000E+00 0. -1.
         11    1    3    3    0    0 -0.27651271309E+00 -0.98468313784E+01 -0.75727771545E+01  0.12425115757E+02  0.51100000000E-03 0. -1.
        -11    1    3    3    0    0  0.34130173367E+02 -0.98148062982E+01  0.15226668214E+02  0.38640012706E+02  0.51100000000E-03 0.  1.
         12    1    3    3    0    0 -0.18355307927E+02  0.10815837575E+02 -0.19764245406E+01  0.21396399826E+02  0.00000000000E+00 0. -1.
</event>
<event>
 7    1  0.1692604E-013  0.7246161E+02  0.7816164E-02  0.1226708E+00
        -11   -1    0    0    0    0  0.00000000000E+00  0.00000000000E+00  0.45593999997E+02  0.45594000000E+02  0.51100000000E-03 0.  1.
         11   -1    0    0    0    0 -0.00000000000E+00 -0.00000000000E+00 -0.45593999997E+02  0.45594000000E+02  0.51100000000E-03 0. -1.
    9900012    2    1    2    0    0 -0.16926787757E+02 -0.61223344396E+01 -0.51651412253E+01  0.72461606683E+02  0.70000047404E+02 0.  0.
         12    1    1    2    0    0  0.16926787757E+02  0.61223344396E+01  0.51651412253E+01  0.18726393317E+02  0.00000000000E+00 0. -1.
         11    1    3    3    0    0  0.11123510852E+02 -0.12594296331E+02  0.35397137389E+01  0.17172022810E+02  0.51100000000E-03 0. -1.
        -11    1    3    3    0    0  0.83396323551E+01 -0.79584425207E+01  0.65698991067E+01  0.13268377810E+02  0.51100000000E-03 0.  1.
        -12    1    3    3    0    0 -0.36389930965E+02  0.14430404412E+02 -0.15274754071E+02  0.42021206064E+02  0.00000000000E+00 0.  1.
</event>
<event>
 7    1  0.1692604E-013  0.7246159E+02  0.7816164E-02  0.1226708E+00
        -11   -1    0    0    0    0  0.00000000000E+00  0.00000000000E+00  0.45593999997E+02  0.45594000000E+02  0.51100000000E-03 0.  1.
         11   -1    0    0    0    0 -0.00000000000E+00 -0.00000000000E+00 -0.45593999997E+02  0.45594000000E+02  0.51100000000E-03 0. -1.
    9900012    2    1    2    0    0 -0.14767388187E+02 -0.18168193007E+01  0.11371090923E+02  0.72461593644E+02  0.70000030417E+02 0.  0.
         12    1    1    2    0    0  0.14767388187E+02  0.18168193007E+01 -0.11371090923E+02  0.18726406356E+02  0.00000000000E+00 0. -1.
         11    1    3    3    0    0 -0.40247090323E+01 -0.97507066463E+01  0.39323010985E+01  0.11257777538E+02  0.51100000000E-03 0. -1.
        -11    1    3    3    0    0  0.24401627500E+02 -0.79355004759E+00  0.49141027305E+01  0.24904167367E+02  0.51100000000E-03 0.  1.
         12    1    3    3    0    0 -0.35144306654E+02  0.87274373931E+01  0.25246870944E+01  0.36299648739E+02  0.00000000000E+00 0. -1.
</event>
<event>
 7    1  0.1692604E-013  0.7246156E+02  0.7816164E-02  0.1226708E+00
        -11   -1    0    0    0    0  0.00000000000E+00  0.00000000000E+00  0.45593999997E+02  0.45594000000E+02  0.51100000000E-03 0.  1.
         11   -1    0    0    0    0 -0.00000000000E+00 -0.00000000000E+00 -0.45593999997E+02  0.45594000000E+02  0.51100000000E-03 0. -1.
    9900012    2    1    2    0    0  0.57272635816E+01 -0.11194130728E+02  0.13876945122E+02  0.72461555682E+02  0.69999980964E+02 0.  0.
         12    1    1    2    0    0 -0.57272635816E+01  0.11194130728E+02 -0.13876945122E+02  0.18726444318E+02  0.00000000000E+00 0. -1.
         11    1    3    3    0    0  0.53902878866E+01 -0.54725379771E+00 -0.82253429364E+00  0.54800778412E+01  0.51100000000E-03 0. -1.
        -11    1    3    3    0    0  0.31381663104E+02 -0.51430423469E+01 -0.88221144808E+00  0.31812544083E+02  0.51100000000E-03 0.  1.
         12    1    3    3    0    0 -0.31044687409E+02 -0.55038345838E+01  0.15581690863E+02  0.35168933757E+02  0.00000000000E+00 0. -1.
</event>
<event>
 7    1  0.1692604E-013  0.7246148E+02  0.7816164E-02  0.1226708E+00
        -11   -1    0    0    0    0  0.00000000000E+00  0.00000000000E+00  0.45593999997E+02  0.45594000000E+02  0.51100000000E-03 0. -1.
         11   -1    0    0    0    0 -0.00000000000E+00 -0.00000000000E+00 -0.45593999997E+02  0.45594000000E+02  0.51100000000E-03 0.  1.
    9900012    2    1    2    0    0 -0.11916540361E+02  0.13650624113E+02 -0.47264225548E+01  0.72461480221E+02  0.69999882663E+02 0.  0.
         12    1    1    2    0    0  0.11916540361E+02 -0.13650624113E+02  0.47264225548E+01  0.18726519779E+02  0.00000000000E+00 0. -1.
         11    1    3    3    0    0  0.75662587554E+01  0.11102979700E+02  0.76950460899E+00  0.13457955542E+02  0.51100000000E-03 0. -1.
        -11    1    3    3    0    0 -0.61014036173E+01  0.12794548267E+02 -0.27706607575E+02  0.31122077293E+02  0.51100000000E-03 0.  1.
         12    1    3    3    0    0 -0.13381395499E+02 -0.10246903853E+02  0.22210680411E+02  0.27881447387E+02  0.00000000000E+00 0. -1.
</event>
<event>
 7    1  0.1692604E-013  0.7246155E+02  0.7816164E-02  0.1226708E+00
        -11   -1    0    0    0    0  0.00000000000E+00  0.00000000000E+00  0.45593999997E+02  0.45594000000E+02  0.51100000000E-03 0.  1.
         11   -1    0    0    0    0 -0.00000000000E+00 -0.00000000000E+00 -0.45593999997E+02  0.45594000000E+02  0.51100000000E-03 0. -1.
    9900012    2    1    2    0    0  0.55220427050E+01  0.13752710051E+02  0.11447697538E+02  0.72461554307E+02  0.69999979173E+02 0.  0.
         12    1    1    2    0    0 -0.55220427050E+01 -0.13752710051E+02 -0.11447697538E+02  0.18726445693E+02  0.00000000000E+00 0. -1.
         11    1    3    3    0    0 -0.13568695127E+02 -0.90676537787E+00  0.14593499605E+02  0.19947479587E+02  0.51100000000E-03 0. -1.
        -11    1    3    3    0    0 -0.67492898501E+01  0.16348368006E+02  0.13042140646E+02  0.21975429071E+02  0.51100000000E-03 0.  1.
         12    1    3    3    0    0  0.25840027682E+02 -0.16888925775E+01 -0.16187942713E+02  0.30538645649E+02  0.00000000000E+00 0. -1.
</event>
<event>
 7    1  0.1692604E-013  0.7246163E+02  0.7816164E-02  0.1226708E+00
        -11   -1    0    0    0    0  0.00000000000E+00  0.00000000000E+00  0.45593999997E+02  0.45594000000E+02  0.51100000000E-03 0. -1.
         11   -1    0    0    0    0 -0.00000000000E+00 -0.00000000000E+00 -0.45593999997E+02  0.45594000000E+02  0.51100000000E-03 0.  1.
    9900012    2    1    2    0    0  0.49508451244E+01  0.29608387184E+01 -0.17815709430E+02  0.72461629934E+02  0.70000077691E+02 0.  0.
         12    1    1    2    0    0 -0.49508451244E+01 -0.29608387184E+01  0.17815709430E+02  0.18726370066E+02  0.00000000000E+00 0. -1.
         11    1    3    3    0    0  0.10088103607E+02 -0.68976481367E+01 -0.27216681610E+02  0.29834462327E+02  0.51100000000E-03 0. -1.
        -11    1    3    3    0    0  0.81882638851E+01 -0.11134534790E+02 -0.39897931425E+01  0.14385547610E+02  0.51100000000E-03 0.  1.
         12    1    3    3    0    0 -0.13325522368E+02  0.20993021645E+02  0.13390765322E+02  0.28241619998E+02  0.00000000000E+00 0. -1.
</event>
<event>
 7    1  0.1692604E-013  0.7246157E+02  0.7816164E-02  0.1226708E+00
        -11   -1    0    0    0    0  0.00000000000E+00  0.00000000000E+00  0.45593999997E+02  0.45594000000E+02  0.51100000000E-03 0.  1.
         11   -1    0    0    0    0 -0.00000000000E+00 -0.00000000000E+00 -0.45593999997E+02  0.45594000000E+02  0.51100000000E-03 0. -1.
    9900012    2    1    2    0    0  0.81297671131E+01  0.16444085151E+02  0.37653610861E+01  0.72461574985E+02  0.70000006110E+02 0.  0.
         12    1    1    2    0    0 -0.81297671131E+01 -0.16444085151E+02 -0.37653610861E+01  0.18726425015E+02  0.00000000000E+00 0. -1.
         11    1    3    3    0    0 -0.48037984346E+01  0.50008896746E+01  0.24919680229E+02  0.25866500342E+02  0.51100000000E-03 0. -1.
        -11    1    3    3    0    0 -0.45331863003E+01  0.13483028530E+02  0.50005207186E+01  0.15078031837E+02  0.51100000000E-03 0.  1.
         12    1    3    3    0    0  0.17466751848E+02 -0.20398330539E+01 -0.26154839862E+02  0.31517042805E+02  0.00000000000E+00 0. -1.
</event>
<event>
 7    1  0.1692604E-013  0.7246141E+02  0.7816164E-02  0.1226708E+00
        -11   -1    0    0    0    0  0.00000000000E+00  0.00000000000E+00  0.45593999997E+02  0.45594000000E+02  0.51100000000E-03 0. -1.
         11   -1    0    0    0    0 -0.00000000000E+00 -0.00000000000E+00 -0.45593999997E+02  0.45594000000E+02  0.51100000000E-03 0.  1.
    9900012    2    1    2    0    0 -0.18319566618E+02 -0.29717692244E+01  0.24994235204E+01  0.72461413249E+02  0.69999795419E+02 0.  0.
         12    1    1    2    0    0  0.18319566618E+02  0.29717692244E+01 -0.24994235204E+01  0.18726586751E+02  0.00000000000E+00 0. -1.
         11    1    3    3    0    0 -0.13746095996E+02  0.19754190323E+01  0.77698007876E+00  0.13909030656E+02  0.51100000000E-03 0. -1.
        -11    1    3    3    0    0  0.77497887495E+01  0.72243187798E+01 -0.24746947697E+02  0.26919536178E+02  0.51100000000E-03 0.  1.
         12    1    3    3    0    0 -0.12323259372E+02 -0.12171507036E+02  0.26469391138E+02  0.31632846415E+02  0.00000000000E+00 0. -1.
</event>
<event>
 7    1  0.1692604E-013  0.7246152E+02  0.7816164E-02  0.1226708E+00
        -11   -1    0    0    0    0  0.00000000000E+00  0.00000000000E+00  0.45593999997E+02  0.45594000000E+02  0.51100000000E-03 0. -1.
         11   -1    0    0    0    0 -0.00000000000E+00 -0.00000000000E+00 -0.45593999997E+02  0.45594000000E+02  0.51100000000E-03 0.  1.
    9900012    2    1    2    0    0  0.15615975696E+02  0.68782721512E+01  0.77143802711E+01  0.72461521749E+02  0.69999936761E+02 0.  0.
         12    1    1    2    0    0 -0.15615975696E+02 -0.68782721512E+01 -0.77143802711E+01  0.18726478251E+02  0.00000000000E+00 0. -1.
         11    1    3    3    0    0  0.15570805121E+02 -0.23023649537E+02  0.21522998039E+02  0.35153632173E+02  0.51100000000E-03 0. -1.
        -11    1    3    3    0    0  0.56314220355E+01  0.16995576409E+01 -0.18119194662E+01  0.61550355588E+01  0.51100000000E-03 0.  1.
        -12    1    3    3    0    0 -0.55862514613E+01  0.28202364047E+02 -0.11996698302E+02  0.31152854017E+02  0.00000000000E+00 0.  1.
</event>
<event>
 7    1  0.1692604E-013  0.7246153E+02  0.7816164E-02  0.1226708E+00
        -11   -1    0    0    0    0  0.00000000000E+00  0.00000000000E+00  0.45593999997E+02  0.45594000000E+02  0.51100000000E-03 0.  1.
         11   -1    0    0    0    0 -0.00000000000E+00 -0.00000000000E+00 -0.45593999997E+02  0.45594000000E+02  0.51100000000E-03 0. -1.
    9900012    2    1    2    0    0 -0.82725816854E+01 -0.16538424088E+02  0.29539247788E+01  0.72461528077E+02  0.69999945004E+02 0.  0.
         12    1    1    2    0    0  0.82725816854E+01  0.16538424088E+02 -0.29539247788E+01  0.18726471923E+02  0.00000000000E+00 0. -1.
         11    1    3    3    0    0 -0.16815497506E+02  0.96366590187E+01 -0.23212077806E+02  0.30239489244E+02  0.51100000000E-03 0. -1.
        -11    1    3    3    0    0  0.62649390792E+01 -0.37847794373E+01 -0.48985457302E+00  0.73358008983E+01  0.51100000000E-03 0.  1.
        -12    1    3    3    0    0  0.22779767415E+01 -0.22390303670E+02  0.26655857157E+02  0.34886237935E+02  0.00000000000E+00 0.  1.
</event>
<event>
 7    1  0.1692604E-013  0.7246200E+02  0.7816164E-02  0.1226707E+00
        -11   -1    0    0    0    0  0.00000000000E+00  0.00000000000E+00  0.45593999997E+02  0.45594000000E+02  0.51100000000E-03 0. -1.
         11   -1    0    0    0    0 -0.00000000000E+00 -0.00000000000E+00 -0.45593999997E+02  0.45594000000E+02  0.51100000000E-03 0.  1.
    9900012    2    1    2    0    0  0.31029359450E+01 -0.16217217590E+02 -0.88338373468E+01  0.72462000959E+02  0.70000561018E+02 0.  0.
         12    1    1    2    0    0 -0.31029359450E+01  0.16217217590E+02  0.88338373468E+01  0.18725999041E+02  0.00000000000E+00 0. -1.
         11    1    3    3    0    0  0.16137809234E+01  0.32864216759E+01  0.16453663571E+02  0.16856093898E+02  0.51100000000E-03 0. -1.
        -11    1    3    3    0    0  0.11981943835E+02 -0.24577752848E+02  0.45620767482E+00  0.27346682410E+02  0.51100000000E-03 0.  1.
        -12    1    3    3    0    0 -0.10492788814E+02  0.50741135828E+01 -0.25743708593E+02  0.28259224651E+02  0.00000000000E+00 0.  1.
</event>
<event>
 7    1  0.1692604E-013  0.7246163E+02  0.7816164E-02  0.1226708E+00
        -11   -1    0    0    0    0  0.00000000000E+00  0.00000000000E+00  0.45593999997E+02  0.45594000000E+02  0.51100000000E-03 0.  1.
         11   -1    0    0    0    0 -0.00000000000E+00 -0.00000000000E+00 -0.45593999997E+02  0.45594000000E+02  0.51100000000E-03 0. -1.
    9900012    2    1    2    0    0  0.16227536252E+02 -0.23375117147E+01  0.90487567988E+01  0.72461631067E+02  0.70000079167E+02 0.  0.
         12    1    1    2    0    0 -0.16227536252E+02  0.23375117147E+01 -0.90487567988E+01  0.18726368933E+02  0.00000000000E+00 0. -1.
         11    1    3    3    0    0  0.62466992120E+01 -0.20503077368E+02  0.11540754935E+00  0.21433869267E+02  0.51100000000E-03 0. -1.
        -11    1    3    3    0    0  0.97925437023E+01 -0.14406024408E+02  0.55421151225E+01  0.18279564866E+02  0.51100000000E-03 0.  1.
        -12    1    3    3    0    0  0.18829333747E+00  0.32571590061E+02  0.33912341269E+01  0.32748196934E+02  0.00000000000E+00 0.  1.
</event>
<event>
 7    1  0.1692604E-013  0.7246160E+02  0.7816164E-02  0.1226708E+00
        -11   -1    0    0    0    0  0.00000000000E+00  0.00000000000E+00  0.45593999997E+02  0.45594000000E+02  0.51100000000E-03 0. -1.
         11   -1    0    0    0    0 -0.00000000000E+00 -0.00000000000E+00 -0.45593999997E+02  0.45594000000E+02  0.51100000000E-03 0.  1.
    9900012    2    1    2    0    0 -0.17939590905E+02 -0.35846374762E+01  0.39999155490E+01  0.72461604937E+02  0.70000045128E+02 0.  0.
         12    1    1    2    0    0  0.17939590905E+02  0.35846374762E+01 -0.39999155490E+01  0.18726395063E+02  0.00000000000E+00 0. -1.
         11    1    3    3    0    0 -0.89572324452E+01 -0.69840331511E+01 -0.12253079345E+02  0.16707683437E+02  0.51100000000E-03 0.  1.
        -11    1    3    3    0    0 -0.17803772550E+02  0.15115798022E+02 -0.10217309444E+02  0.25492255283E+02  0.51100000000E-03 0. -1.
         12    1    3    3    0    0  0.88214140909E+01 -0.11716402347E+02  0.26470304338E+02  0.30261666217E+02  0.00000000000E+00 0. -1.
</event>
<event>
 7    1  0.1692604E-013  0.7246157E+02  0.7816164E-02  0.1226708E+00
        -11   -1    0    0    0    0  0.00000000000E+00  0.00000000000E+00  0.45593999997E+02  0.45594000000E+02  0.51100000000E-03 0.  1.
         11   -1    0    0    0    0 -0.00000000000E+00 -0.00000000000E+00 -0.45593999997E+02  0.45594000000E+02  0.51100000000E-03 0. -1.
    9900012    2    1    2    0    0  0.18023257654E+02  0.38352222359E+01  0.33365026938E+01  0.72461574920E+02  0.70000006025E+02 0.  0.
         12    1    1    2    0    0 -0.18023257654E+02 -0.38352222359E+01 -0.33365026938E+01  0.18726425080E+02  0.00000000000E+00 0. -1.
         11    1    3    3    0    0  0.33452051260E+01  0.56817586724E+01 -0.47669291048E+01  0.81361165366E+01  0.51100000000E-03 0. -1.
        -11    1    3    3    0    0  0.33006544817E+02 -0.16561263426E+01 -0.13757318535E+02  0.35797186604E+02  0.51100000000E-03 0.  1.
         12    1    3    3    0    0 -0.18328492289E+02 -0.19041009389E+00  0.21860750334E+02  0.28528271780E+02  0.00000000000E+00 0. -1.
</event>
<event>
 7    1  0.1692604E-013  0.7246156E+02  0.7816164E-02  0.1226708E+00
        -11   -1    0    0    0    0  0.00000000000E+00  0.00000000000E+00  0.45593999997E+02  0.45594000000E+02  0.51100000000E-03 0.  1.
         11   -1    0    0    0    0 -0.00000000000E+00 -0.00000000000E+00 -0.45593999997E+02  0.45594000000E+02  0.51100000000E-03 0. -1.
    9900012    2    1    2    0    0 -0.51103614405E+01 -0.97329545135E+01  0.15160252160E+02  0.72461562988E+02  0.69999990482E+02 0.  0.
         12    1    1    2    0    0  0.51103614405E+01  0.97329545135E+01 -0.15160252160E+02  0.18726437012E+02  0.00000000000E+00 0. -1.
         11    1    3    3    0    0  0.19226991197E+02 -0.19996162236E+02  0.35590904302E+01  0.27967674548E+02  0.51100000000E-03 0. -1.
        -11    1    3    3    0    0  0.65868534927E+00 -0.85639540504E+01  0.99679784223E+01  0.13158106606E+02  0.51100000000E-03 0.  1.
        -12    1    3    3    0    0 -0.24996037986E+02  0.18827161773E+02  0.16331833077E+01  0.31335781834E+02  0.00000000000E+00 0.  1.
</event>
<event>
 7    1  0.1692604E-013  0.7246149E+02  0.7816164E-02  0.1226708E+00
        -11   -1    0    0    0    0  0.00000000000E+00  0.00000000000E+00  0.45593999997E+02  0.45594000000E+02  0.51100000000E-03 0.  1.
         11   -1    0    0    0    0 -0.00000000000E+00 -0.00000000000E+00 -0.45593999997E+02  0.45594000000E+02  0.51100000000E-03 0. -1.
    9900012    2    1    2    0    0 -0.13935105972E+02 -0.75690142002E+01  0.99601732650E+01  0.72461489223E+02  0.69999894389E+02 0.  0.
         12    1    1    2    0    0  0.13935105972E+02  0.75690142002E+01 -0.99601732650E+01  0.18726510777E+02  0.00000000000E+00 0. -1.
         11    1    3    3    0    0  0.40896469606E+01  0.57563831853E+01 -0.24557741560E+02  0.25552765612E+02  0.51100000000E-03 0. -1.
        -11    1    3    3    0    0  0.31717988664E+01 -0.51390639931E+01  0.58055620665E+00  0.60669046922E+01  0.51100000000E-03 0.  1.
        -12    1    3    3    0    0 -0.21196551799E+02 -0.81863333924E+01  0.33937358618E+02  0.40841818919E+02  0.00000000000E+00 0.  1.
</event>
<event>
 7    1  0.1692604E-013  0.7246159E+02  0.7816164E-02  0.1226708E+00
        -11   -1    0    0    0    0  0.00000000000E+00  0.00000000000E+00  0.45593999997E+02  0.45594000000E+02  0.51100000000E-03 0. -1.
         11   -1    0    0    0    0 -0.00000000000E+00 -0.00000000000E+00 -0.45593999997E+02  0.45594000000E+02  0.51100000000E-03 0.  1.
    9900012    2    1    2    0    0  0.14485644708E+01  0.10087509784E+02 -0.15710579583E+02  0.72461588078E+02  0.70000023166E+02 0.  0.
         12    1    1    2    0    0 -0.14485644708E+01 -0.10087509784E+02  0.15710579583E+02  0.18726411922E+02  0.00000000000E+00 0. -1.
         11    1    3    3    0    0  0.89505914116E+01 -0.56091503553E+01 -0.71273713638E+01  0.12742647964E+02  0.51100000000E-03 0. -1.
        -11    1    3    3    0    0  0.74592296390E+01 -0.14267741817E+02 -0.18753986136E+02  0.24716807229E+02  0.51100000000E-03 0.  1.
         12    1    3    3    0    0 -0.14961256580E+02  0.29964401956E+02  0.10170777917E+02  0.35002132884E+02  0.00000000000E+00 0. -1.
</event>
<event>
 7    1  0.1692604E-013  0.7246160E+02  0.7816164E-02  0.1226708E+00
        -11   -1    0    0    0    0  0.00000000000E+00  0.00000000000E+00  0.45593999997E+02  0.45594000000E+02  0.51100000000E-03 0. -1.
         11   -1    0    0    0    0 -0.00000000000E+00 -0.00000000000E+00 -0.45593999997E+02  0.45594000000E+02  0.51100000000E-03 0.  1.
    9900012    2    1    2    0    0 -0.79460755527E+01 -0.13295421423E+02 -0.10524714110E+02  0.72461602733E+02  0.70000042257E+02 0.  0.
         12    1    1    2    0    0  0.79460755527E+01  0.13295421423E+02  0.10524714110E+02  0.18726397267E+02  0.00000000000E+00 0. -1.
         11    1    3    3    0    0  0.67141154289E+01  0.36486556046E+00 -0.20399568173E+02  0.21479172582E+02  0.51100000000E-03 0. -1.
        -11    1    3    3    0    0 -0.13987820030E+02 -0.20386053492E+02 -0.12432570041E+02  0.27673436437E+02  0.51100000000E-03 0.  1.
         12    1    3    3    0    0 -0.67237095168E+00  0.67257665077E+01  0.22307424104E+02  0.23308993714E+02  0.00000000000E+00 0. -1.
</event>
<event>
 7    1  0.1692604E-013  0.7246153E+02  0.7816164E-02  0.1226708E+00
        -11   -1    0    0    0    0  0.00000000000E+00  0.00000000000E+00  0.45593999997E+02  0.45594000000E+02  0.51100000000E-03 0. -1.
         11   -1    0    0    0    0 -0.00000000000E+00 -0.00000000000E+00 -0.45593999997E+02  0.45594000000E+02  0.51100000000E-03 0.  1.
    9900012    2    1    2    0    0 -0.18697643589E+01 -0.17963912483E+02 -0.49479816774E+01  0.72461529614E+02  0.69999947006E+02 0.  0.
         12    1    1    2    0    0  0.18697643589E+01  0.17963912483E+02  0.49479816774E+01  0.18726470386E+02  0.00000000000E+00 0. -1.
         11    1    3    3    0    0  0.20882733877E+02 -0.21771176421E+02  0.82028622274E+00  0.30178561375E+02  0.51100000000E-03 0. -1.
        -11    1    3    3    0    0 -0.29935871087E+01  0.40906764532E+01 -0.18229463040E+02  0.18921113092E+02  0.51100000000E-03 0.  1.
        -12    1    3    3    0    0 -0.19758911127E+02 -0.28341251426E+00  0.12461195140E+02  0.23361855147E+02  0.00000000000E+00 0.  1.
</event>
<event>
 7    1  0.1692604E-013  0.7246158E+02  0.7816164E-02  0.1226708E+00
        -11   -1    0    0    0    0  0.00000000000E+00  0.00000000000E+00  0.45593999997E+02  0.45594000000E+02  0.51100000000E-03 0.  1.
         11   -1    0    0    0    0 -0.00000000000E+00 -0.00000000000E+00 -0.45593999997E+02  0.45594000000E+02  0.51100000000E-03 0. -1.
    9900012    2    1    2    0    0 -0.75704695283E+00  0.25245196427E+01  0.18540028334E+02  0.72461575618E+02  0.70000006935E+02 0.  0.
         12    1    1    2    0    0  0.75704695283E+00 -0.25245196427E+01 -0.18540028334E+02  0.18726424382E+02  0.00000000000E+00 0. -1.
         11    1    3    3    0    0  0.11173893204E+02 -0.55126439893E+01 -0.31409098877E+01  0.12849531053E+02  0.51100000000E-03 0. -1.
        -11    1    3    3    0    0  0.15548151185E+02  0.87271494480E+01  0.26264462664E+02  0.31744765585E+02  0.51100000000E-03 0.  1.
         12    1    3    3    0    0 -0.27479091342E+02 -0.68998581605E+00 -0.45835244421E+01  0.27867278980E+02  0.00000000000E+00 0. -1.
</event>
<event>
 7    1  0.1692604E-013  0.7246164E+02  0.7816164E-02  0.1226708E+00
        -11   -1    0    0    0    0  0.00000000000E+00  0.00000000000E+00  0.45593999997E+02  0.45594000000E+02  0.51100000000E-03 0. -1.
         11   -1    0    0    0    0 -0.00000000000E+00 -0.00000000000E+00 -0.45593999997E+02  0.45594000000E+02  0.51100000000E-03 0.  1.
    9900012    2    1    2    0    0  0.99119181970E+00 -0.39995554326E+01 -0.18267391580E+02  0.72461641571E+02  0.70000092851E+02 0.  0.
         12    1    1    2    0    0 -0.99119181970E+00  0.39995554326E+01  0.18267391580E+02  0.18726358429E+02  0.00000000000E+00 0. -1.
         11    1    3    3    0    0  0.46366444043E+00  0.44233427568E+01  0.13993762135E+02  0.14683539246E+02  0.51100000000E-03 0. -1.
        -11    1    3    3    0    0  0.13730789817E+02  0.15407903163E+02 -0.15220443351E+02  0.25643711997E+02  0.51100000000E-03 0.  1.
         12    1    3    3    0    0 -0.13203262438E+02 -0.23830801353E+02 -0.17040710363E+02  0.32134390328E+02  0.00000000000E+00 0. -1.
</event>
<event>
 7    1  0.1692604E-013  0.7246157E+02  0.7816164E-02  0.1226708E+00
        -11   -1    0    0    0    0  0.00000000000E+00  0.00000000000E+00  0.45593999997E+02  0.45594000000E+02  0.51100000000E-03 0. -1.
         11   -1    0    0    0    0 -0.00000000000E+00 -0.00000000000E+00 -0.45593999997E+02  0.45594000000E+02  0.51100000000E-03 0.  1.
    9900012    2    1    2    0    0  0.11409994854E+02  0.76500468034E+01 -0.12726664177E+02  0.72461570021E+02  0.69999999645E+02 0.  0.
         12    1    1    2    0    0 -0.11409994854E+02 -0.76500468034E+01  0.12726664177E+02  0.18726429979E+02  0.00000000000E+00 0. -1.
         11    1    3    3    0    0 -0.18426092185E+01  0.14120854295E+02 -0.94744503183E+01  0.17104354529E+02  0.51100000000E-03 0. -1.
        -11    1    3    3    0    0 -0.43345660588E+01 -0.27036338892E+02 -0.63855001553E+01  0.28116306587E+02  0.51100000000E-03 0.  1.
         12    1    3    3    0    0  0.17587170132E+02  0.20565531400E+02  0.31332862969E+01  0.27240908906E+02  0.00000000000E+00 0. -1.
</event>
<event>
 7    1  0.1692604E-013  0.7246158E+02  0.7816164E-02  0.1226708E+00
        -11   -1    0    0    0    0  0.00000000000E+00  0.00000000000E+00  0.45593999997E+02  0.45594000000E+02  0.51100000000E-03 0.  1.
         11   -1    0    0    0    0 -0.00000000000E+00 -0.00000000000E+00 -0.45593999997E+02  0.45594000000E+02  0.51100000000E-03 0. -1.
    9900012    2    1    2    0    0  0.17164045115E+02  0.45411033428E+01  0.59542300227E+01  0.72461576971E+02  0.70000008698E+02 0.  0.
         12    1    1    2    0    0 -0.17164045115E+02 -0.45411033428E+01 -0.59542300227E+01  0.18726423029E+02  0.00000000000E+00 0. -1.
         11    1    3    3    0    0  0.11241774342E+01 -0.24081035417E+02  0.12878891716E+02  0.27331774435E+02  0.51100000000E-03 0. -1.
        -11    1    3    3    0    0  0.14060156104E+02  0.59911796833E+01 -0.14614405345E+02  0.21146230575E+02  0.51100000000E-03 0.  1.
        -12    1    3    3    0    0  0.19797115771E+01  0.22630959076E+02  0.76897436518E+01  0.23983571962E+02  0.00000000000E+00 0.  1.
</event>
<event>
 7    1  0.1692604E-013  0.7246163E+02  0.7816164E-02  0.1226708E+00
        -11   -1    0    0    0    0  0.00000000000E+00  0.00000000000E+00  0.45593999997E+02  0.45594000000E+02  0.51100000000E-03 0.  1.
         11   -1    0    0    0    0 -0.00000000000E+00 -0.00000000000E+00 -0.45593999997E+02  0.45594000000E+02  0.51100000000E-03 0. -1.
    9900012    2    1    2    0    0 -0.45068154120E+01 -0.13482246856E+02  0.12189938755E+02  0.72461628960E+02  0.70000076423E+02 0.  0.
         12    1    1    2    0    0  0.45068154120E+01  0.13482246856E+02 -0.12189938755E+02  0.18726371040E+02  0.00000000000E+00 0. -1.
         11    1    3    3    0    0  0.60450256521E+01 -0.13784667035E+02 -0.62245974950E+01  0.16288185738E+02  0.51100000000E-03 0. -1.
        -11    1    3    3    0    0 -0.15883327926E+02 -0.14054727269E+02  0.30161660481E+02  0.36871957201E+02  0.51100000000E-03 0.  1.
        -12    1    3    3    0    0  0.53314868618E+01  0.14357147447E+02 -0.11747124230E+02  0.19301486022E+02  0.00000000000E+00 0.  1.
</event>
<event>
 7    1  0.1692604E-013  0.7246158E+02  0.7816164E-02  0.1226708E+00
        -11   -1    0    0    0    0  0.00000000000E+00  0.00000000000E+00  0.45593999997E+02  0.45594000000E+02  0.51100000000E-03 0.  1.
         11   -1    0    0    0    0 -0.00000000000E+00 -0.00000000000E+00 -0.45593999997E+02  0.45594000000E+02  0.51100000000E-03 0. -1.
    9900012    2    1    2    0    0  0.14195619541E+02  0.10508962034E+00  0.12212787870E+02  0.72461578945E+02  0.70000011269E+02 0.  0.
         12    1    1    2    0    0 -0.14195619541E+02 -0.10508962034E+00 -0.12212787870E+02  0.18726421055E+02  0.00000000000E+00 0. -1.
         11    1    3    3    0    0  0.11918922235E+02  0.51578514957E+01  0.12634947925E+02  0.18119217660E+02  0.51100000000E-03 0. -1.
        -11    1    3    3    0    0  0.48168519062E+01  0.99593684116E+00  0.26336162232E+02  0.26791554524E+02  0.51100000000E-03 0.  1.
         12    1    3    3    0    0 -0.25401546004E+01 -0.60486987166E+01 -0.26758322287E+02  0.27550806760E+02  0.00000000000E+00 0. -1.
</event>
<event>
 7    1  0.1692604E-013  0.7246167E+02  0.7816164E-02  0.1226708E+00
        -11   -1    0    0    0    0  0.00000000000E+00  0.00000000000E+00  0.45593999997E+02  0.45594000000E+02  0.51100000000E-03 0. -1.
         11   -1    0    0    0    0 -0.00000000000E+00 -0.00000000000E+00 -0.45593999997E+02  0.45594000000E+02  0.51100000000E-03 0.  1.
    9900012    2    1    2    0    0 -0.97501916580E+01 -0.75847543154E+01 -0.14074108557E+02  0.72461674491E+02  0.70000135735E+02 0.  0.
         12    1    1    2    0    0  0.97501916580E+01  0.75847543154E+01  0.14074108557E+02  0.18726325509E+02  0.00000000000E+00 0. -1.
         11    1    3    3    0    0 -0.28440704166E+02  0.32806837222E+01  0.64807628823E+01  0.29353650998E+02  0.51100000000E-03 0. -1.
        -11    1    3    3    0    0 -0.73766264032E+01 -0.42746313164E+01  0.10844091554E+01  0.85943605615E+01  0.51100000000E-03 0.  1.
        -12    1    3    3    0    0  0.26067138911E+02 -0.65908067212E+01 -0.21639280595E+02  0.34513662931E+02  0.00000000000E+00 0.  1.
</event>
<event>
 7    1  0.1692604E-013  0.7246157E+02  0.7816164E-02  0.1226708E+00
        -11   -1    0    0    0    0  0.00000000000E+00  0.00000000000E+00  0.45593999997E+02  0.45594000000E+02  0.51100000000E-03 0. -1.
         11   -1    0    0    0    0 -0.00000000000E+00 -0.00000000000E+00 -0.45593999997E+02  0.45594000000E+02  0.51100000000E-03 0.  1.
    9900012    2    1    2    0    0  0.12271405226E+02  0.13907396704E+02  0.25838095364E+01  0.72461571055E+02  0.70000000991E+02 0.  0.
         12    1    1    2    0    0 -0.12271405226E+02 -0.13907396704E+02 -0.25838095364E+01  0.18726428945E+02  0.00000000000E+00 0. -1.
         11    1    3    3    0    0 -0.14850133618E+01 -0.15816328078E+02  0.11631107422E+02  0.19688680979E+02  0.51100000000E-03 0. -1.
        -11    1    3    3    0    0 -0.15756052763E+01  0.14722188231E+02  0.14636265998E+02  0.20819357361E+02  0.51100000000E-03 0.  1.
        -12    1    3    3    0    0  0.15332023864E+02  0.15001536551E+02 -0.23683563884E+02  0.31953532715E+02  0.00000000000E+00 0.  1.
</event>
<event>
 7    1  0.1692604E-013  0.7246157E+02  0.7816164E-02  0.1226708E+00
        -11   -1    0    0    0    0  0.00000000000E+00  0.00000000000E+00  0.45593999997E+02  0.45594000000E+02  0.51100000000E-03 0.  1.
         11   -1    0    0    0    0 -0.00000000000E+00 -0.00000000000E+00 -0.45593999997E+02  0.45594000000E+02  0.51100000000E-03 0. -1.
    9900012    2    1    2    0    0  0.11859710746E+02 -0.87389176168E+01  0.11561046521E+02  0.72461569033E+02  0.69999998357E+02 0.  0.
         12    1    1    2    0    0 -0.11859710746E+02  0.87389176168E+01 -0.11561046521E+02  0.18726430967E+02  0.00000000000E+00 0. -1.
         11    1    3    3    0    0  0.40392704472E+00  0.76469119666E+01 -0.16027011391E+02  0.17762418587E+02  0.51100000000E-03 0. -1.
        -11    1    3    3    0    0 -0.14232232747E+02 -0.16065903192E+02  0.14137867573E+02  0.25701147720E+02  0.51100000000E-03 0.  1.
        -12    1    3    3    0    0  0.25688016448E+02 -0.31992639156E+00  0.13450190339E+02  0.28998002726E+02  0.00000000000E+00 0.  1.
</event>
<event>
 7    1  0.1692604E-013  0.7246157E+02  0.7816164E-02  0.1226708E+00
        -11   -1    0    0    0    0  0.00000000000E+00  0.00000000000E+00  0.45593999997E+02  0.45594000000E+02  0.51100000000E-03 0. -1.
         11   -1    0    0    0    0 -0.00000000000E+00 -0.00000000000E+00 -0.45593999997E+02  0.45594000000E+02  0.51100000000E-03 0.  1.
    9900012    2    1    2    0    0  0.12600607503E+02  0.61866698994E+01 -0.12394718511E+02  0.72461568390E+02  0.69999997519E+02 0.  0.
         12    1    1    2    0    0 -0.12600607503E+02 -0.61866698994E+01  0.12394718511E+02  0.18726431610E+02  0.00000000000E+00 0. -1.
         11    1    3    3    0    0 -0.13547954538E+01 -0.36269328335E+01 -0.25754426251E+01  0.46500556423E+01  0.51100000000E-03 0. -1.
        -11    1    3    3    0    0  0.22022196590E+02  0.12296256857E+02 -0.33923297721E+02  0.42272511208E+02  0.51100000000E-03 0.  1.
         12    1    3    3    0    0 -0.80667936331E+01 -0.24826541242E+01  0.24104021834E+02  0.25539001539E+02  0.00000000000E+00 0. -1.
</event>
<event>
 7    1  0.1692604E-013  0.7246148E+02  0.7816164E-02  0.1226708E+00
        -11   -1    0    0    0    0  0.00000000000E+00  0.00000000000E+00  0.45593999997E+02  0.45594000000E+02  0.51100000000E-03 0. -1.
         11   -1    0    0    0    0 -0.00000000000E+00 -0.00000000000E+00 -0.45593999997E+02  0.45594000000E+02  0.51100000000E-03 0.  1.
    9900012    2    1    2    0    0 -0.80210999037E+01  0.35153225736E+01 -0.16552553589E+02  0.72461479587E+02  0.69999881837E+02 0.  0.
         12    1    1    2    0    0  0.80210999037E+01 -0.35153225736E+01  0.16552553589E+02  0.18726520413E+02  0.00000000000E+00 0. -1.
         11    1    3    3    0    0 -0.11367955083E+02 -0.19412585571E+02 -0.93151422107E+01  0.24348526772E+02  0.51100000000E-03 0.  1.
        -11    1    3    3    0    0 -0.29398528805E+01 -0.51184407176E+01  0.12105610505E+02  0.13467998229E+02  0.51100000000E-03 0. -1.
         12    1    3    3    0    0  0.62867080594E+01  0.28046348862E+02 -0.19343021883E+02  0.34644954586E+02  0.00000000000E+00 0. -1.
</event>
<event>
 7    1  0.1692604E-013  0.7246157E+02  0.7816164E-02  0.1226708E+00
        -11   -1    0    0    0    0  0.00000000000E+00  0.00000000000E+00  0.45593999997E+02  0.45594000000E+02  0.51100000000E-03 0. -1.
         11   -1    0    0    0    0 -0.00000000000E+00 -0.00000000000E+00 -0.45593999997E+02  0.45594000000E+02  0.51100000000E-03 0.  1.
    9900012    2    1    2    0    0 -0.15843948987E+02  0.74899778556E+01 -0.65991479830E+01  0.72461568362E+02  0.69999997483E+02 0.  0.
         12    1    1    2    0    0  0.15843948987E+02 -0.74899778556E+01  0.65991479830E+01  0.18726431638E+02  0.00000000000E+00 0. -1.
         11    1    3    3    0    0 -0.13321066668E+02  0.23137138735E+00  0.89088030357E+00  0.13352828085E+02  0.51100000000E-03 0. -1.
        -11    1    3    3    0    0 -0.29678944536E+02  0.61554942732E+01 -0.97406795427E+01  0.31837253285E+02  0.51100000000E-03 0.  1.
         12    1    3    3    0    0  0.27156062217E+02  0.11031121951E+01  0.22506512561E+01  0.27271486992E+02  0.00000000000E+00 0. -1.
</event>
<event>
 7    1  0.1692604E-013  0.7246155E+02  0.7816164E-02  0.1226708E+00
        -11   -1    0    0    0    0  0.00000000000E+00  0.00000000000E+00  0.45593999997E+02  0.45594000000E+02  0.51100000000E-03 0.  1.
         11   -1    0    0    0    0 -0.00000000000E+00 -0.00000000000E+00 -0.45593999997E+02  0.45594000000E+02  0.51100000000E-03 0. -1.
    9900012    2    1    2    0    0  0.15391299819E+02  0.51532764489E+01  0.93397778014E+01  0.72461552989E+02  0.69999977456E+02 0.  0.
         12    1    1    2    0    0 -0.15391299819E+02 -0.51532764489E+01 -0.93397778014E+01  0.18726447011E+02  0.00000000000E+00 0. -1.
         11    1    3    3    0    0  0.12666914956E+02  0.16163851735E+02 -0.16091674144E+02  0.26089515412E+02  0.51100000000E-03 0. -1.
        -11    1    3    3    0    0  0.25411841551E+01 -0.11240864422E+02 -0.72982052541E+01  0.13641057512E+02  0.51100000000E-03 0.  1.
         12    1    3    3    0    0  0.18320070885E+00  0.23028913642E+00  0.32729657200E+02  0.32730980065E+02  0.00000000000E+00 0. -1.
</event>
<event>
 7    1  0.1692604E-013  0.7246159E+02  0.7816164E-02  0.1226708E+00
        -11   -1    0    0    0    0  0.00000000000E+00  0.00000000000E+00  0.45593999997E+02  0.45594000000E+02  0.51100000000E-03 0. -1.
         11   -1    0    0    0    0 -0.00000000000E+00 -0.00000000000E+00 -0.45593999997E+02  0.45594000000E+02  0.51100000000E-03 0.  1.
    9900012    2    1    2    0    0  0.13949876489E+02  0.12229137250E+02 -0.25549080493E+01  0.72461590652E+02  0.70000026519E+02 0.  0.
         12    1    1    2    0    0 -0.13949876489E+02 -0.12229137250E+02  0.25549080493E+01  0.18726409348E+02  0.00000000000E+00 0. -1.
         11    1    3    3    0    0  0.24555855848E+02  0.12638429721E+02 -0.34301705337E+01  0.27829589152E+02  0.51100000000E-03 0. -1.
        -11    1    3    3    0    0  0.28362359167E+01 -0.13553113769E+02  0.15521339093E+02  0.20800074387E+02  0.51100000000E-03 0.  1.
         12    1    3    3    0    0 -0.13442215276E+02  0.13143821298E+02 -0.14646076609E+02  0.23831927112E+02  0.00000000000E+00 0. -1.
</event>
<event>
 7    1  0.1692604E-013  0.7246156E+02  0.7816164E-02  0.1226708E+00
        -11   -1    0    0    0    0  0.00000000000E+00  0.00000000000E+00  0.45593999997E+02  0.45594000000E+02  0.51100000000E-03 0.  1.
         11   -1    0    0    0    0 -0.00000000000E+00 -0.00000000000E+00 -0.45593999997E+02  0.45594000000E+02  0.51100000000E-03 0. -1.
    9900012    2    1    2    0    0  0.18135337678E+02  0.22234321981E+01  0.41043137805E+01  0.72461561069E+02  0.69999987983E+02 0.  0.
         12    1    1    2    0    0 -0.18135337678E+02 -0.22234321981E+01 -0.41043137805E+01  0.18726438931E+02  0.00000000000E+00 0. -1.
         11    1    3    3    0    0  0.11654424736E+02 -0.23983432661E+02 -0.11980828588E+02  0.29233044865E+02  0.51100000000E-03 0. -1.
        -11    1    3    3    0    0  0.53923589311E+01 -0.58888082349E+01  0.38262787598E+01  0.88541519457E+01  0.51100000000E-03 0.  1.
        -12    1    3    3    0    0  0.10885540103E+01  0.32095673094E+02  0.12258863609E+02  0.34374364259E+02  0.00000000000E+00 0.  1.
</event>
<event>
 7    1  0.1692604E-013  0.7246155E+02  0.7816164E-02  0.1226708E+00
        -11   -1    0    0    0    0  0.00000000000E+00  0.00000000000E+00  0.45593999997E+02  0.45594000000E+02  0.51100000000E-03 0. -1.
         11   -1    0    0    0    0 -0.00000000000E+00 -0.00000000000E+00 -0.45593999997E+02  0.45594000000E+02  0.51100000000E-03 0.  1.
    9900012    2    1    2    0    0  0.13939533257E+02 -0.91139503571E+01 -0.85618475392E+01  0.72461550475E+02  0.69999974182E+02 0.  0.
         12    1    1    2    0    0 -0.13939533257E+02  0.91139503571E+01  0.85618475392E+01  0.18726449525E+02  0.00000000000E+00 0. -1.
         11    1    3    3    0    0  0.26026242172E+02 -0.16500063983E+02 -0.18011078645E+01  0.30868452874E+02  0.51100000000E-03 0. -1.
        -11    1    3    3    0    0  0.66559137570E+01 -0.12157109283E+02 -0.90728132040E+00  0.13889551962E+02  0.51100000000E-03 0.  1.
        -12    1    3    3    0    0 -0.18742622672E+02  0.19543222908E+02 -0.58534583543E+01  0.27703545639E+02  0.00000000000E+00 0.  1.
</event>
<event>
 7    1  0.1692604E-013  0.7246160E+02  0.7816164E-02  0.1226708E+00
        -11   -1    0    0    0    0  0.00000000000E+00  0.00000000000E+00  0.45593999997E+02  0.45594000000E+02  0.51100000000E-03 0. -1.
         11   -1    0    0    0    0 -0.00000000000E+00 -0.00000000000E+00 -0.45593999997E+02  0.45594000000E+02  0.51100000000E-03 0.  1.
    9900012    2    1    2    0    0 -0.13357630331E+02 -0.63406145813E+01 -0.11491222993E+02  0.72461604533E+02  0.70000044602E+02 0.  0.
         12    1    1    2    0    0  0.13357630331E+02  0.63406145813E+01  0.11491222993E+02  0.18726395467E+02  0.00000000000E+00 0. -1.
         11    1    3    3    0    0 -0.14745000747E+02 -0.23237248189E+02 -0.63375930985E+01  0.28240924860E+02  0.51100000000E-03 0. -1.
        -11    1    3    3    0    0  0.99965683269E+01 -0.10913478379E+02 -0.13563669360E+01  0.14861867991E+02  0.51100000000E-03 0.  1.
         12    1    3    3    0    0 -0.86091979108E+01  0.27810111987E+02 -0.37972629586E+01  0.29358811682E+02  0.00000000000E+00 0. -1.
</event>
<event>
 7    1  0.1692604E-013  0.7246142E+02  0.7816164E-02  0.1226708E+00
        -11   -1    0    0    0    0  0.00000000000E+00  0.00000000000E+00  0.45593999997E+02  0.45594000000E+02  0.51100000000E-03 0.  1.
         11   -1    0    0    0    0 -0.00000000000E+00 -0.00000000000E+00 -0.45593999997E+02  0.45594000000E+02  0.51100000000E-03 0. -1.
    9900012    2    1    2    0    0  0.17733314841E+02  0.53727758401E+01  0.27106421839E+01  0.72461421120E+02  0.69999805673E+02 0.  0.
         12    1    1    2    0    0 -0.17733314841E+02 -0.53727758401E+01 -0.27106421839E+01  0.18726578880E+02  0.00000000000E+00 0. -1.
         11    1    3    3    0    0  0.10486796733E+02 -0.84929295438E+01  0.28499201769E+01  0.13792200812E+02  0.51100000000E-03 0. -1.
        -11    1    3    3    0    0  0.28804759125E+02  0.83459709681E+01  0.13154009164E+02  0.32747478330E+02  0.51100000000E-03 0.  1.
        -12    1    3    3    0    0 -0.21558241017E+02  0.55197344158E+01 -0.13293287157E+02  0.25921741978E+02  0.00000000000E+00 0.  1.
</event>
<event>
 7    1  0.1692604E-013  0.7246151E+02  0.7816164E-02  0.1226708E+00
        -11   -1    0    0    0    0  0.00000000000E+00  0.00000000000E+00  0.45593999997E+02  0.45594000000E+02  0.51100000000E-03 0. -1.
         11   -1    0    0    0    0 -0.00000000000E+00 -0.00000000000E+00 -0.45593999997E+02  0.45594000000E+02  0.51100000000E-03 0.  1.
    9900012    2    1    2    0    0  0.10638873198E+02 -0.13368929393E+02 -0.76659997727E+01  0.72461509444E+02  0.69999920732E+02 0.  0.
         12    1    1    2    0    0 -0.10638873198E+02  0.13368929393E+02  0.76659997727E+01  0.18726490556E+02  0.00000000000E+00 0. -1.
         11    1    3    3    0    0  0.11444168725E+02 -0.15888509314E+02  0.23177356942E+02  0.30341450214E+02  0.51100000000E-03 0. -1.
        -11    1    3    3    0    0  0.26719871963E+01  0.33060710110E+01  0.47352097024E+01  0.63633192828E+01  0.51100000000E-03 0.  1.
        -12    1    3    3    0    0 -0.34772827233E+01 -0.78649108951E+00 -0.35578566417E+02  0.35756739947E+02  0.00000000000E+00 0.  1.
</event>
<event>
 7    1  0.1692604E-013  0.7246157E+02  0.7816164E-02  0.1226708E+00
        -11   -1    0    0    0    0  0.00000000000E+00  0.00000000000E+00  0.45593999997E+02  0.45594000000E+02  0.51100000000E-03 0.  1.
         11   -1    0    0    0    0 -0.00000000000E+00 -0.00000000000E+00 -0.45593999997E+02  0.45594000000E+02  0.51100000000E-03 0. -1.
    9900012    2    1    2    0    0  0.25400293753E+01 -0.59941938253E+01  0.17558394424E+02  0.72461566181E+02  0.69999994641E+02 0.  0.
         12    1    1    2    0    0 -0.25400293753E+01  0.59941938253E+01 -0.17558394424E+02  0.18726433819E+02  0.00000000000E+00 0. -1.
         11    1    3    3    0    0  0.12466794362E+02  0.71138784351E+01  0.16328633532E+02  0.21740572701E+02  0.51100000000E-03 0. -1.
        -11    1    3    3    0    0  0.18743097082E+01  0.17271863257E+02  0.45545327796E+01  0.17960347056E+02  0.51100000000E-03 0.  1.
         12    1    3    3    0    0 -0.11801074695E+02 -0.30379935518E+02 -0.33247718875E+01  0.32760646424E+02  0.00000000000E+00 0. -1.
</event>
<event>
 7    1  0.1692604E-013  0.7246173E+02  0.7816164E-02  0.1226708E+00
        -11   -1    0    0    0    0  0.00000000000E+00  0.00000000000E+00  0.45593999997E+02  0.45594000000E+02  0.51100000000E-03 0.  1.
         11   -1    0    0    0    0 -0.00000000000E+00 -0.00000000000E+00 -0.45593999997E+02  0.45594000000E+02  0.51100000000E-03 0. -1.
    9900012    2    1    2    0    0 -0.29854688932E+00  0.42490631630E+01  0.18235386924E+02  0.72461734908E+02  0.70000214440E+02 0.  0.
         12    1    1    2    0    0  0.29854688932E+00 -0.42490631630E+01 -0.18235386924E+02  0.18726265092E+02  0.00000000000E+00 0. -1.
         11    1    3    3    0    0 -0.15017132086E+02 -0.25393613844E+02  0.11378970978E+02  0.31620102165E+02  0.51100000000E-03 0. -1.
        -11    1    3    3    0    0 -0.36580715034E+00  0.15828533505E+02 -0.57155343223E+01  0.16832813807E+02  0.51100000000E-03 0.  1.
        -12    1    3    3    0    0  0.15084392347E+02  0.13814143502E+02  0.12571950268E+02  0.24008818936E+02  0.00000000000E+00 0.  1.
</event>
<event>
 7    1  0.1692604E-013  0.7246145E+02  0.7816164E-02  0.1226708E+00
        -11   -1    0    0    0    0  0.00000000000E+00  0.00000000000E+00  0.45593999997E+02  0.45594000000E+02  0.51100000000E-03 0. -1.
         11   -1    0    0    0    0 -0.00000000000E+00 -0.00000000000E+00 -0.45593999997E+02  0.45594000000E+02  0.51100000000E-03 0.  1.
    9900012    2    1    2    0    0  0.97773129163E+01  0.14192168464E+02 -0.73259912478E+01  0.72461450896E+02  0.69999844461E+02 0.  0.
         12    1    1    2    0    0 -0.97773129163E+01 -0.14192168464E+02  0.73259912478E+01  0.18726549104E+02  0.00000000000E+00 0. -1.
         11    1    3    3    0    0 -0.61978473378E+01  0.44066584391E+01 -0.70642887777E+01  0.10379601458E+02  0.51100000000E-03 0.  1.
        -11    1    3    3    0    0  0.89595619942E+01  0.34776501505E+02  0.23790827858E+01  0.35990816096E+02  0.51100000000E-03 0. -1.
         12    1    3    3    0    0  0.70155982600E+01 -0.24990991480E+02 -0.26407852559E+01  0.26091033342E+02  0.00000000000E+00 0. -1.
</event>
<event>
 7    1  0.1692604E-013  0.7246154E+02  0.7816164E-02  0.1226708E+00
        -11   -1    0    0    0    0  0.00000000000E+00  0.00000000000E+00  0.45593999997E+02  0.45594000000E+02  0.51100000000E-03 0.  1.
         11   -1    0    0    0    0 -0.00000000000E+00 -0.00000000000E+00 -0.45593999997E+02  0.45594000000E+02  0.51100000000E-03 0. -1.
    9900012    2    1    2    0    0 -0.28334166413E+01  0.10075848239E+02  0.15528342118E+02  0.72461538067E+02  0.69999958018E+02 0.  0.
         12    1    1    2    0    0  0.28334166413E+01 -0.10075848239E+02 -0.15528342118E+02  0.18726461933E+02  0.00000000000E+00 0. -1.
         11    1    3    3    0    0  0.16030392081E+01  0.83068254080E+01  0.87890287347E+01  0.12199184785E+02  0.51100000000E-03 0. -1.
        -11    1    3    3    0    0 -0.18335037070E+02 -0.82454049879E-01  0.28789149098E+02  0.34132030252E+02  0.51100000000E-03 0.  1.
         12    1    3    3    0    0  0.13898581221E+02  0.18514768811E+01 -0.22049835715E+02  0.26130323030E+02  0.00000000000E+00 0. -1.
</event>
<event>
 7    1  0.1692604E-013  0.7246163E+02  0.7816164E-02  0.1226708E+00
        -11   -1    0    0    0    0  0.00000000000E+00  0.00000000000E+00  0.45593999997E+02  0.45594000000E+02  0.51100000000E-03 0. -1.
         11   -1    0    0    0    0 -0.00000000000E+00 -0.00000000000E+00 -0.45593999997E+02  0.45594000000E+02  0.51100000000E-03 0.  1.
    9900012    2    1    2    0    0 -0.67493154097E+01 -0.38658044514E+01 -0.17034642750E+02  0.72461634731E+02  0.70000083941E+02 0.  0.
         12    1    1    2    0    0  0.67493154097E+01  0.38658044514E+01  0.17034642750E+02  0.18726365269E+02  0.00000000000E+00 0. -1.
         11    1    3    3    0    0 -0.10761479507E+02 -0.10429010251E+02  0.65694663398E-01  0.14985927134E+02  0.51100000000E-03 0. -1.
        -11    1    3    3    0    0  0.21188805725E+02 -0.15874254610E+02 -0.62230091093E+01  0.27197119151E+02  0.51100000000E-03 0.  1.
         12    1    3    3    0    0 -0.17176641627E+02  0.22437460410E+02 -0.10877328304E+02  0.30278588446E+02  0.00000000000E+00 0. -1.
</event>
<event>
 7    1  0.1692604E-013  0.7246157E+02  0.7816164E-02  0.1226708E+00
        -11   -1    0    0    0    0  0.00000000000E+00  0.00000000000E+00  0.45593999997E+02  0.45594000000E+02  0.51100000000E-03 0. -1.
         11   -1    0    0    0    0 -0.00000000000E+00 -0.00000000000E+00 -0.45593999997E+02  0.45594000000E+02  0.51100000000E-03 0.  1.
    9900012    2    1    2    0    0 -0.14067992272E+02  0.10486574107E+02 -0.65423620949E+01  0.72461570953E+02  0.70000000858E+02 0.  0.
         12    1    1    2    0    0  0.14067992272E+02 -0.10486574107E+02  0.65423620949E+01  0.18726429047E+02  0.00000000000E+00 0. -1.
         11    1    3    3    0    0 -0.18214269761E+02  0.14913998902E+02 -0.13656498246E+02  0.27215564128E+02  0.51100000000E-03 0. -1.
        -11    1    3    3    0    0 -0.11592798145E+02  0.58257431743E+01 -0.12550647985E+02  0.18051343924E+02  0.51100000000E-03 0.  1.
         12    1    3    3    0    0  0.15739075634E+02 -0.10253167970E+02  0.19664784136E+02  0.27194662902E+02  0.00000000000E+00 0. -1.
</event>
<event>
 7    1  0.1692604E-013  0.7246153E+02  0.7816164E-02  0.1226708E+00
        -11   -1    0    0    0    0  0.00000000000E+00  0.00000000000E+00  0.45593999997E+02  0.45594000000E+02  0.51100000000E-03 0.  1.
         11   -1    0    0    0    0 -0.00000000000E+00 -0.00000000000E+00 -0.45593999997E+02  0.45594000000E+02  0.51100000000E-03 0. -1.
    9900012    2    1    2    0    0 -0.17320602617E+01 -0.18638131735E+02 -0.54823587957E+00  0.72461533438E+02  0.69999951988E+02 0.  0.
         12    1    1    2    0    0  0.17320602617E+01  0.18638131735E+02  0.54823587957E+00  0.18726466562E+02  0.00000000000E+00 0. -1.
         11    1    3    3    0    0 -0.10571056432E+02 -0.26000127610E+02  0.34407897059E+01  0.28277073821E+02  0.51100000000E-03 0. -1.
        -11    1    3    3    0    0  0.76215539614E+01 -0.12251650276E+02  0.12065561077E+02  0.18808742213E+02  0.51100000000E-03 0.  1.
         12    1    3    3    0    0  0.12174422093E+01  0.19613646151E+02 -0.16054586662E+02  0.25375717404E+02  0.00000000000E+00 0. -1.
</event>
<event>
 7    1  0.1692604E-013  0.7246154E+02  0.7816164E-02  0.1226708E+00
        -11   -1    0    0    0    0  0.00000000000E+00  0.00000000000E+00  0.45593999997E+02  0.45594000000E+02  0.51100000000E-03 0. -1.
         11   -1    0    0    0    0 -0.00000000000E+00 -0.00000000000E+00 -0.45593999997E+02  0.45594000000E+02  0.51100000000E-03 0.  1.
    9900012    2    1    2    0    0 -0.43970860310E+01  0.16900343116E+02  0.67619863486E+01  0.72461536843E+02  0.69999956424E+02 0.  0.
         12    1    1    2    0    0  0.43970860310E+01 -0.16900343116E+02 -0.67619863486E+01  0.18726463157E+02  0.00000000000E+00 0. -1.
         11    1    3    3    0    0 -0.27072009267E+02  0.19565043795E+02  0.76673006501E+01  0.34270572274E+02  0.51100000000E-03 0. -1.
        -11    1    3    3    0    0 -0.59062589152E+01  0.22664897524E+01  0.56206015338E+01  0.84623892627E+01  0.51100000000E-03 0.  1.
         12    1    3    3    0    0  0.28581182151E+02 -0.49311904321E+01 -0.65259158352E+01  0.29728575306E+02  0.00000000000E+00 0. -1.
</event>
<event>
 7    1  0.1692604E-013  0.7246178E+02  0.7816164E-02  0.1226707E+00
        -11   -1    0    0    0    0  0.00000000000E+00  0.00000000000E+00  0.45593999997E+02  0.45594000000E+02  0.51100000000E-03 0.  1.
         11   -1    0    0    0    0 -0.00000000000E+00 -0.00000000000E+00 -0.45593999997E+02  0.45594000000E+02  0.51100000000E-03 0. -1.
    9900012    2    1    2    0    0 -0.13632369959E+02 -0.11072903814E+02  0.64977504545E+01  0.72461775860E+02  0.70000267787E+02 0.  0.
         12    1    1    2    0    0  0.13632369959E+02  0.11072903814E+02 -0.64977504545E+01  0.18726224140E+02  0.00000000000E+00 0. -1.
         11    1    3    3    0    0  0.24928581425E+01  0.79894525352E+01 -0.26188907300E+02  0.27493718544E+02  0.51100000000E-03 0. -1.
        -11    1    3    3    0    0  0.21225761998E+01 -0.51966173110E+01  0.75608667148E+00  0.56640823190E+01  0.51100000000E-03 0.  1.
        -12    1    3    3    0    0 -0.18247804301E+02 -0.13865739038E+02  0.31930571083E+02  0.39303974997E+02  0.00000000000E+00 0.  1.
</event>
<event>
 7    1  0.1692604E-013  0.7246156E+02  0.7816164E-02  0.1226708E+00
        -11   -1    0    0    0    0  0.00000000000E+00  0.00000000000E+00  0.45593999997E+02  0.45594000000E+02  0.51100000000E-03 0.  1.
         11   -1    0    0    0    0 -0.00000000000E+00 -0.00000000000E+00 -0.45593999997E+02  0.45594000000E+02  0.51100000000E-03 0. -1.
    9900012    2    1    2    0    0  0.16682825928E+02 -0.36427249060E+01  0.76872184845E+01  0.72461562707E+02  0.69999990116E+02 0.  0.
         12    1    1    2    0    0 -0.16682825928E+02  0.36427249060E+01 -0.76872184845E+01  0.18726437293E+02  0.00000000000E+00 0. -1.
         11    1    3    3    0    0  0.47727144169E+01  0.83053943921E+01 -0.17071265117E+02  0.19575149344E+02  0.51100000000E-03 0. -1.
        -11    1    3    3    0    0 -0.12901430201E+02  0.76469598824E+01  0.62211602282E+01  0.16236555408E+02  0.51100000000E-03 0.  1.
         12    1    3    3    0    0  0.24811541712E+02 -0.19595079180E+02  0.18537323373E+02  0.36649857954E+02  0.00000000000E+00 0. -1.
</event>
<event>
 7    1  0.1692604E-013  0.7246168E+02  0.7816164E-02  0.1226708E+00
        -11   -1    0    0    0    0  0.00000000000E+00  0.00000000000E+00  0.45593999997E+02  0.45594000000E+02  0.51100000000E-03 0. -1.
         11   -1    0    0    0    0 -0.00000000000E+00 -0.00000000000E+00 -0.45593999997E+02  0.45594000000E+02  0.51100000000E-03 0.  1.
    9900012    2    1    2    0    0 -0.91922662851E+01  0.15750290240E+02  0.42550855228E+01  0.72461677485E+02  0.70000139636E+02 0.  0.
         12    1    1    2    0    0  0.91922662851E+01 -0.15750290240E+02 -0.42550855228E+01  0.18726322515E+02  0.00000000000E+00 0. -1.
         11    1    3    3    0    0 -0.49413044168E+01  0.18187518466E+02  0.19925341849E+02  0.27426657933E+02  0.51100000000E-03 0. -1.
        -11    1    3    3    0    0 -0.64063354573E+01 -0.11145284576E+02  0.10985783219E+02  0.16909935998E+02  0.51100000000E-03 0.  1.
        -12    1    3    3    0    0  0.21553735889E+01  0.87080563507E+01 -0.26656039545E+02  0.28125083555E+02  0.00000000000E+00 0.  1.
</event>
<event>
 7    1  0.1692604E-013  0.7246176E+02  0.7816164E-02  0.1226707E+00
        -11   -1    0    0    0    0  0.00000000000E+00  0.00000000000E+00  0.45593999997E+02  0.45594000000E+02  0.51100000000E-03 0. -1.
         11   -1    0    0    0    0 -0.00000000000E+00 -0.00000000000E+00 -0.45593999997E+02  0.45594000000E+02  0.51100000000E-03 0.  1.
    9900012    2    1    2    0    0 -0.15191358896E+01 -0.14093498057E+02 -0.12236726245E+02  0.72461763578E+02  0.70000251787E+02 0.  0.
         12    1    1    2    0    0  0.15191358896E+01  0.14093498057E+02  0.12236726245E+02  0.18726236422E+02  0.00000000000E+00 0. -1.
         11    1    3    3    0    0  0.56816697900E+01 -0.59656296030E+01  0.12191217202E+02  0.14713799146E+02  0.51100000000E-03 0. -1.
        -11    1    3    3    0    0  0.12173966174E+02  0.14987120919E+02 -0.19025450716E+02  0.27106955216E+02  0.51100000000E-03 0.  1.
         12    1    3    3    0    0 -0.19374771854E+02 -0.23114989373E+02 -0.54024927310E+01  0.30641009217E+02  0.00000000000E+00 0. -1.
</event>
<event>
 7    1  0.1692604E-013  0.7246165E+02  0.7816164E-02  0.1226708E+00
        -11   -1    0    0    0    0  0.00000000000E+00  0.00000000000E+00  0.45593999997E+02  0.45594000000E+02  0.51100000000E-03 0. -1.
         11   -1    0    0    0    0 -0.00000000000E+00 -0.00000000000E+00 -0.45593999997E+02  0.45594000000E+02  0.51100000000E-03 0.  1.
    9900012    2    1    2    0    0  0.16349292162E+02  0.50832360881E+01 -0.75853591556E+01  0.72461646462E+02  0.70000099222E+02 0.  0.
         12    1    1    2    0    0 -0.16349292162E+02 -0.50832360881E+01  0.75853591556E+01  0.18726353538E+02  0.00000000000E+00 0. -1.
         11    1    3    3    0    0  0.21310395147E+02 -0.25771371995E+02 -0.37005527438E+01  0.33645068683E+02  0.51100000000E-03 0. -1.
        -11    1    3    3    0    0  0.21665491474E+01  0.28065582560E+01  0.70409745106E+01  0.78832751298E+01  0.51100000000E-03 0.  1.
        -12    1    3    3    0    0 -0.71276521326E+01  0.28048049827E+02 -0.10925780922E+02  0.30933302649E+02  0.00000000000E+00 0.  1.
</event>
<event>
 7    1  0.1692604E-013  0.7246155E+02  0.7816164E-02  0.1226708E+00
        -11   -1    0    0    0    0  0.00000000000E+00  0.00000000000E+00  0.45593999997E+02  0.45594000000E+02  0.51100000000E-03 0.  1.
         11   -1    0    0    0    0 -0.00000000000E+00 -0.00000000000E+00 -0.45593999997E+02  0.45594000000E+02  0.51100000000E-03 0. -1.
    9900012    2    1    2    0    0 -0.41695558694E+01  0.17736569780E+01  0.18170002655E+02  0.72461546740E+02  0.69999969316E+02 0.  0.
         12    1    1    2    0    0  0.41695558694E+01 -0.17736569780E+01 -0.18170002655E+02  0.18726453260E+02  0.00000000000E+00 0. -1.
         11    1    3    3    0    0  0.24547741355E+02 -0.34409997737E+01  0.80810123564E+01  0.26071725030E+02  0.51100000000E-03 0.  1.
        -11    1    3    3    0    0  0.42786529561E+00 -0.87549908568E+01  0.10989546992E+02  0.14057136158E+02  0.51100000000E-03 0. -1.
        -12    1    3    3    0    0 -0.29145162520E+02  0.13969647609E+02 -0.90055669348E+00  0.32332685552E+02  0.00000000000E+00 0.  1.
</event>
<event>
 7    1  0.1692604E-013  0.7246160E+02  0.7816164E-02  0.1226708E+00
        -11   -1    0    0    0    0  0.00000000000E+00  0.00000000000E+00  0.45593999997E+02  0.45594000000E+02  0.51100000000E-03 0. -1.
         11   -1    0    0    0    0 -0.00000000000E+00 -0.00000000000E+00 -0.45593999997E+02  0.45594000000E+02  0.51100000000E-03 0.  1.
    9900012    2    1    2    0    0 -0.77933342566E+01 -0.15931948717E+02  0.60095657077E+01  0.72461603424E+02  0.70000043157E+02 0.  0.
         12    1    1    2    0    0  0.77933342566E+01  0.15931948717E+02 -0.60095657077E+01  0.18726396576E+02  0.00000000000E+00 0. -1.
         11    1    3    3    0    0  0.60146891722E+01 -0.10879692000E+02  0.23908237885E+02  0.26947133853E+02  0.51100000000E-03 0. -1.
        -11    1    3    3    0    0  0.13411358036E+02 -0.16411301690E+01 -0.10472545020E+02  0.17094795467E+02  0.51100000000E-03 0.  1.
        -12    1    3    3    0    0 -0.27219381465E+02 -0.34111265473E+01 -0.74261271567E+01  0.28419674104E+02  0.00000000000E+00 0.  1.
</event>
<event>
 7    1  0.1692604E-013  0.7246157E+02  0.7816164E-02  0.1226708E+00
        -11   -1    0    0    0    0  0.00000000000E+00  0.00000000000E+00  0.45593999997E+02  0.45594000000E+02  0.51100000000E-03 0. -1.
         11   -1    0    0    0    0 -0.00000000000E+00 -0.00000000000E+00 -0.45593999997E+02  0.45594000000E+02  0.51100000000E-03 0.  1.
    9900012    2    1    2    0    0  0.78664792335E+01 -0.25024654190E+01 -0.16808784285E+02  0.72461573276E+02  0.70000003885E+02 0.  0.
         12    1    1    2    0    0 -0.78664792335E+01  0.25024654190E+01  0.16808784285E+02  0.18726426724E+02  0.00000000000E+00 0. -1.
         11    1    3    3    0    0  0.11814162879E+02 -0.15820257035E+01  0.57545486484E+01  0.13236014516E+02  0.51100000000E-03 0. -1.
        -11    1    3    3    0    0  0.18814338500E+02 -0.26273584453E+01  0.83891105174E+01  0.20766788898E+02  0.51100000000E-03 0.  1.
         12    1    3    3    0    0 -0.22762022146E+02  0.17069187298E+01 -0.30952443451E+02  0.38458769862E+02  0.00000000000E+00 0. -1.
</event>
<event>
 7    1  0.1692604E-013  0.7246157E+02  0.7816164E-02  0.1226708E+00
        -11   -1    0    0    0    0  0.00000000000E+00  0.00000000000E+00  0.45593999997E+02  0.45594000000E+02  0.51100000000E-03 0.  1.
         11   -1    0    0    0    0 -0.00000000000E+00 -0.00000000000E+00 -0.45593999997E+02  0.45594000000E+02  0.51100000000E-03 0. -1.
    9900012    2    1    2    0    0 -0.20636702428E+01  0.17153674857E+02  0.72230092902E+01  0.72461570571E+02  0.70000000360E+02 0.  0.
         12    1    1    2    0    0  0.20636702428E+01 -0.17153674857E+02 -0.72230092902E+01  0.18726429429E+02  0.00000000000E+00 0. -1.
         11    1    3    3    0    0  0.12274332853E+02  0.15840369551E+02 -0.16506177462E+02  0.25962096394E+02  0.51100000000E-03 0. -1.
        -11    1    3    3    0    0 -0.11460656676E+02 -0.57795696124E+01 -0.71453065258E+01  0.14690319328E+02  0.51100000000E-03 0.  1.
        -12    1    3    3    0    0 -0.28773464199E+01  0.70928749181E+01  0.30874493278E+02  0.31809154849E+02  0.00000000000E+00 0.  1.
</event>
<event>
 7    1  0.1692604E-013  0.7246157E+02  0.7816164E-02  0.1226708E+00
        -11   -1    0    0    0    0  0.00000000000E+00  0.00000000000E+00  0.45593999997E+02  0.45594000000E+02  0.51100000000E-03 0.  1.
         11   -1    0    0    0    0 -0.00000000000E+00 -0.00000000000E+00 -0.45593999997E+02  0.45594000000E+02  0.51100000000E-03 0. -1.
    9900012    2    1    2    0    0 -0.38960632640E+01  0.13926391131E+02  0.11897708867E+02  0.72461570677E+02  0.70000000499E+02 0.  0.
         12    1    1    2    0    0  0.38960632640E+01 -0.13926391131E+02 -0.11897708867E+02  0.18726429323E+02  0.00000000000E+00 0. -1.
         11    1    3    3    0    0 -0.52337731557E+01  0.37468184807E+01  0.63441788895E+01  0.90376786962E+01  0.51100000000E-03 0. -1.
        -11    1    3    3    0    0 -0.24691261163E+02  0.12258710086E+02 -0.13889563912E+02  0.30868338743E+02  0.51100000000E-03 0.  1.
        -12    1    3    3    0    0  0.26028971055E+02 -0.20791374350E+01  0.19443093890E+02  0.32555553238E+02  0.00000000000E+00 0.  1.
</event>
<event>
 7    1  0.1692604E-013  0.7246154E+02  0.7816164E-02  0.1226708E+00
        -11   -1    0    0    0    0  0.00000000000E+00  0.00000000000E+00  0.45593999997E+02  0.45594000000E+02  0.51100000000E-03 0.  1.
         11   -1    0    0    0    0 -0.00000000000E+00 -0.00000000000E+00 -0.45593999997E+02  0.45594000000E+02  0.51100000000E-03 0. -1.
    9900012    2    1    2    0    0  0.16326559537E+02  0.67485169143E+01  0.62113926871E+01  0.72461536747E+02  0.69999956298E+02 0.  0.
         12    1    1    2    0    0 -0.16326559537E+02 -0.67485169143E+01 -0.62113926871E+01  0.18726463253E+02  0.00000000000E+00 0. -1.
         11    1    3    3    0    0  0.23727603627E+02  0.26081449179E+02 -0.16380236220E+02  0.38878699876E+02  0.51100000000E-03 0. -1.
        -11    1    3    3    0    0 -0.39265100536E+01 -0.59117301896E+00  0.99436255393E+01  0.10707131075E+02  0.51100000000E-03 0.  1.
        -12    1    3    3    0    0 -0.34745340365E+01 -0.18741759246E+02  0.12648003368E+02  0.22875705795E+02  0.00000000000E+00 0.  1.
</event>
<event>
 7    1  0.1715130E-013  0.7246162E+02  0.7816164E-02  0.1226708E+00
        -11   -1    0    0    0    0  0.00000000000E+00  0.00000000000E+00  0.45593999997E+02  0.45594000000E+02  0.51100000000E-03 0. -1.
         11   -1    0    0    0    0 -0.00000000000E+00 -0.00000000000E+00 -0.45593999997E+02  0.45594000000E+02  0.51100000000E-03 0.  1.
    9900012    2    1    2    0    0 -0.12185674637E+02 -0.71934665724E+01 -0.12265433403E+02  0.72461615292E+02  0.70000058618E+02 0.  0.
         12    1    1    2    0    0  0.12185674637E+02  0.71934665724E+01  0.12265433403E+02  0.18726384708E+02  0.00000000000E+00 0. -1.
         11    1    3    3    0    0 -0.58381170565E+01 -0.18905060504E+02  0.14102797765E+02  0.24297609522E+02  0.51100000000E-03 0. -1.
        -11    1    3    3    0    0  0.36452168582E+00 -0.14066370781E+00  0.96491856051E+01  0.96570930119E+01  0.51100000000E-03 0.  1.
        -12    1    3    3    0    0 -0.67120792660E+01  0.11852257639E+02 -0.36017416772E+02  0.38506912758E+02  0.00000000000E+00 0.  1.
</event>
<event>
 7    1  0.1692604E-013  0.7246152E+02  0.7816164E-02  0.1226708E+00
        -11   -1    0    0    0    0  0.00000000000E+00  0.00000000000E+00  0.45593999997E+02  0.45594000000E+02  0.51100000000E-03 0. -1.
         11   -1    0    0    0    0 -0.00000000000E+00 -0.00000000000E+00 -0.45593999997E+02  0.45594000000E+02  0.51100000000E-03 0.  1.
    9900012    2    1    2    0    0  0.11083275030E+02  0.13754927244E+02  0.62164263879E+01  0.72461522330E+02  0.69999937517E+02 0.  0.
         12    1    1    2    0    0 -0.11083275030E+02 -0.13754927244E+02 -0.62164263879E+01  0.18726477670E+02  0.00000000000E+00 0. -1.
         11    1    3    3    0    0  0.13603091698E+02  0.37098022411E+01  0.11765305105E+02  0.18363799740E+02  0.51100000000E-03 0. -1.
        -11    1    3    3    0    0 -0.12849832750E+02  0.21174284097E+02  0.14689233996E+02  0.28796564107E+02  0.51100000000E-03 0.  1.
        -12    1    3    3    0    0  0.10330016081E+02 -0.11129159094E+02 -0.20238112713E+02  0.25301158483E+02  0.00000000000E+00 0.  1.
</event>
<event>
 7    1  0.1692604E-013  0.7246162E+02  0.7816164E-02  0.1226708E+00
        -11   -1    0    0    0    0  0.00000000000E+00  0.00000000000E+00  0.45593999997E+02  0.45594000000E+02  0.51100000000E-03 0. -1.
         11   -1    0    0    0    0 -0.00000000000E+00 -0.00000000000E+00 -0.45593999997E+02  0.45594000000E+02  0.51100000000E-03 0.  1.
    9900012    2    1    2    0    0  0.18708545370E+01  0.17511242287E+02 -0.63665909789E+01  0.72461623313E+02  0.70000069067E+02 0.  0.
         12    1    1    2    0    0 -0.18708545370E+01 -0.17511242287E+02  0.63665909789E+01  0.18726376687E+02  0.00000000000E+00 0. -1.
         11    1    3    3    0    0  0.97747036320E+01 -0.81977679396E-02  0.61553451614E+01  0.11551327742E+02  0.51100000000E-03 0. -1.
        -11    1    3    3    0    0  0.88885273466E+01  0.21049881155E+02  0.15810796413E+02  0.27786412120E+02  0.51100000000E-03 0.  1.
         12    1    3    3    0    0 -0.16792376442E+02 -0.35304411006E+01 -0.28332732553E+02  0.33123883450E+02  0.00000000000E+00 0. -1.
</event>
<event>
 7    1  0.1692604E-013  0.7246167E+02  0.7816164E-02  0.1226708E+00
        -11   -1    0    0    0    0  0.00000000000E+00  0.00000000000E+00  0.45593999997E+02  0.45594000000E+02  0.51100000000E-03 0. -1.
         11   -1    0    0    0    0 -0.00000000000E+00 -0.00000000000E+00 -0.45593999997E+02  0.45594000000E+02  0.51100000000E-03 0.  1.
    9900012    2    1    2    0    0 -0.15964395722E+01  0.68158643299E+01 -0.17368673727E+02  0.72461669529E+02  0.70000129272E+02 0.  0.
         12    1    1    2    0    0  0.15964395722E+01 -0.68158643299E+01  0.17368673727E+02  0.18726330471E+02  0.00000000000E+00 0. -1.
         11    1    3    3    0    0  0.25174716343E+01  0.22696092858E+02 -0.92289041976E-01  0.22835472669E+02  0.51100000000E-03 0. -1.
        -11    1    3    3    0    0 -0.13726348222E+01  0.14180286352E+02 -0.12720442040E+02  0.19099065248E+02  0.51100000000E-03 0.  1.
         12    1    3    3    0    0 -0.27412763843E+01 -0.30060514881E+02 -0.45559426443E+01  0.30527131613E+02  0.00000000000E+00 0. -1.
</event>
<event>
 7    1  0.1692604E-013  0.7246161E+02  0.7816164E-02  0.1226708E+00
        -11   -1    0    0    0    0  0.00000000000E+00  0.00000000000E+00  0.45593999997E+02  0.45594000000E+02  0.51100000000E-03 0.  1.
         11   -1    0    0    0    0 -0.00000000000E+00 -0.00000000000E+00 -0.45593999997E+02  0.45594000000E+02  0.51100000000E-03 0. -1.
    9900012    2    1    2    0    0 -0.13146659018E+01  0.18208640079E+02  0.41707131398E+01  0.72461607714E+02  0.70000048746E+02 0.  0.
         12    1    1    2    0    0  0.13146659018E+01 -0.18208640079E+02 -0.41707131398E+01  0.18726392286E+02  0.00000000000E+00 0. -1.
         11    1    3    3    0    0  0.24284034935E+01  0.64855429746E+00 -0.11601078019E+02  0.11870247582E+02  0.51100000000E-03 0. -1.
        -11    1    3    3    0    0  0.17740980827E+02 -0.11198514786E+02  0.12788570641E+02  0.24570239588E+02  0.51100000000E-03 0.  1.
         12    1    3    3    0    0 -0.21484050222E+02  0.28758600568E+02  0.29832205170E+01  0.36021120544E+02  0.00000000000E+00 0. -1.
</event>
<event>
 7    1  0.1692604E-013  0.7246163E+02  0.7816164E-02  0.1226708E+00
        -11   -1    0    0    0    0  0.00000000000E+00  0.00000000000E+00  0.45593999997E+02  0.45594000000E+02  0.51100000000E-03 0.  1.
         11   -1    0    0    0    0 -0.00000000000E+00 -0.00000000000E+00 -0.45593999997E+02  0.45594000000E+02  0.51100000000E-03 0. -1.
    9900012    2    1    2    0    0 -0.16000044044E+02  0.97299038395E+01  0.65930646987E-01  0.72461633962E+02  0.70000082939E+02 0.  0.
         12    1    1    2    0    0  0.16000044044E+02 -0.97299038395E+01 -0.65930646987E-01  0.18726366038E+02  0.00000000000E+00 0. -1.
         11    1    3    3    0    0 -0.11023825121E+02 -0.79165298836E+01 -0.12242045103E+02  0.18277413226E+02  0.51100000000E-03 0. -1.
        -11    1    3    3    0    0 -0.26044938599E+02  0.15395460016E+02  0.13126591607E+02  0.32979788102E+02  0.51100000000E-03 0.  1.
        -12    1    3    3    0    0  0.21068719676E+02  0.22509737069E+01 -0.81861585747E+00  0.21204432634E+02  0.00000000000E+00 0.  1.
</event>
<event>
 7    1  0.1692604E-013  0.7246162E+02  0.7816164E-02  0.1226708E+00
        -11   -1    0    0    0    0  0.00000000000E+00  0.00000000000E+00  0.45593999997E+02  0.45594000000E+02  0.51100000000E-03 0.  1.
         11   -1    0    0    0    0 -0.00000000000E+00 -0.00000000000E+00 -0.45593999997E+02  0.45594000000E+02  0.51100000000E-03 0. -1.
    9900012    2    1    2    0    0  0.18105623484E+02  0.19969523000E+01  0.43446415969E+01  0.72461619388E+02  0.70000063953E+02 0.  0.
         12    1    1    2    0    0 -0.18105623484E+02 -0.19969523000E+01 -0.43446415969E+01  0.18726380612E+02  0.00000000000E+00 0. -1.
         11    1    3    3    0    0  0.48045230253E+01  0.18071048718E+02 -0.11059011301E+01  0.18731504500E+02  0.51100000000E-03 0.  1.
        -11    1    3    3    0    0  0.24041591303E+02 -0.21422290720E+02 -0.10410434439E+02  0.33842130512E+02  0.51100000000E-03 0. -1.
         12    1    3    3    0    0 -0.10740490844E+02  0.53481943027E+01  0.15860977166E+02  0.19887984376E+02  0.00000000000E+00 0. -1.
</event>
<event>
 7    1  0.1692604E-013  0.7246223E+02  0.7816164E-02  0.1226706E+00
        -11   -1    0    0    0    0  0.00000000000E+00  0.00000000000E+00  0.45593999997E+02  0.45594000000E+02  0.51100000000E-03 0. -1.
         11   -1    0    0    0    0 -0.00000000000E+00 -0.00000000000E+00 -0.45593999997E+02  0.45594000000E+02  0.51100000000E-03 0.  1.
    9900012    2    1    2    0    0 -0.14565022924E+02 -0.96674628197E+01 -0.67122716670E+01  0.72462233765E+02  0.70000864289E+02 0.  0.
         12    1    1    2    0    0  0.14565022924E+02  0.96674628197E+01  0.67122716670E+01  0.18725766235E+02  0.00000000000E+00 0. -1.
         11    1    3    3    0    0 -0.23981544671E+02 -0.15636500952E+02  0.47731455224E+01  0.29024085950E+02  0.51100000000E-03 0. -1.
        -11    1    3    3    0    0 -0.10480191672E+02  0.78551594087E+01 -0.18139507408E+02  0.22373637971E+02  0.51100000000E-03 0.  1.
        -12    1    3    3    0    0  0.19896713418E+02 -0.18861212766E+01  0.66540902185E+01  0.21064509844E+02  0.00000000000E+00 0.  1.
</event>
<event>
 7    1  0.1692604E-013  0.7246155E+02  0.7816164E-02  0.1226708E+00
        -11   -1    0    0    0    0  0.00000000000E+00  0.00000000000E+00  0.45593999997E+02  0.45594000000E+02  0.51100000000E-03 0. -1.
         11   -1    0    0    0    0 -0.00000000000E+00 -0.00000000000E+00 -0.45593999997E+02  0.45594000000E+02  0.51100000000E-03 0.  1.
    9900012    2    1    2    0    0 -0.14937903007E+02 -0.94545377383E+01 -0.61766282922E+01  0.72461548997E+02  0.69999972257E+02 0.  0.
         12    1    1    2    0    0  0.14937903007E+02  0.94545377383E+01  0.61766282922E+01  0.18726451003E+02  0.00000000000E+00 0. -1.
         11    1    3    3    0    0 -0.63172582198E+01 -0.12507228915E+02  0.30535924212E+02  0.33597339095E+02  0.51100000000E-03 0. -1.
        -11    1    3    3    0    0 -0.84699109057E+00 -0.60909579732E+00  0.11303691990E+00  0.10493660964E+01  0.51100000000E-03 0.  1.
        -12    1    3    3    0    0 -0.77736536968E+01  0.36617869738E+01 -0.36825589424E+02  0.37814843806E+02  0.00000000000E+00 0.  1.
</event>
<event>
 7    1  0.1692604E-013  0.7246155E+02  0.7816164E-02  0.1226708E+00
        -11   -1    0    0    0    0  0.00000000000E+00  0.00000000000E+00  0.45593999997E+02  0.45594000000E+02  0.51100000000E-03 0.  1.
         11   -1    0    0    0    0 -0.00000000000E+00 -0.00000000000E+00 -0.45593999997E+02  0.45594000000E+02  0.51100000000E-03 0. -1.
    9900012    2    1    2    0    0 -0.15890680421E+01 -0.11950806914E+02  0.14329443637E+02  0.72461551375E+02  0.69999975354E+02 0.  0.
         12    1    1    2    0    0  0.15890680421E+01  0.11950806914E+02 -0.14329443637E+02  0.18726448625E+02  0.00000000000E+00 0. -1.
         11    1    3    3    0    0 -0.27509537063E+02 -0.16749425328E+02  0.19386325832E+02  0.37591854274E+02  0.51100000000E-03 0. -1.
        -11    1    3    3    0    0 -0.25380676974E+01  0.15908792767E+01 -0.54604589336E+01  0.62281053730E+01  0.51100000000E-03 0.  1.
        -12    1    3    3    0    0  0.28458536719E+02  0.32077391366E+01  0.40357673820E+00  0.28641591728E+02  0.00000000000E+00 0.  1.
</event>
<event>
 7    1  0.1692604E-013  0.7246160E+02  0.7816164E-02  0.1226708E+00
        -11   -1    0    0    0    0  0.00000000000E+00  0.00000000000E+00  0.45593999997E+02  0.45594000000E+02  0.51100000000E-03 0. -1.
         11   -1    0    0    0    0 -0.00000000000E+00 -0.00000000000E+00 -0.45593999997E+02  0.45594000000E+02  0.51100000000E-03 0.  1.
    9900012    2    1    2    0    0 -0.96514480205E+01  0.15953526904E+02  0.17357208730E+01  0.72461596274E+02  0.70000033843E+02 0.  0.
         12    1    1    2    0    0  0.96514480205E+01 -0.15953526904E+02 -0.17357208730E+01  0.18726403726E+02  0.00000000000E+00 0. -1.
         11    1    3    3    0    0 -0.15015358828E+00  0.16084091198E+02  0.60175976090E+01  0.17173584862E+02  0.51100000000E-03 0. -1.
        -11    1    3    3    0    0  0.21159010527E+02 -0.30451519626E+01  0.69912051358E+01  0.22491189975E+02  0.51100000000E-03 0.  1.
        -12    1    3    3    0    0 -0.30660304960E+02  0.29145876692E+01 -0.11273081872E+02  0.32796821437E+02  0.00000000000E+00 0.  1.
</event>
<event>
 7    1  0.1692604E-013  0.7246157E+02  0.7816164E-02  0.1226708E+00
        -11   -1    0    0    0    0  0.00000000000E+00  0.00000000000E+00  0.45593999997E+02  0.45594000000E+02  0.51100000000E-03 0. -1.
         11   -1    0    0    0    0 -0.00000000000E+00 -0.00000000000E+00 -0.45593999997E+02  0.45594000000E+02  0.51100000000E-03 0.  1.
    9900012    2    1    2    0    0  0.44497860195E+01  0.17818607432E+02  0.36572711811E+01  0.72461574849E+02  0.70000005933E+02 0.  0.
         12    1    1    2    0    0 -0.44497860195E+01 -0.17818607432E+02 -0.36572711811E+01  0.18726425151E+02  0.00000000000E+00 0. -1.
         11    1    3    3    0    0 -0.17448001851E+02 -0.64565179188E+01  0.59021031226E+01  0.19518048410E+02  0.51100000000E-03 0. -1.
        -11    1    3    3    0    0  0.28512073670E+01 -0.54943126863E+01 -0.14316672407E+02  0.15597562772E+02  0.51100000000E-03 0.  1.
        -12    1    3    3    0    0  0.19046580503E+02  0.29769438038E+02  0.12071840466E+02  0.37345963666E+02  0.00000000000E+00 0.  1.
</event>
<event>
 7    1  0.1692604E-013  0.7246154E+02  0.7816164E-02  0.1226708E+00
        -11   -1    0    0    0    0  0.00000000000E+00  0.00000000000E+00  0.45593999997E+02  0.45594000000E+02  0.51100000000E-03 0.  1.
         11   -1    0    0    0    0 -0.00000000000E+00 -0.00000000000E+00 -0.45593999997E+02  0.45594000000E+02  0.51100000000E-03 0. -1.
    9900012    2    1    2    0    0  0.12729239677E+02 -0.70833617079E+01  0.11767439961E+02  0.72461542805E+02  0.69999964190E+02 0.  0.
         12    1    1    2    0    0 -0.12729239677E+02  0.70833617079E+01 -0.11767439961E+02  0.18726457195E+02  0.00000000000E+00 0. -1.
         11    1    3    3    0    0 -0.86878701464E+01  0.51721614943E+01  0.45726469006E+01  0.11096821263E+02  0.51100000000E-03 0. -1.
        -11    1    3    3    0    0  0.24014797490E+02  0.63694579553E+01  0.25158303529E+02  0.35358460513E+02  0.51100000000E-03 0.  1.
         12    1    3    3    0    0 -0.25976876669E+01 -0.18624981157E+02 -0.17963510469E+02  0.26006261029E+02  0.00000000000E+00 0. -1.
</event>
<event>
 7    1  0.1692604E-013  0.7246161E+02  0.7816164E-02  0.1226708E+00
        -11   -1    0    0    0    0  0.00000000000E+00  0.00000000000E+00  0.45593999997E+02  0.45594000000E+02  0.51100000000E-03 0.  1.
         11   -1    0    0    0    0 -0.00000000000E+00 -0.00000000000E+00 -0.45593999997E+02  0.45594000000E+02  0.51100000000E-03 0. -1.
    9900012    2    1    2    0    0 -0.18267922925E+02 -0.41068988767E+01  0.30665586322E+00  0.72461610487E+02  0.70000052359E+02 0.  0.
         12    1    1    2    0    0  0.18267922925E+02  0.41068988767E+01 -0.30665586322E+00  0.18726389513E+02  0.00000000000E+00 0. -1.
         11    1    3    3    0    0 -0.68523499284E+00 -0.13754233826E+02 -0.12402539060E+02  0.18532983315E+02  0.51100000000E-03 0. -1.
        -11    1    3    3    0    0  0.53809395689E+00 -0.18515168912E+02  0.13750112871E+01  0.18573951686E+02  0.51100000000E-03 0.  1.
        -12    1    3    3    0    0 -0.18120781889E+02  0.28162503862E+02  0.11334183636E+02  0.35354675486E+02  0.00000000000E+00 0.  1.
</event>
<event>
 7    1  0.1692604E-013  0.7246156E+02  0.7816164E-02  0.1226708E+00
        -11   -1    0    0    0    0  0.00000000000E+00  0.00000000000E+00  0.45593999997E+02  0.45594000000E+02  0.51100000000E-03 0.  1.
         11   -1    0    0    0    0 -0.00000000000E+00 -0.00000000000E+00 -0.45593999997E+02  0.45594000000E+02  0.51100000000E-03 0. -1.
    9900012    2    1    2    0    0 -0.11560337736E+01 -0.11235693077E+02  0.14936609291E+02  0.72461561201E+02  0.69999988154E+02 0.  0.
         12    1    1    2    0    0  0.11560337736E+01  0.11235693077E+02 -0.14936609291E+02  0.18726438799E+02  0.00000000000E+00 0. -1.
         11    1    3    3    0    0  0.14765654067E+02  0.30123267314E-01 -0.18050692745E+01  0.14875608316E+02  0.51100000000E-03 0. -1.
        -11    1    3    3    0    0 -0.24923723520E+02 -0.23314837903E+02 -0.12300831496E+01  0.34150940915E+02  0.51100000000E-03 0.  1.
         12    1    3    3    0    0  0.90020356796E+01  0.12049021558E+02  0.17971761715E+02  0.23435011970E+02  0.00000000000E+00 0. -1.
</event>
<event>
 7    1  0.1692604E-013  0.7246157E+02  0.7816164E-02  0.1226708E+00
        -11   -1    0    0    0    0  0.00000000000E+00  0.00000000000E+00  0.45593999997E+02  0.45594000000E+02  0.51100000000E-03 0.  1.
         11   -1    0    0    0    0 -0.00000000000E+00 -0.00000000000E+00 -0.45593999997E+02  0.45594000000E+02  0.51100000000E-03 0. -1.
    9900012    2    1    2    0    0 -0.51388351700E+00  0.79280944522E+00  0.18702583157E+02  0.72461568417E+02  0.69999997555E+02 0.  0.
         12    1    1    2    0    0  0.51388351700E+00 -0.79280944522E+00 -0.18702583157E+02  0.18726431583E+02  0.00000000000E+00 0. -1.
         11    1    3    3    0    0  0.11122152229E+02  0.18958105492E+02 -0.16773925027E+02  0.27649169881E+02  0.51100000000E-03 0. -1.
        -11    1    3    3    0    0 -0.34652721140E+01 -0.53545737422E+01  0.17584861000E+00  0.63804775510E+01  0.51100000000E-03 0.  1.
        -12    1    3    3    0    0 -0.81707636318E+01 -0.12810722305E+02  0.35300659574E+02  0.38431920985E+02  0.00000000000E+00 0.  1.
</event>
<event>
 7    1  0.1692604E-013  0.7246157E+02  0.7816164E-02  0.1226708E+00
        -11   -1    0    0    0    0  0.00000000000E+00  0.00000000000E+00  0.45593999997E+02  0.45594000000E+02  0.51100000000E-03 0.  1.
         11   -1    0    0    0    0 -0.00000000000E+00 -0.00000000000E+00 -0.45593999997E+02  0.45594000000E+02  0.51100000000E-03 0. -1.
    9900012    2    1    2    0    0 -0.10289036182E+02 -0.10618092083E+02 -0.11492211915E+02  0.72461572692E+02  0.70000003123E+02 0.  0.
         12    1    1    2    0    0  0.10289036182E+02  0.10618092083E+02  0.11492211915E+02  0.18726427308E+02  0.00000000000E+00 0. -1.
         11    1    3    3    0    0 -0.83375362808E+01 -0.28490500212E+01 -0.84837244479E+01  0.12231319554E+02  0.51100000000E-03 0. -1.
        -11    1    3    3    0    0 -0.50183866877E+01  0.24873620317E+02  0.63055365216E+01  0.26146529095E+02  0.51100000000E-03 0.  1.
         12    1    3    3    0    0  0.30668867865E+01 -0.32642662379E+02 -0.93140239883E+01  0.34083724043E+02  0.00000000000E+00 0. -1.
</event>
<event>
 7    1  0.1692604E-013  0.7246157E+02  0.7816164E-02  0.1226708E+00
        -11   -1    0    0    0    0  0.00000000000E+00  0.00000000000E+00  0.45593999997E+02  0.45594000000E+02  0.51100000000E-03 0.  1.
         11   -1    0    0    0    0 -0.00000000000E+00 -0.00000000000E+00 -0.45593999997E+02  0.45594000000E+02  0.51100000000E-03 0. -1.
    9900012    2    1    2    0    0 -0.18170213112E+02 -0.27411896874E+01 -0.36066983813E+01  0.72461573788E+02  0.70000004552E+02 0.  0.
         12    1    1    2    0    0  0.18170213112E+02  0.27411896874E+01  0.36066983813E+01  0.18726426212E+02  0.00000000000E+00 0. -1.
         11    1    3    3    0    0  0.72087739200E+01 -0.10045170417E+02 -0.47777436754E+00  0.12373364084E+02  0.51100000000E-03 0. -1.
        -11    1    3    3    0    0 -0.62247655090E+01 -0.23136508695E+02  0.28716547903E+00  0.23960972528E+02  0.51100000000E-03 0.  1.
         12    1    3    3    0    0 -0.19154221523E+02  0.30440489425E+02 -0.34160894928E+01  0.36127237176E+02  0.00000000000E+00 0. -1.
</event>
<event>
 7    1  0.1692604E-013  0.7246161E+02  0.7816164E-02  0.1226708E+00
        -11   -1    0    0    0    0  0.00000000000E+00  0.00000000000E+00  0.45593999997E+02  0.45594000000E+02  0.51100000000E-03 0. -1.
         11   -1    0    0    0    0 -0.00000000000E+00 -0.00000000000E+00 -0.45593999997E+02  0.45594000000E+02  0.51100000000E-03 0.  1.
    9900012    2    1    2    0    0  0.57628492017E+01 -0.17664090070E+02  0.23339346453E+01  0.72461607933E+02  0.70000049032E+02 0.  0.
         12    1    1    2    0    0 -0.57628492017E+01  0.17664090070E+02 -0.23339346453E+01  0.18726392067E+02  0.00000000000E+00 0. -1.
         11    1    3    3    0    0 -0.13432322971E+02 -0.24558765192E+02  0.20981921644E+02  0.34982871299E+02  0.51100000000E-03 0. -1.
        -11    1    3    3    0    0  0.13006258966E+02 -0.63071126316E+01 -0.86240369088E+00  0.14480544963E+02  0.51100000000E-03 0.  1.
        -12    1    3    3    0    0  0.61889132069E+01  0.13201787754E+02 -0.17785583308E+02  0.22998191672E+02  0.00000000000E+00 0.  1.
</event>
<event>
 7    1  0.1692604E-013  0.7246156E+02  0.7816164E-02  0.1226708E+00
        -11   -1    0    0    0    0  0.00000000000E+00  0.00000000000E+00  0.45593999997E+02  0.45594000000E+02  0.51100000000E-03 0. -1.
         11   -1    0    0    0    0 -0.00000000000E+00 -0.00000000000E+00 -0.45593999997E+02  0.45594000000E+02  0.51100000000E-03 0.  1.
    9900012    2    1    2    0    0 -0.16850027869E+02 -0.22550528661E+01  0.78530896487E+01  0.72461555606E+02  0.69999980866E+02 0.  0.
         12    1    1    2    0    0  0.16850027869E+02  0.22550528661E+01 -0.78530896487E+01  0.18726444394E+02  0.00000000000E+00 0. -1.
         11    1    3    3    0    0 -0.11147919002E+02 -0.10848461878E+02 -0.18326770684E+01  0.15662819947E+02  0.51100000000E-03 0.  1.
        -11    1    3    3    0    0 -0.10336520404E+02 -0.21960823855E+02 -0.44794944058E+00  0.24275957188E+02  0.51100000000E-03 0. -1.
         12    1    3    3    0    0  0.46344115371E+01  0.30554232866E+02  0.10133716158E+02  0.32522778471E+02  0.00000000000E+00 0. -1.
</event>
<event>
 7    1  0.1692604E-013  0.7246153E+02  0.7816164E-02  0.1226708E+00
        -11   -1    0    0    0    0  0.00000000000E+00  0.00000000000E+00  0.45593999997E+02  0.45594000000E+02  0.51100000000E-03 0. -1.
         11   -1    0    0    0    0 -0.00000000000E+00 -0.00000000000E+00 -0.45593999997E+02  0.45594000000E+02  0.51100000000E-03 0.  1.
    9900012    2    1    2    0    0  0.39783618718E+01  0.17986950928E+02 -0.33649643854E+01  0.72461528037E+02  0.69999944952E+02 0.  0.
         12    1    1    2    0    0 -0.39783618718E+01 -0.17986950928E+02  0.33649643854E+01  0.18726471963E+02  0.00000000000E+00 0. -1.
         11    1    3    3    0    0  0.10249772390E+02  0.10592935334E+02  0.81249172467E+01  0.16830995026E+02  0.51100000000E-03 0. -1.
        -11    1    3    3    0    0  0.52534714697E+00 -0.21776808862E+02  0.36217009697E+01  0.22082167285E+02  0.51100000000E-03 0.  1.
        -12    1    3    3    0    0 -0.67967576649E+01  0.29170824455E+02 -0.15111582602E+02  0.33548365726E+02  0.00000000000E+00 0.  1.
</event>
<event>
 7    1  0.1692604E-013  0.7246159E+02  0.7816164E-02  0.1226708E+00
        -11   -1    0    0    0    0  0.00000000000E+00  0.00000000000E+00  0.45593999997E+02  0.45594000000E+02  0.51100000000E-03 0.  1.
         11   -1    0    0    0    0 -0.00000000000E+00 -0.00000000000E+00 -0.45593999997E+02  0.45594000000E+02  0.51100000000E-03 0. -1.
    9900012    2    1    2    0    0 -0.15608205239E+02 -0.79576039358E+01  0.66135475714E+01  0.72461587031E+02  0.70000021803E+02 0.  0.
         12    1    1    2    0    0  0.15608205239E+02  0.79576039358E+01 -0.66135475714E+01  0.18726412969E+02  0.00000000000E+00 0. -1.
         11    1    3    3    0    0 -0.90570345553E+01 -0.56263265112E+01 -0.48397346856E+01  0.11709332049E+02  0.51100000000E-03 0. -1.
        -11    1    3    3    0    0 -0.80592730341E+01 -0.14767015430E+02 -0.20448363104E+02  0.26479278322E+02  0.51100000000E-03 0.  1.
        -12    1    3    3    0    0  0.15081023501E+01  0.12435738005E+02  0.31901645361E+02  0.34272976661E+02  0.00000000000E+00 0.  1.
</event>
<event>
 7    1  0.1692604E-013  0.7246188E+02  0.7816164E-02  0.1226707E+00
        -11   -1    0    0    0    0  0.00000000000E+00  0.00000000000E+00  0.45593999997E+02  0.45594000000E+02  0.51100000000E-03 0. -1.
         11   -1    0    0    0    0 -0.00000000000E+00 -0.00000000000E+00 -0.45593999997E+02  0.45594000000E+02  0.51100000000E-03 0.  1.
    9900012    2    1    2    0    0 -0.17490261189E+02 -0.25494026410E+01 -0.61853846409E+01  0.72461877245E+02  0.70000399859E+02 0.  0.
         12    1    1    2    0    0  0.17490261189E+02  0.25494026410E+01  0.61853846409E+01  0.18726122755E+02  0.00000000000E+00 0. -1.
         11    1    3    3    0    0 -0.64212636577E+01 -0.93476368816E+01  0.20613723331E+02  0.23527357099E+02  0.51100000000E-03 0. -1.
        -11    1    3    3    0    0 -0.15925949462E+01 -0.30266913338E+01  0.95302322246E+01  0.10125341753E+02  0.51100000000E-03 0.  1.
        -12    1    3    3    0    0 -0.94764025850E+01  0.98249255745E+01 -0.36329340196E+02  0.38809178394E+02  0.00000000000E+00 0.  1.
</event>
<event>
 7    1  0.1692604E-013  0.7246154E+02  0.7816164E-02  0.1226708E+00
        -11   -1    0    0    0    0  0.00000000000E+00  0.00000000000E+00  0.45593999997E+02  0.45594000000E+02  0.51100000000E-03 0. -1.
         11   -1    0    0    0    0 -0.00000000000E+00 -0.00000000000E+00 -0.45593999997E+02  0.45594000000E+02  0.51100000000E-03 0.  1.
    9900012    2    1    2    0    0 -0.41763443758E+01  0.11548832752E+02 -0.14137289629E+02  0.72461538820E+02  0.69999958998E+02 0.  0.
         12    1    1    2    0    0  0.41763443758E+01 -0.11548832752E+02  0.14137289629E+02  0.18726461180E+02  0.00000000000E+00 0. -1.
         11    1    3    3    0    0 -0.10777885107E+02  0.58777848305E+01 -0.65161449671E+01  0.13898608110E+02  0.51100000000E-03 0. -1.
        -11    1    3    3    0    0  0.10920650680E+02  0.15522990987E+02 -0.28983594626E+02  0.34644950833E+02  0.51100000000E-03 0.  1.
         12    1    3    3    0    0 -0.43191099489E+01 -0.98519430661E+01  0.21362449964E+02  0.23917979877E+02  0.00000000000E+00 0. -1.
</event>
<event>
 7    1  0.1692604E-013  0.7246158E+02  0.7816164E-02  0.1226708E+00
        -11   -1    0    0    0    0  0.00000000000E+00  0.00000000000E+00  0.45593999997E+02  0.45594000000E+02  0.51100000000E-03 0.  1.
         11   -1    0    0    0    0 -0.00000000000E+00 -0.00000000000E+00 -0.45593999997E+02  0.45594000000E+02  0.51100000000E-03 0. -1.
    9900012    2    1    2    0    0  0.57545499893E+01 -0.11165989364E+02  0.13888292103E+02  0.72461579584E+02  0.70000012102E+02 0.  0.
         12    1    1    2    0    0 -0.57545499893E+01  0.11165989364E+02 -0.13888292103E+02  0.18726420416E+02  0.00000000000E+00 0. -1.
         11    1    3    3    0    0  0.12617491163E+02 -0.10612665120E+02 -0.45231425855E+01  0.17096448851E+02  0.51100000000E-03 0. -1.
        -11    1    3    3    0    0  0.35949219731E+01 -0.25171997037E+02  0.79048250323E+01  0.26627789204E+02  0.51100000000E-03 0.  1.
         12    1    3    3    0    0 -0.10457863147E+02  0.24618672793E+02  0.10506609656E+02  0.28737341529E+02  0.00000000000E+00 0. -1.
</event>
<event>
 7    1  0.2242816E-013  0.7246157E+02  0.7816164E-02  0.1226708E+00
        -11   -1    0    0    0    0  0.00000000000E+00  0.00000000000E+00  0.45593999997E+02  0.45594000000E+02  0.51100000000E-03 0. -1.
         11   -1    0    0    0    0 -0.00000000000E+00 -0.00000000000E+00 -0.45593999997E+02  0.45594000000E+02  0.51100000000E-03 0.  1.
    9900012    2    1    2    0    0 -0.13745200617E+02 -0.64299548451E+01 -0.10972893456E+02  0.72461568143E+02  0.69999997197E+02 0.  0.
         12    1    1    2    0    0  0.13745200617E+02  0.64299548451E+01  0.10972893456E+02  0.18726431857E+02  0.00000000000E+00 0. -1.
         11    1    3    3    0    0  0.15013303506E+02 -0.18592584154E+02  0.13872393671E+02  0.27631988240E+02  0.51100000000E-03 0. -1.
        -11    1    3    3    0    0  0.14556963321E+01  0.18627550912E+01 -0.87812298435E+01  0.90938938946E+01  0.51100000000E-03 0.  1.
        -12    1    3    3    0    0 -0.30214200455E+02  0.10299874217E+02 -0.16064057284E+02  0.35735686008E+02  0.00000000000E+00 0.  1.
</event>
<event>
 7    1  0.1692604E-013  0.7246157E+02  0.7816164E-02  0.1226708E+00
        -11   -1    0    0    0    0  0.00000000000E+00  0.00000000000E+00  0.45593999997E+02  0.45594000000E+02  0.51100000000E-03 0.  1.
         11   -1    0    0    0    0 -0.00000000000E+00 -0.00000000000E+00 -0.45593999997E+02  0.45594000000E+02  0.51100000000E-03 0. -1.
    9900012    2    1    2    0    0  0.60973534220E+01  0.10620814967E+02  0.14166851875E+02  0.72461571580E+02  0.70000001675E+02 0.  0.
         12    1    1    2    0    0 -0.60973534220E+01 -0.10620814967E+02 -0.14166851875E+02  0.18726428420E+02  0.00000000000E+00 0. -1.
         11    1    3    3    0    0  0.79878514931E+01  0.19687832188E+02  0.52977663791E+01  0.21897096533E+02  0.51100000000E-03 0. -1.
        -11    1    3    3    0    0  0.21215357621E+02  0.44307030052E+01 -0.18194249042E+01  0.21749318043E+02  0.51100000000E-03 0.  1.
         12    1    3    3    0    0 -0.23105855692E+02 -0.13497720225E+02  0.10688510400E+02  0.28815157003E+02  0.00000000000E+00 0. -1.
</event>
<event>
 7    1  0.1692604E-013  0.7246153E+02  0.7816164E-02  0.1226708E+00
        -11   -1    0    0    0    0  0.00000000000E+00  0.00000000000E+00  0.45593999997E+02  0.45594000000E+02  0.51100000000E-03 0.  1.
         11   -1    0    0    0    0 -0.00000000000E+00 -0.00000000000E+00 -0.45593999997E+02  0.45594000000E+02  0.51100000000E-03 0. -1.
    9900012    2    1    2    0    0  0.20606131683E+01  0.18463563298E+02  0.23518832627E+01  0.72461530734E+02  0.69999948466E+02 0.  0.
         12    1    1    2    0    0 -0.20606131683E+01 -0.18463563298E+02 -0.23518832627E+01  0.18726469266E+02  0.00000000000E+00 0. -1.
         11    1    3    3    0    0 -0.71986449340E+01 -0.12343319239E+02 -0.74665984543E+01  0.16122286174E+02  0.51100000000E-03 0. -1.
        -11    1    3    3    0    0  0.10199122676E+02 -0.10207442638E+02  0.32588427576E+01  0.14793040423E+02  0.51100000000E-03 0.  1.
         12    1    3    3    0    0 -0.93986457369E+00  0.41014325175E+02  0.65596389594E+01  0.41546204138E+02  0.00000000000E+00 0. -1.
</event>
<event>
 7    1  0.1692604E-013  0.7246159E+02  0.7816164E-02  0.1226708E+00
        -11   -1    0    0    0    0  0.00000000000E+00  0.00000000000E+00  0.45593999997E+02  0.45594000000E+02  0.51100000000E-03 0. -1.
         11   -1    0    0    0    0 -0.00000000000E+00 -0.00000000000E+00 -0.45593999997E+02  0.45594000000E+02  0.51100000000E-03 0.  1.
    9900012    2    1    2    0    0 -0.30035005508E+01  0.92502880097E+01 -0.16002793799E+02  0.72461594761E+02  0.70000031872E+02 0.  0.
         12    1    1    2    0    0  0.30035005508E+01 -0.92502880097E+01  0.16002793799E+02  0.18726405239E+02  0.00000000000E+00 0. -1.
         11    1    3    3    0    0 -0.88714368385E+01  0.17671852617E+02  0.21395750490E+02  0.29133741706E+02  0.51100000000E-03 0. -1.
        -11    1    3    3    0    0  0.41973220960E+01 -0.10513720235E+01  0.79019042721E+00  0.43985562497E+01  0.51100000000E-03 0.  1.
        -12    1    3    3    0    0  0.16706141918E+01 -0.73701925841E+01 -0.38188734716E+02  0.38929296805E+02  0.00000000000E+00 0.  1.
</event>
<event>
 7    1  0.1692604E-013  0.7246156E+02  0.7816164E-02  0.1226708E+00
        -11   -1    0    0    0    0  0.00000000000E+00  0.00000000000E+00  0.45593999997E+02  0.45594000000E+02  0.51100000000E-03 0.  1.
         11   -1    0    0    0    0 -0.00000000000E+00 -0.00000000000E+00 -0.45593999997E+02  0.45594000000E+02  0.51100000000E-03 0. -1.
    9900012    2    1    2    0    0 -0.70519164393E+01  0.11762883589E+02  0.12750871612E+02  0.72461556594E+02  0.69999982152E+02 0.  0.
         12    1    1    2    0    0  0.70519164393E+01 -0.11762883589E+02 -0.12750871612E+02  0.18726443406E+02  0.00000000000E+00 0. -1.
         11    1    3    3    0    0  0.84381318841E+01 -0.42753185450E+00 -0.23541324730E+01  0.87707920476E+01  0.51100000000E-03 0. -1.
        -11    1    3    3    0    0 -0.10700410008E+02  0.33701681292E+02 -0.25521609229E+01  0.35451595477E+02  0.51100000000E-03 0.  1.
         12    1    3    3    0    0 -0.47896383155E+01 -0.21511265849E+02  0.17657165008E+02  0.28239169069E+02  0.00000000000E+00 0. -1.
</event>
<event>
 7    1  0.1692604E-013  0.7246157E+02  0.7816164E-02  0.1226708E+00
        -11   -1    0    0    0    0  0.00000000000E+00  0.00000000000E+00  0.45593999997E+02  0.45594000000E+02  0.51100000000E-03 0. -1.
         11   -1    0    0    0    0 -0.00000000000E+00 -0.00000000000E+00 -0.45593999997E+02  0.45594000000E+02  0.51100000000E-03 0.  1.
    9900012    2    1    2    0    0  0.34264596925E+01 -0.17793717777E+02 -0.47246258612E+01  0.72461571940E+02  0.70000002144E+02 0.  0.
         12    1    1    2    0    0 -0.34264596925E+01  0.17793717777E+02  0.47246258612E+01  0.18726428060E+02  0.00000000000E+00 0. -1.
         11    1    3    3    0    0  0.23151357366E+01 -0.73437461519E+01 -0.67445339647E+01  0.10236171144E+02  0.51100000000E-03 0. -1.
        -11    1    3    3    0    0 -0.18504243121E+02  0.13102819140E+02 -0.14980214050E+02  0.27175314095E+02  0.51100000000E-03 0.  1.
         12    1    3    3    0    0  0.19615567077E+02 -0.23552790765E+02  0.17000122153E+02  0.35050086702E+02  0.00000000000E+00 0. -1.
</event>
<event>
 7    1  0.1692604E-013  0.7246153E+02  0.7816164E-02  0.1226708E+00
        -11   -1    0    0    0    0  0.00000000000E+00  0.00000000000E+00  0.45593999997E+02  0.45594000000E+02  0.51100000000E-03 0. -1.
         11   -1    0    0    0    0 -0.00000000000E+00 -0.00000000000E+00 -0.45593999997E+02  0.45594000000E+02  0.51100000000E-03 0.  1.
    9900012    2    1    2    0    0  0.69779852030E+01  0.17139278762E+02  0.28694415996E+01  0.72461525450E+02  0.69999941582E+02 0.  0.
         12    1    1    2    0    0 -0.69779852030E+01 -0.17139278762E+02 -0.28694415996E+01  0.18726474550E+02  0.00000000000E+00 0. -1.
         11    1    3    3    0    0  0.13282054420E+02  0.25886572099E+02 -0.48891251228E+00  0.29099254636E+02  0.51100000000E-03 0. -1.
        -11    1    3    3    0    0 -0.67309624826E+01  0.12515234651E+02 -0.10769646746E+02  0.17830374242E+02  0.51100000000E-03 0.  1.
         12    1    3    3    0    0  0.42689326548E+00 -0.21262527988E+02  0.14128000858E+02  0.25531896572E+02  0.00000000000E+00 0. -1.
</event>
<event>
 7    1  0.1692604E-013  0.7246168E+02  0.7816164E-02  0.1226708E+00
        -11   -1    0    0    0    0  0.00000000000E+00  0.00000000000E+00  0.45593999997E+02  0.45594000000E+02  0.51100000000E-03 0.  1.
         11   -1    0    0    0    0 -0.00000000000E+00 -0.00000000000E+00 -0.45593999997E+02  0.45594000000E+02  0.51100000000E-03 0. -1.
    9900012    2    1    2    0    0  0.12582040261E+02  0.99656737013E+01 -0.96463875940E+01  0.72461676734E+02  0.70000138657E+02 0.  0.
         12    1    1    2    0    0 -0.12582040261E+02 -0.99656737013E+01  0.96463875940E+01  0.18726323266E+02  0.00000000000E+00 0. -1.
         11    1    3    3    0    0 -0.12103691345E+02 -0.53882885756E+01 -0.41340939008E+01  0.13878895150E+02  0.51100000000E-03 0. -1.
        -11    1    3    3    0    0 -0.48796076257E+01  0.26330787301E+02 -0.20963095544E+01  0.26861039527E+02  0.51100000000E-03 0.  1.
         12    1    3    3    0    0  0.29565339231E+02 -0.10976825024E+02 -0.34159841388E+01  0.31721742057E+02  0.00000000000E+00 0. -1.
</event>
<event>
 7    1  0.1692604E-013  0.7246151E+02  0.7816164E-02  0.1226708E+00
        -11   -1    0    0    0    0  0.00000000000E+00  0.00000000000E+00  0.45593999997E+02  0.45594000000E+02  0.51100000000E-03 0. -1.
         11   -1    0    0    0    0 -0.00000000000E+00 -0.00000000000E+00 -0.45593999997E+02  0.45594000000E+02  0.51100000000E-03 0.  1.
    9900012    2    1    2    0    0 -0.59102869105E+01  0.14571515449E+02 -0.10169606806E+02  0.72461509233E+02  0.69999920456E+02 0.  0.
         12    1    1    2    0    0  0.59102869105E+01 -0.14571515449E+02  0.10169606806E+02  0.18726490767E+02  0.00000000000E+00 0. -1.
         11    1    3    3    0    0 -0.36202564702E+01 -0.10490420718E+02  0.21700157290E+02  0.24373182198E+02  0.51100000000E-03 0. -1.
        -11    1    3    3    0    0 -0.36238148600E+01 -0.14379819003E+01 -0.17469100002E+02  0.17898862568E+02  0.51100000000E-03 0.  1.
        -12    1    3    3    0    0  0.13337844198E+01  0.26499918068E+02 -0.14400664094E+02  0.30189464468E+02  0.00000000000E+00 0.  1.
</event>
<event>
 7    1  0.1692604E-013  0.7246163E+02  0.7816164E-02  0.1226708E+00
        -11   -1    0    0    0    0  0.00000000000E+00  0.00000000000E+00  0.45593999997E+02  0.45594000000E+02  0.51100000000E-03 0.  1.
         11   -1    0    0    0    0 -0.00000000000E+00 -0.00000000000E+00 -0.45593999997E+02  0.45594000000E+02  0.51100000000E-03 0. -1.
    9900012    2    1    2    0    0  0.84574100216E+00  0.64629609534E+01  0.17555396464E+02  0.72461625895E+02  0.70000072430E+02 0.  0.
         12    1    1    2    0    0 -0.84574100216E+00 -0.64629609534E+01 -0.17555396464E+02  0.18726374105E+02  0.00000000000E+00 0. -1.
         11    1    3    3    0    0 -0.74852863717E+01 -0.22584023998E+02  0.13074812827E+02  0.27148082487E+02  0.51100000000E-03 0. -1.
        -11    1    3    3    0    0 -0.27746357385E+01  0.85074370502E+01 -0.13254351027E+02  0.15992276575E+02  0.51100000000E-03 0.  1.
        -12    1    3    3    0    0  0.11105663112E+02  0.20539547901E+02  0.17734934663E+02  0.29321266833E+02  0.00000000000E+00 0.  1.
</event>
<event>
 7    1  0.1692604E-013  0.7246159E+02  0.7816164E-02  0.1226708E+00
        -11   -1    0    0    0    0  0.00000000000E+00  0.00000000000E+00  0.45593999997E+02  0.45594000000E+02  0.51100000000E-03 0. -1.
         11   -1    0    0    0    0 -0.00000000000E+00 -0.00000000000E+00 -0.45593999997E+02  0.45594000000E+02  0.51100000000E-03 0.  1.
    9900012    2    1    2    0    0 -0.17467080864E+01  0.14948408202E+02 -0.11143280157E+02  0.72461585779E+02  0.70000020172E+02 0.  0.
         12    1    1    2    0    0  0.17467080864E+01 -0.14948408202E+02  0.11143280157E+02  0.18726414221E+02  0.00000000000E+00 0. -1.
         11    1    3    3    0    0  0.37373309181E+01 -0.54589997917E+01  0.12306030077E+02  0.13971639046E+02  0.51100000000E-03 0. -1.
        -11    1    3    3    0    0  0.20189619989E+02 -0.47858200709E+00 -0.11876833323E+02  0.23428806331E+02  0.51100000000E-03 0.  1.
         12    1    3    3    0    0 -0.25673658994E+02  0.20885990001E+02 -0.11572476911E+02  0.35061140402E+02  0.00000000000E+00 0. -1.
</event>
<event>
 7    1  0.1692604E-013  0.7246158E+02  0.7816164E-02  0.1226708E+00
        -11   -1    0    0    0    0  0.00000000000E+00  0.00000000000E+00  0.45593999997E+02  0.45594000000E+02  0.51100000000E-03 0.  1.
         11   -1    0    0    0    0 -0.00000000000E+00 -0.00000000000E+00 -0.45593999997E+02  0.45594000000E+02  0.51100000000E-03 0. -1.
    9900012    2    1    2    0    0 -0.14217126155E+02 -0.27033987803E+01  0.11884598525E+02  0.72461582212E+02  0.70000015525E+02 0.  0.
         12    1    1    2    0    0  0.14217126155E+02  0.27033987803E+01 -0.11884598525E+02  0.18726417788E+02  0.00000000000E+00 0. -1.
         11    1    3    3    0    0 -0.85530952120E+01  0.24844834231E+02 -0.74490634023E+01  0.27311348768E+02  0.51100000000E-03 0. -1.
        -11    1    3    3    0    0  0.54661446872E+01  0.37231438324E+01  0.72818836790E+01  0.98369897790E+01  0.51100000000E-03 0.  1.
        -12    1    3    3    0    0 -0.11130175630E+02 -0.31271376844E+02  0.12051778248E+02  0.35313243666E+02  0.00000000000E+00 0.  1.
</event>
<event>
 7    1  0.1692604E-013  0.7246091E+02  0.7816164E-02  0.1226710E+00
        -11   -1    0    0    0    0  0.00000000000E+00  0.00000000000E+00  0.45593999997E+02  0.45594000000E+02  0.51100000000E-03 0.  1.
         11   -1    0    0    0    0 -0.00000000000E+00 -0.00000000000E+00 -0.45593999997E+02  0.45594000000E+02  0.51100000000E-03 0. -1.
    9900012    2    1    2    0    0 -0.66173839234E+01  0.30325264779E+01  0.17254500660E+02  0.72460913204E+02  0.69999144013E+02 0.  0.
         12    1    1    2    0    0  0.66173839234E+01 -0.30325264779E+01 -0.17254500660E+02  0.18727086796E+02  0.00000000000E+00 0. -1.
         11    1    3    3    0    0  0.47116713281E+01  0.15267540781E+02 -0.17658397913E+02  0.23814211415E+02  0.51100000000E-03 0. -1.
        -11    1    3    3    0    0 -0.32993129723E+01 -0.26471583603E+01 -0.51573543205E+01  0.66701737101E+01  0.51100000000E-03 0.  1.
        -12    1    3    3    0    0 -0.80297422792E+01 -0.95878559425E+01  0.40070252894E+02  0.41976528079E+02  0.00000000000E+00 0.  1.
</event>
<event>
 7    1  0.1692604E-013  0.7246161E+02  0.7816164E-02  0.1226708E+00
        -11   -1    0    0    0    0  0.00000000000E+00  0.00000000000E+00  0.45593999997E+02  0.45594000000E+02  0.51100000000E-03 0. -1.
         11   -1    0    0    0    0 -0.00000000000E+00 -0.00000000000E+00 -0.45593999997E+02  0.45594000000E+02  0.51100000000E-03 0.  1.
    9900012    2    1    2    0    0 -0.18634283461E+02 -0.57631170919E+00  0.17632962783E+01  0.72461605017E+02  0.70000045232E+02 0.  0.
         12    1    1    2    0    0  0.18634283461E+02  0.57631170919E+00 -0.17632962783E+01  0.18726394983E+02  0.00000000000E+00 0. -1.
         11    1    3    3    0    0  0.91192773197E+00  0.10396026847E+02  0.44164045158E+01  0.11331973151E+02  0.51100000000E-03 0. -1.
        -11    1    3    3    0    0 -0.21902558061E+02  0.16442279128E+02  0.12062398769E+02  0.29926109952E+02  0.51100000000E-03 0.  1.
         12    1    3    3    0    0  0.23563468673E+01 -0.27414617684E+02 -0.14715507006E+02  0.31203521913E+02  0.00000000000E+00 0. -1.
</event>
<event>
 7    1  0.1692604E-013  0.7246150E+02  0.7816164E-02  0.1226708E+00
        -11   -1    0    0    0    0  0.00000000000E+00  0.00000000000E+00  0.45593999997E+02  0.45594000000E+02  0.51100000000E-03 0. -1.
         11   -1    0    0    0    0 -0.00000000000E+00 -0.00000000000E+00 -0.45593999997E+02  0.45594000000E+02  0.51100000000E-03 0.  1.
    9900012    2    1    2    0    0 -0.18231152779E+02 -0.23099059061E+01 -0.36015386409E+01  0.72461503330E+02  0.69999912766E+02 0.  0.
         12    1    1    2    0    0  0.18231152779E+02  0.23099059061E+01  0.36015386409E+01  0.18726496670E+02  0.00000000000E+00 0. -1.
         11    1    3    3    0    0  0.18264461069E+02  0.12021977913E+02 -0.11424845090E+02  0.24670743335E+02  0.51100000000E-03 0. -1.
        -11    1    3    3    0    0  0.21879902737E+01  0.25990417829E+01 -0.26220185806E+01  0.42915383402E+01  0.51100000000E-03 0.  1.
        -12    1    3    3    0    0 -0.38683604122E+02 -0.16930925602E+02  0.10445325030E+02  0.43499221655E+02  0.00000000000E+00 0.  1.
</event>
<event>
 7    1  0.1692604E-013  0.7246155E+02  0.7816164E-02  0.1226708E+00
        -11   -1    0    0    0    0  0.00000000000E+00  0.00000000000E+00  0.45593999997E+02  0.45594000000E+02  0.51100000000E-03 0.  1.
         11   -1    0    0    0    0 -0.00000000000E+00 -0.00000000000E+00 -0.45593999997E+02  0.45594000000E+02  0.51100000000E-03 0. -1.
    9900012    2    1    2    0    0  0.19696056611E+00  0.13333067348E+02  0.13148015083E+02  0.72461554021E+02  0.69999978801E+02 0.  0.
         12    1    1    2    0    0 -0.19696056611E+00 -0.13333067348E+02 -0.13148015083E+02  0.18726445979E+02  0.00000000000E+00 0. -1.
         11    1    3    3    0    0  0.19813732798E+01 -0.33423577993E+01 -0.47067559822E+00  0.39139151131E+01  0.51100000000E-03 0. -1.
        -11    1    3    3    0    0 -0.13049636657E+02 -0.64194504607E+01  0.33197117324E+02  0.36242943589E+02  0.51100000000E-03 0.  1.
         12    1    3    3    0    0  0.11265223944E+02  0.23094875608E+02 -0.19578426643E+02  0.32304695319E+02  0.00000000000E+00 0. -1.
</event>
<event>
 7    1  0.1692604E-013  0.7246170E+02  0.7816164E-02  0.1226708E+00
        -11   -1    0    0    0    0  0.00000000000E+00  0.00000000000E+00  0.45593999997E+02  0.45594000000E+02  0.51100000000E-03 0. -1.
         11   -1    0    0    0    0 -0.00000000000E+00 -0.00000000000E+00 -0.45593999997E+02  0.45594000000E+02  0.51100000000E-03 0.  1.
    9900012    2    1    2    0    0 -0.63090237883E+01  0.16621048381E+02 -0.58831504004E+01  0.72461695263E+02  0.70000162795E+02 0.  0.
         12    1    1    2    0    0  0.63090237883E+01 -0.16621048381E+02  0.58831504004E+01  0.18726304737E+02  0.00000000000E+00 0. -1.
         11    1    3    3    0    0 -0.67151013860E+01  0.64600192033E+01 -0.12212435533E+02  0.15361250491E+02  0.51100000000E-03 0. -1.
        -11    1    3    3    0    0 -0.72245914146E+01  0.76710193352E+01 -0.23742499514E+02  0.25975864609E+02  0.51100000000E-03 0.  1.
         12    1    3    3    0    0  0.76306690123E+01  0.24900098426E+01  0.30071784646E+02  0.31124580164E+02  0.00000000000E+00 0. -1.
</event>
<event>
 7    1  0.1692604E-013  0.7246175E+02  0.7816164E-02  0.1226708E+00
        -11   -1    0    0    0    0  0.00000000000E+00  0.00000000000E+00  0.45593999997E+02  0.45594000000E+02  0.51100000000E-03 0.  1.
         11   -1    0    0    0    0 -0.00000000000E+00 -0.00000000000E+00 -0.45593999997E+02  0.45594000000E+02  0.51100000000E-03 0. -1.
    9900012    2    1    2    0    0 -0.60255353930E+01  0.17525990705E+02 -0.26842193484E+01  0.72461749428E+02  0.70000233354E+02 0.  0.
         12    1    1    2    0    0  0.60255353930E+01 -0.17525990705E+02  0.26842193484E+01  0.18726250572E+02  0.00000000000E+00 0. -1.
         11    1    3    3    0    0 -0.65331271624E+01 -0.50433782536E+01  0.13270712852E+01  0.83593380830E+01  0.51100000000E-03 0. -1.
        -11    1    3    3    0    0 -0.13979293937E+02  0.18952228043E+02 -0.27539712561E+02  0.36235940376E+02  0.51100000000E-03 0.  1.
         12    1    3    3    0    0  0.14486885706E+02  0.36171409157E+01  0.23528421927E+02  0.27866470969E+02  0.00000000000E+00 0. -1.
</event>
<event>
 7    1  0.1692604E-013  0.7246151E+02  0.7816164E-02  0.1226708E+00
        -11   -1    0    0    0    0  0.00000000000E+00  0.00000000000E+00  0.45593999997E+02  0.45594000000E+02  0.51100000000E-03 0.  1.
         11   -1    0    0    0    0 -0.00000000000E+00 -0.00000000000E+00 -0.45593999997E+02  0.45594000000E+02  0.51100000000E-03 0. -1.
    9900012    2    1    2    0    0 -0.16581829126E+02  0.85268421110E+01  0.17370156667E+01  0.72461512957E+02  0.69999925307E+02 0.  0.
         12    1    1    2    0    0  0.16581829126E+02 -0.85268421110E+01 -0.17370156667E+01  0.18726487043E+02  0.00000000000E+00 0. -1.
         11    1    3    3    0    0 -0.15839022088E+02  0.53609372674E+01 -0.99800479360E+01  0.19473459532E+02  0.51100000000E-03 0. -1.
        -11    1    3    3    0    0 -0.33449767533E+01  0.24169229397E+02 -0.62932055852E+01  0.25198114135E+02  0.51100000000E-03 0.  1.
         12    1    3    3    0    0  0.26021697148E+01 -0.21003324554E+02  0.18010269188E+02  0.27789939290E+02  0.00000000000E+00 0. -1.
</event>
<event>
 7    1  0.1692604E-013  0.7246154E+02  0.7816164E-02  0.1226708E+00
        -11   -1    0    0    0    0  0.00000000000E+00  0.00000000000E+00  0.45593999997E+02  0.45594000000E+02  0.51100000000E-03 0.  1.
         11   -1    0    0    0    0 -0.00000000000E+00 -0.00000000000E+00 -0.45593999997E+02  0.45594000000E+02  0.51100000000E-03 0. -1.
    9900012    2    1    2    0    0 -0.17758484924E+02  0.14667209414E+01  0.57589165551E+01  0.72461543395E+02  0.69999964958E+02 0.  0.
         12    1    1    2    0    0  0.17758484924E+02 -0.14667209414E+01 -0.57589165551E+01  0.18726456605E+02  0.00000000000E+00 0. -1.
         11    1    3    3    0    0 -0.79360793873E+01 -0.15842600356E+02 -0.13836710826E+02  0.22481634923E+02  0.51100000000E-03 0. -1.
        -11    1    3    3    0    0 -0.21389002798E+02 -0.72735902954E+00  0.70205209395E+00  0.21412878584E+02  0.51100000000E-03 0.  1.
        -12    1    3    3    0    0  0.11566597262E+02  0.18036680327E+02  0.18893575287E+02  0.28567029887E+02  0.00000000000E+00 0.  1.
</event>
<event>
 7    1  0.1692604E-013  0.7246157E+02  0.7816164E-02  0.1226708E+00
        -11   -1    0    0    0    0  0.00000000000E+00  0.00000000000E+00  0.45593999997E+02  0.45594000000E+02  0.51100000000E-03 0. -1.
         11   -1    0    0    0    0 -0.00000000000E+00 -0.00000000000E+00 -0.45593999997E+02  0.45594000000E+02  0.51100000000E-03 0.  1.
    9900012    2    1    2    0    0  0.99297805055E+01  0.92817705030E+01 -0.12881279857E+02  0.72461570140E+02  0.69999999799E+02 0.  0.
         12    1    1    2    0    0 -0.99297805055E+01 -0.92817705030E+01  0.12881279857E+02  0.18726429860E+02  0.00000000000E+00 0. -1.
         11    1    3    3    0    0 -0.11532694091E+02 -0.60229256659E+01  0.27639206456E+01  0.13301049739E+02  0.51100000000E-03 0. -1.
        -11    1    3    3    0    0 -0.16107572290E+02  0.10217343998E+02 -0.65914044458E+01  0.20181541474E+02  0.51100000000E-03 0.  1.
         12    1    3    3    0    0  0.37570046886E+02  0.50873521711E+01 -0.90537960564E+01  0.38978978927E+02  0.00000000000E+00 0. -1.
</event>
<event>
 7    1  0.1692604E-013  0.7246160E+02  0.7816164E-02  0.1226708E+00
        -11   -1    0    0    0    0  0.00000000000E+00  0.00000000000E+00  0.45593999997E+02  0.45594000000E+02  0.51100000000E-03 0. -1.
         11   -1    0    0    0    0 -0.00000000000E+00 -0.00000000000E+00 -0.45593999997E+02  0.45594000000E+02  0.51100000000E-03 0.  1.
    9900012    2    1    2    0    0 -0.12737200997E+02 -0.13435055885E+02 -0.28179830990E+01  0.72461600329E+02  0.70000039126E+02 0.  0.
         12    1    1    2    0    0  0.12737200997E+02  0.13435055885E+02  0.28179830990E+01  0.18726399671E+02  0.00000000000E+00 0. -1.
         11    1    3    3    0    0 -0.18396425531E+02 -0.56015655985E+01  0.27892486507E+02  0.33879150126E+02  0.51100000000E-03 0.  1.
        -11    1    3    3    0    0  0.96864663438E+01  0.37228903133E+01 -0.93680636523E+01  0.13980277514E+02  0.51100000000E-03 0. -1.
        -12    1    3    3    0    0 -0.40272418101E+01 -0.11556380600E+02 -0.21342405953E+02  0.24602172690E+02  0.00000000000E+00 0.  1.
</event>
<event>
 7    1  0.1692604E-013  0.7246172E+02  0.7816164E-02  0.1226708E+00
        -11   -1    0    0    0    0  0.00000000000E+00  0.00000000000E+00  0.45593999997E+02  0.45594000000E+02  0.51100000000E-03 0. -1.
         11   -1    0    0    0    0 -0.00000000000E+00 -0.00000000000E+00 -0.45593999997E+02  0.45594000000E+02  0.51100000000E-03 0.  1.
    9900012    2    1    2    0    0 -0.16998987452E+02 -0.34428117561E+01 -0.70608197757E+01  0.72461716250E+02  0.70000190134E+02 0.  0.
         12    1    1    2    0    0  0.16998987452E+02  0.34428117561E+01  0.70608197757E+01  0.18726283750E+02  0.00000000000E+00 0. -1.
         11    1    3    3    0    0  0.36178146515E+01 -0.75224556983E+01 -0.52403714703E+01  0.98558315729E+01  0.51100000000E-03 0. -1.
        -11    1    3    3    0    0 -0.29728889824E+02  0.68719137084E+01 -0.23768632041E+02  0.38677874264E+02  0.51100000000E-03 0.  1.
         12    1    3    3    0    0  0.91120877211E+01 -0.27922697662E+01  0.21948183735E+02  0.23928010414E+02  0.00000000000E+00 0. -1.
</event>
<event>
 7    1  0.1692604E-013  0.7246152E+02  0.7816164E-02  0.1226708E+00
        -11   -1    0    0    0    0  0.00000000000E+00  0.00000000000E+00  0.45593999997E+02  0.45594000000E+02  0.51100000000E-03 0.  1.
         11   -1    0    0    0    0 -0.00000000000E+00 -0.00000000000E+00 -0.45593999997E+02  0.45594000000E+02  0.51100000000E-03 0. -1.
    9900012    2    1    2    0    0  0.22098620928E+01  0.18336629251E+01  0.18505007164E+02  0.72461518741E+02  0.69999932842E+02 0.  0.
         12    1    1    2    0    0 -0.22098620928E+01 -0.18336629251E+01 -0.18505007164E+02  0.18726481259E+02  0.00000000000E+00 0. -1.
         11    1    3    3    0    0 -0.95481089509E+01  0.29023448142E+02  0.19080659124E+01  0.30613193927E+02  0.51100000000E-03 0. -1.
        -11    1    3    3    0    0  0.83823510468E+01 -0.62379631299E+01 -0.49879045544E+01  0.11578220294E+02  0.51100000000E-03 0.  1.
        -12    1    3    3    0    0  0.33756199970E+01 -0.20951822088E+02  0.21584845806E+02  0.30270104520E+02  0.00000000000E+00 0.  1.
</event>
<event>
 7    1  0.1692604E-013  0.7246148E+02  0.7816164E-02  0.1226708E+00
        -11   -1    0    0    0    0  0.00000000000E+00  0.00000000000E+00  0.45593999997E+02  0.45594000000E+02  0.51100000000E-03 0.  1.
         11   -1    0    0    0    0 -0.00000000000E+00 -0.00000000000E+00 -0.45593999997E+02  0.45594000000E+02  0.51100000000E-03 0. -1.
    9900012    2    1    2    0    0 -0.13238325929E+02 -0.26056045764E+01  0.12986155831E+02  0.72461476247E+02  0.69999877486E+02 0.  0.
         12    1    1    2    0    0  0.13238325929E+02  0.26056045764E+01 -0.12986155831E+02  0.18726523753E+02  0.00000000000E+00 0. -1.
         11    1    3    3    0    0  0.43764865679E+00  0.32967267236E+02  0.64064724990E+01  0.33586829793E+02  0.51100000000E-03 0.  1.
        -11    1    3    3    0    0 -0.31276751803E+01 -0.93814157477E+01  0.29627871782E-01  0.98890945762E+01  0.51100000000E-03 0. -1.
        -12    1    3    3    0    0 -0.10548299405E+02 -0.26191456065E+02  0.65500554605E+01  0.28985551878E+02  0.00000000000E+00 0.  1.
</event>
<event>
 7    1  0.1692604E-013  0.7246178E+02  0.7816164E-02  0.1226707E+00
        -11   -1    0    0    0    0  0.00000000000E+00  0.00000000000E+00  0.45593999997E+02  0.45594000000E+02  0.51100000000E-03 0.  1.
         11   -1    0    0    0    0 -0.00000000000E+00 -0.00000000000E+00 -0.45593999997E+02  0.45594000000E+02  0.51100000000E-03 0. -1.
    9900012    2    1    2    0    0  0.11866474928E+02  0.11472341699E+02  0.88455268478E+01  0.72461783178E+02  0.70000277319E+02 0.  0.
         12    1    1    2    0    0 -0.11866474928E+02 -0.11472341699E+02 -0.88455268478E+01  0.18726216822E+02  0.00000000000E+00 0. -1.
         11    1    3    3    0    0 -0.34453622494E+01 -0.10656268511E+02 -0.18880306629E+02  0.21952051346E+02  0.51100000000E-03 0. -1.
        -11    1    3    3    0    0 -0.95849276755E+01  0.12520415017E+01  0.52264535870E+01  0.10988824497E+02  0.51100000000E-03 0.  1.
        -12    1    3    3    0    0  0.24896764853E+02  0.20876568708E+02  0.22499379890E+02  0.39520907335E+02  0.00000000000E+00 0.  1.
</event>
<event>
 7    1  0.1692604E-013  0.7246142E+02  0.7816164E-02  0.1226708E+00
        -11   -1    0    0    0    0  0.00000000000E+00  0.00000000000E+00  0.45593999997E+02  0.45594000000E+02  0.51100000000E-03 0. -1.
         11   -1    0    0    0    0 -0.00000000000E+00 -0.00000000000E+00 -0.45593999997E+02  0.45594000000E+02  0.51100000000E-03 0.  1.
    9900012    2    1    2    0    0 -0.11772387748E+02  0.98815090206E+01 -0.10698198096E+02  0.72461420592E+02  0.69999804985E+02 0.  0.
         12    1    1    2    0    0  0.11772387748E+02 -0.98815090206E+01  0.10698198096E+02  0.18726579408E+02  0.00000000000E+00 0. -1.
         11    1    3    3    0    0 -0.16547997922E+02  0.87090138078E+01 -0.27064221241E+01  0.18894652092E+02  0.51100000000E-03 0. -1.
        -11    1    3    3    0    0 -0.54780173288E+01  0.17007245561E+02 -0.23236771946E+02  0.29312158674E+02  0.51100000000E-03 0.  1.
         12    1    3    3    0    0  0.10253627502E+02 -0.15834750348E+02  0.15244995974E+02  0.24254609826E+02  0.00000000000E+00 0. -1.
</event>
<event>
 7    1  0.1692604E-013  0.7246141E+02  0.7816164E-02  0.1226708E+00
        -11   -1    0    0    0    0  0.00000000000E+00  0.00000000000E+00  0.45593999997E+02  0.45594000000E+02  0.51100000000E-03 0.  1.
         11   -1    0    0    0    0 -0.00000000000E+00 -0.00000000000E+00 -0.45593999997E+02  0.45594000000E+02  0.51100000000E-03 0. -1.
    9900012    2    1    2    0    0 -0.12181014458E+02 -0.86239995016E+01  0.11310824249E+02  0.72461408590E+02  0.69999789350E+02 0.  0.
         12    1    1    2    0    0  0.12181014458E+02  0.86239995016E+01 -0.11310824249E+02  0.18726591410E+02  0.00000000000E+00 0. -1.
         11    1    3    3    0    0  0.61686507033E+01 -0.26039859752E+02 -0.10348376110E+02  0.28691731139E+02  0.51100000000E-03 0. -1.
        -11    1    3    3    0    0 -0.11380335446E+02  0.11223328205E+01 -0.44024024744E+01  0.12253685716E+02  0.51100000000E-03 0.  1.
        -12    1    3    3    0    0 -0.69693297149E+01  0.16293527430E+02  0.26061602834E+02  0.31515991735E+02  0.00000000000E+00 0.  1.
</event>
<event>
 7    1  0.1692604E-013  0.7246155E+02  0.7816164E-02  0.1226708E+00
        -11   -1    0    0    0    0  0.00000000000E+00  0.00000000000E+00  0.45593999997E+02  0.45594000000E+02  0.51100000000E-03 0.  1.
         11   -1    0    0    0    0 -0.00000000000E+00 -0.00000000000E+00 -0.45593999997E+02  0.45594000000E+02  0.51100000000E-03 0. -1.
    9900012    2    1    2    0    0  0.15952265010E+02  0.88024515969E+01 -0.43269110084E+01  0.72461546200E+02  0.69999968612E+02 0.  0.
         12    1    1    2    0    0 -0.15952265010E+02 -0.88024515969E+01  0.43269110084E+01  0.18726453800E+02  0.00000000000E+00 0. -1.
         11    1    3    3    0    0 -0.36617302568E+00  0.20655721963E+02  0.99012428349E+00  0.20682680649E+02  0.51100000000E-03 0. -1.
        -11    1    3    3    0    0  0.22005433912E+01 -0.13591979562E+01  0.20431792707E+02  0.20594852847E+02  0.51100000000E-03 0.  1.
        -12    1    3    3    0    0  0.14117894644E+02 -0.10494072409E+02 -0.25748827999E+02  0.31184012703E+02  0.00000000000E+00 0.  1.
</event>
<event>
 8    1  0.1692604E-013  0.7246157E+02  0.7816164E-02  0.1226708E+00
        -11   -1    0    0    0    0  0.00000000000E+00  0.00000000000E+00  0.45593999997E+02  0.45594000000E+02  0.51100000000E-03 0.  1.
         11   -1    0    0    0    0 -0.00000000000E+00 -0.00000000000E+00 -0.45593999997E+02  0.45594000000E+02  0.51100000000E-03 0. -1.
    9900012    2    1    2    0    0 -0.64903735486E+01 -0.30061280711E+01  0.17306575426E+02  0.72461566604E+02  0.69999995192E+02 0.  0.
         23    2    3    3    0    0 -0.12828010436E+02  0.78267259178E+01  0.13075015577E+02  0.59216851974E+02  0.55766154924E+02 0.  0.
         12    1    1    2    0    0  0.64903735486E+01  0.30061280711E+01 -0.17306575426E+02  0.18726433396E+02  0.00000000000E+00 0. -1.
         11    1    4    4    0    0 -0.27281862249E+02 -0.14698277672E+02  0.72856542135E+01  0.31834260347E+02  0.51100000000E-03 0. -1.
        -11    1    4    4    0    0  0.14453851812E+02  0.22525003590E+02  0.57893613639E+01  0.27382591627E+02  0.51100000000E-03 0.  1.
         12    1    3    3    0    0  0.63376368876E+01 -0.10832853989E+02  0.42315598485E+01  0.13244714629E+02  0.00000000000E+00 0. -1.
</event>
<event>
 7    1  0.1692604E-013  0.7246158E+02  0.7816164E-02  0.1226708E+00
        -11   -1    0    0    0    0  0.00000000000E+00  0.00000000000E+00  0.45593999997E+02  0.45594000000E+02  0.51100000000E-03 0.  1.
         11   -1    0    0    0    0 -0.00000000000E+00 -0.00000000000E+00 -0.45593999997E+02  0.45594000000E+02  0.51100000000E-03 0. -1.
    9900012    2    1    2    0    0  0.78956971681E+01  0.15759810772E+02 -0.63217879427E+01  0.72461583574E+02  0.70000017300E+02 0.  0.
         12    1    1    2    0    0 -0.78956971681E+01 -0.15759810772E+02  0.63217879427E+01  0.18726416426E+02  0.00000000000E+00 0. -1.
         11    1    3    3    0    0  0.11675754685E+02  0.19387829661E+02  0.15069857768E+02  0.27190288705E+02  0.51100000000E-03 0. -1.
        -11    1    3    3    0    0 -0.21125296055E+02 -0.61554336454E+01 -0.88438758550E+01  0.23714587012E+02  0.51100000000E-03 0.  1.
         12    1    3    3    0    0  0.17345238538E+02  0.25274147562E+01 -0.12547769856E+02  0.21556707857E+02  0.00000000000E+00 0. -1.
</event>
<event>
 7    1  0.1692604E-013  0.7246157E+02  0.7816164E-02  0.1226708E+00
        -11   -1    0    0    0    0  0.00000000000E+00  0.00000000000E+00  0.45593999997E+02  0.45594000000E+02  0.51100000000E-03 0.  1.
         11   -1    0    0    0    0 -0.00000000000E+00 -0.00000000000E+00 -0.45593999997E+02  0.45594000000E+02  0.51100000000E-03 0. -1.
    9900012    2    1    2    0    0 -0.20772050227E+01 -0.78785647471E+01  0.16860983149E+02  0.72461566385E+02  0.69999994907E+02 0.  0.
         12    1    1    2    0    0  0.20772050227E+01  0.78785647471E+01 -0.16860983149E+02  0.18726433615E+02  0.00000000000E+00 0. -1.
         11    1    3    3    0    0  0.24602838896E+02 -0.10410093772E+02 -0.34950324452E+01  0.26942252804E+02  0.51100000000E-03 0. -1.
        -11    1    3    3    0    0 -0.51329792346E+01  0.58313322318E+00 -0.82008941363E+01  0.96923776791E+01  0.51100000000E-03 0.  1.
        -12    1    3    3    0    0 -0.21547064684E+02  0.19483958017E+01  0.28556909731E+02  0.35826935902E+02  0.00000000000E+00 0.  1.
</event>
<event>
 7    1  0.1692604E-013  0.7246161E+02  0.7816164E-02  0.1226708E+00
        -11   -1    0    0    0    0  0.00000000000E+00  0.00000000000E+00  0.45593999997E+02  0.45594000000E+02  0.51100000000E-03 0.  1.
         11   -1    0    0    0    0 -0.00000000000E+00 -0.00000000000E+00 -0.45593999997E+02  0.45594000000E+02  0.51100000000E-03 0. -1.
    9900012    2    1    2    0    0  0.38688919068E+01 -0.44026796681E+01  0.17785550988E+02  0.72461608549E+02  0.70000049833E+02 0.  0.
         12    1    1    2    0    0 -0.38688919068E+01  0.44026796681E+01 -0.17785550988E+02  0.18726391451E+02  0.00000000000E+00 0. -1.
         11    1    3    3    0    0  0.48521350850E+01  0.78209306535E+00 -0.26255293228E+01  0.55720991495E+01  0.51100000000E-03 0. -1.
        -11    1    3    3    0    0 -0.25100666334E+02  0.10757797796E+02 -0.57407649567E+01  0.27905735009E+02  0.51100000000E-03 0.  1.
         12    1    3    3    0    0  0.24117423156E+02 -0.15942570530E+02  0.26151845267E+02  0.38983774390E+02  0.00000000000E+00 0. -1.
</event>
<event>
 7    1  0.1692604E-013  0.7246158E+02  0.7816164E-02  0.1226708E+00
        -11   -1    0    0    0    0  0.00000000000E+00  0.00000000000E+00  0.45593999997E+02  0.45594000000E+02  0.51100000000E-03 0.  1.
         11   -1    0    0    0    0 -0.00000000000E+00 -0.00000000000E+00 -0.45593999997E+02  0.45594000000E+02  0.51100000000E-03 0. -1.
    9900012    2    1    2    0    0  0.15923146583E+02  0.91819227781E+01  0.35811299382E+01  0.72461580304E+02  0.70000013039E+02 0.  0.
         12    1    1    2    0    0 -0.15923146583E+02 -0.91819227781E+01 -0.35811299382E+01  0.18726419696E+02  0.00000000000E+00 0. -1.
         11    1    3    3    0    0  0.82645546298E+01  0.48502700675E+01 -0.30923854801E+02  0.32374569943E+02  0.51100000000E-03 0. -1.
        -11    1    3    3    0    0  0.87855549133E+01 -0.15645016564E+01  0.55334858884E+01  0.10500147947E+02  0.51100000000E-03 0.  1.
        -12    1    3    3    0    0 -0.11269629599E+01  0.58961543670E+01  0.28971498851E+02  0.29586862414E+02  0.00000000000E+00 0.  1.
</event>
<event>
 7    1  0.1692604E-013  0.7246163E+02  0.7816164E-02  0.1226708E+00
        -11   -1    0    0    0    0  0.00000000000E+00  0.00000000000E+00  0.45593999997E+02  0.45594000000E+02  0.51100000000E-03 0.  1.
         11   -1    0    0    0    0 -0.00000000000E+00 -0.00000000000E+00 -0.45593999997E+02  0.45594000000E+02  0.51100000000E-03 0. -1.
    9900012    2    1    2    0    0  0.95871109091E+01 -0.12468739575E+02  0.10163405290E+02  0.72461629042E+02  0.70000076529E+02 0.  0.
         12    1    1    2    0    0 -0.95871109091E+01  0.12468739575E+02 -0.10163405290E+02  0.18726370958E+02  0.00000000000E+00 0. -1.
         11    1    3    3    0    0  0.21233816343E+02  0.14625360215E+02 -0.11336298265E+02  0.28165364839E+02  0.51100000000E-03 0.  1.
        -11    1    3    3    0    0  0.60712180696E+01 -0.17295987281E+02  0.12175132544E+02  0.22005561060E+02  0.51100000000E-03 0. -1.
        -12    1    3    3    0    0 -0.17717923504E+02 -0.97981125097E+01  0.93245710108E+01  0.22290703142E+02  0.00000000000E+00 0.  1.
</event>
<event>
 7    1  0.1692604E-013  0.7246094E+02  0.7816164E-02  0.1226710E+00
        -11   -1    0    0    0    0  0.00000000000E+00  0.00000000000E+00  0.45593999997E+02  0.45594000000E+02  0.51100000000E-03 0. -1.
         11   -1    0    0    0    0 -0.00000000000E+00 -0.00000000000E+00 -0.45593999997E+02  0.45594000000E+02  0.51100000000E-03 0.  1.
    9900012    2    1    2    0    0 -0.66342306302E+01 -0.17348612928E+02 -0.23907198912E+01  0.72460935943E+02  0.69999173635E+02 0.  0.
         12    1    1    2    0    0  0.66342306302E+01  0.17348612928E+02  0.23907198912E+01  0.18727064057E+02  0.00000000000E+00 0. -1.
         11    1    3    3    0    0  0.21917043975E+02 -0.39888340432E+01  0.55803043390E+01  0.22965352390E+02  0.51100000000E-03 0. -1.
        -11    1    3    3    0    0 -0.17493360735E+01 -0.19340304902E+02 -0.10216687980E+02  0.21942841291E+02  0.51100000000E-03 0.  1.
        -12    1    3    3    0    0 -0.26801938532E+02  0.59805260167E+01  0.22456637501E+01  0.27552742262E+02  0.00000000000E+00 0.  1.
</event>
<event>
 7    1  0.1692604E-013  0.7246168E+02  0.7816164E-02  0.1226708E+00
        -11   -1    0    0    0    0  0.00000000000E+00  0.00000000000E+00  0.45593999997E+02  0.45594000000E+02  0.51100000000E-03 0.  1.
         11   -1    0    0    0    0 -0.00000000000E+00 -0.00000000000E+00 -0.45593999997E+02  0.45594000000E+02  0.51100000000E-03 0. -1.
    9900012    2    1    2    0    0  0.83133340409E+01  0.16584572465E+02 -0.25525227436E+01  0.72461683248E+02  0.70000147143E+02 0.  0.
         12    1    1    2    0    0 -0.83133340409E+01 -0.16584572465E+02  0.25525227436E+01  0.18726316752E+02  0.00000000000E+00 0. -1.
         11    1    3    3    0    0 -0.16333874686E+02 -0.12090297337E+02 -0.11004358679E+01  0.20351454772E+02  0.51100000000E-03 0. -1.
        -11    1    3    3    0    0 -0.60984451537E+01 -0.39444427377E+01 -0.34901122706E+00  0.72712771163E+01  0.51100000000E-03 0.  1.
        -12    1    3    3    0    0  0.30745653881E+02  0.32619312540E+02 -0.11030756486E+01  0.44838951360E+02  0.00000000000E+00 0.  1.
</event>
<event>
 7    1  0.1692604E-013  0.7246158E+02  0.7816164E-02  0.1226708E+00
        -11   -1    0    0    0    0  0.00000000000E+00  0.00000000000E+00  0.45593999997E+02  0.45594000000E+02  0.51100000000E-03 0. -1.
         11   -1    0    0    0    0 -0.00000000000E+00 -0.00000000000E+00 -0.45593999997E+02  0.45594000000E+02  0.51100000000E-03 0.  1.
    9900012    2    1    2    0    0  0.17733590043E+02  0.19044619536E+01 -0.57071511240E+01  0.72461581093E+02  0.70000014067E+02 0.  0.
         12    1    1    2    0    0 -0.17733590043E+02 -0.19044619536E+01  0.57071511240E+01  0.18726418907E+02  0.00000000000E+00 0. -1.
         11    1    3    3    0    0 -0.43101967009E+01 -0.19339629001E+02 -0.17547741413E+02  0.26467381330E+02  0.51100000000E-03 0. -1.
        -11    1    3    3    0    0  0.26087227367E+02  0.40528074020E+01  0.10029830836E+02  0.28241214322E+02  0.51100000000E-03 0.  1.
        -12    1    3    3    0    0 -0.40434406232E+01  0.17191283553E+02  0.18107594530E+01  0.17752985441E+02  0.00000000000E+00 0.  1.
</event>
<event>
 7    1  0.1692604E-013  0.7246158E+02  0.7816164E-02  0.1226708E+00
        -11   -1    0    0    0    0  0.00000000000E+00  0.00000000000E+00  0.45593999997E+02  0.45594000000E+02  0.51100000000E-03 0.  1.
         11   -1    0    0    0    0 -0.00000000000E+00 -0.00000000000E+00 -0.45593999997E+02  0.45594000000E+02  0.51100000000E-03 0. -1.
    9900012    2    1    2    0    0 -0.17698803177E+02  0.57599815330E+01  0.20625067123E+01  0.72461576019E+02  0.70000007458E+02 0.  0.
         12    1    1    2    0    0  0.17698803177E+02 -0.57599815330E+01 -0.20625067123E+01  0.18726423981E+02  0.00000000000E+00 0. -1.
         11    1    3    3    0    0 -0.15021727923E+02 -0.22733137554E+02  0.67411886809E+01  0.28069404660E+02  0.51100000000E-03 0. -1.
        -11    1    3    3    0    0 -0.72626511656E+01  0.53433075859E+01  0.12349403459E+02  0.15290677028E+02  0.51100000000E-03 0.  1.
         12    1    3    3    0    0  0.45855759117E+01  0.23149811501E+02 -0.17028085428E+02  0.29101494332E+02  0.00000000000E+00 0. -1.
</event>
<event>
 7    1  0.1692604E-013  0.7246134E+02  0.7816164E-02  0.1226709E+00
        -11   -1    0    0    0    0  0.00000000000E+00  0.00000000000E+00  0.45593999997E+02  0.45594000000E+02  0.51100000000E-03 0.  1.
         11   -1    0    0    0    0 -0.00000000000E+00 -0.00000000000E+00 -0.45593999997E+02  0.45594000000E+02  0.51100000000E-03 0. -1.
    9900012    2    1    2    0    0 -0.17549629277E+02  0.15538303348E+01  0.63469547499E+01  0.72461342235E+02  0.69999702909E+02 0.  0.
         12    1    1    2    0    0  0.17549629277E+02 -0.15538303348E+01 -0.63469547499E+01  0.18726657765E+02  0.00000000000E+00 0. -1.
         11    1    3    3    0    0 -0.18270019931E+02 -0.70377897390E+01 -0.11705054088E+02  0.22810795781E+02  0.51100000000E-03 0. -1.
        -11    1    3    3    0    0  0.79294288098E+01  0.93479360712E+01 -0.12938773018E+02  0.17823344173E+02  0.51100000000E-03 0.  1.
        -12    1    3    3    0    0 -0.72090381550E+01 -0.75631599744E+00  0.30990781855E+02  0.31827202281E+02  0.00000000000E+00 0.  1.
</event>
<event>
 7    1  0.1692604E-013  0.7246155E+02  0.7816164E-02  0.1226708E+00
        -11   -1    0    0    0    0  0.00000000000E+00  0.00000000000E+00  0.45593999997E+02  0.45594000000E+02  0.51100000000E-03 0. -1.
         11   -1    0    0    0    0 -0.00000000000E+00 -0.00000000000E+00 -0.45593999997E+02  0.45594000000E+02  0.51100000000E-03 0.  1.
    9900012    2    1    2    0    0  0.22657752773E+01 -0.22728715928E+01 -0.18449393943E+02  0.72461552933E+02  0.69999977384E+02 0.  0.
         12    1    1    2    0    0 -0.22657752773E+01  0.22728715928E+01  0.18449393943E+02  0.18726447067E+02  0.00000000000E+00 0. -1.
         11    1    3    3    0    0 -0.14143225458E+02 -0.65351968898E+01  0.21414064840E+02  0.26482103352E+02  0.51100000000E-03 0. -1.
        -11    1    3    3    0    0 -0.10710681002E+01  0.34940007758E+01 -0.15861023246E+02  0.16276587080E+02  0.51100000000E-03 0.  1.
        -12    1    3    3    0    0  0.17480068835E+02  0.76832452125E+00 -0.24002435537E+02  0.29702862501E+02  0.00000000000E+00 0.  1.
</event>
<event>
 7    1  0.1692604E-013  0.7246158E+02  0.7816164E-02  0.1226708E+00
        -11   -1    0    0    0    0  0.00000000000E+00  0.00000000000E+00  0.45593999997E+02  0.45594000000E+02  0.51100000000E-03 0. -1.
         11   -1    0    0    0    0 -0.00000000000E+00 -0.00000000000E+00 -0.45593999997E+02  0.45594000000E+02  0.51100000000E-03 0.  1.
    9900012    2    1    2    0    0 -0.20320053994E+01 -0.15532810673E+02 -0.10260677277E+02  0.72461581454E+02  0.70000014538E+02 0.  0.
         12    1    1    2    0    0  0.20320053994E+01  0.15532810673E+02  0.10260677277E+02  0.18726418546E+02  0.00000000000E+00 0. -1.
         11    1    3    3    0    0 -0.25745631921E+01 -0.14086229432E+02  0.41938948575E+01  0.14921092104E+02  0.51100000000E-03 0. -1.
        -11    1    3    3    0    0  0.98760204625E+01  0.24264040305E+02 -0.14990946419E+02  0.30182907529E+02  0.51100000000E-03 0.  1.
         12    1    3    3    0    0 -0.93334626698E+01 -0.25710621546E+02  0.53637428465E+00  0.27357581821E+02  0.00000000000E+00 0. -1.
</event>
<event>
 7    1  0.1692604E-013  0.7246152E+02  0.7816164E-02  0.1226708E+00
        -11   -1    0    0    0    0  0.00000000000E+00  0.00000000000E+00  0.45593999997E+02  0.45594000000E+02  0.51100000000E-03 0.  1.
         11   -1    0    0    0    0 -0.00000000000E+00 -0.00000000000E+00 -0.45593999997E+02  0.45594000000E+02  0.51100000000E-03 0. -1.
    9900012    2    1    2    0    0 -0.91899056034E+01 -0.76599761471E+01  0.14406649338E+02  0.72461517556E+02  0.69999931299E+02 0.  0.
         12    1    1    2    0    0  0.91899056034E+01  0.76599761471E+01 -0.14406649338E+02  0.18726482444E+02  0.00000000000E+00 0. -1.
         11    1    3    3    0    0 -0.15670832590E+02 -0.59715576876E+01 -0.18695955371E+02  0.25115199437E+02  0.51100000000E-03 0. -1.
        -11    1    3    3    0    0  0.85792334281E+01 -0.11224431372E+02  0.14265524947E+01  0.14199512602E+02  0.51100000000E-03 0.  1.
        -12    1    3    3    0    0 -0.20983064415E+01  0.95360129128E+01  0.31676052214E+02  0.33146805518E+02  0.00000000000E+00 0.  1.
</event>
<event>
 7    1  0.1692604E-013  0.7246152E+02  0.7816164E-02  0.1226708E+00
        -11   -1    0    0    0    0  0.00000000000E+00  0.00000000000E+00  0.45593999997E+02  0.45594000000E+02  0.51100000000E-03 0.  1.
         11   -1    0    0    0    0 -0.00000000000E+00 -0.00000000000E+00 -0.45593999997E+02  0.45594000000E+02  0.51100000000E-03 0. -1.
    9900012    2    1    2    0    0  0.90661189575E+00 -0.91594240726E+01  0.16308400589E+02  0.72461523443E+02  0.69999938967E+02 0.  0.
         12    1    1    2    0    0 -0.90661189575E+00  0.91594240726E+01 -0.16308400589E+02  0.18726476557E+02  0.00000000000E+00 0. -1.
         11    1    3    3    0    0  0.81881465795E+01 -0.12789819547E+01 -0.14131897597E+02  0.16382675887E+02  0.51100000000E-03 0. -1.
        -11    1    3    3    0    0 -0.81354811588E+01  0.18026004058E+02  0.65644309897E+01  0.20837817315E+02  0.51100000000E-03 0.  1.
         12    1    3    3    0    0  0.85394647507E+00 -0.25906446176E+02  0.23875867197E+02  0.35241030241E+02  0.00000000000E+00 0. -1.
</event>
<event>
 7    1  0.1692604E-013  0.7246148E+02  0.7816164E-02  0.1226708E+00
        -11   -1    0    0    0    0  0.00000000000E+00  0.00000000000E+00  0.45593999997E+02  0.45594000000E+02  0.51100000000E-03 0. -1.
         11   -1    0    0    0    0 -0.00000000000E+00 -0.00000000000E+00 -0.45593999997E+02  0.45594000000E+02  0.51100000000E-03 0.  1.
    9900012    2    1    2    0    0 -0.11040135230E+02  0.98498325587E+01 -0.11479492140E+02  0.72461480645E+02  0.69999883216E+02 0.  0.
         12    1    1    2    0    0  0.11040135230E+02 -0.98498325587E+01  0.11479492140E+02  0.18726519355E+02  0.00000000000E+00 0. -1.
         11    1    3    3    0    0 -0.14624852354E+02  0.42543887895E+01 -0.65405523963E+01  0.16576035601E+02  0.51100000000E-03 0.  1.
        -11    1    3    3    0    0 -0.20532544435E+01  0.17092299963E+02  0.20882338241E+02  0.27063529380E+02  0.51100000000E-03 0. -1.
        -12    1    3    3    0    0  0.56379715669E+01 -0.11496856194E+02 -0.25821277985E+02  0.28821915664E+02  0.00000000000E+00 0.  1.
</event>
<event>
 7    1  0.1692604E-013  0.7246166E+02  0.7816164E-02  0.1226708E+00
        -11   -1    0    0    0    0  0.00000000000E+00  0.00000000000E+00  0.45593999997E+02  0.45594000000E+02  0.51100000000E-03 0. -1.
         11   -1    0    0    0    0 -0.00000000000E+00 -0.00000000000E+00 -0.45593999997E+02  0.45594000000E+02  0.51100000000E-03 0.  1.
    9900012    2    1    2    0    0  0.40419232279E+01  0.17303943087E+02 -0.59086517283E+01  0.72461661464E+02  0.70000118765E+02 0.  0.
         12    1    1    2    0    0 -0.40419232279E+01 -0.17303943087E+02  0.59086517283E+01  0.18726338536E+02  0.00000000000E+00 0. -1.
         11    1    3    3    0    0 -0.60847431066E+00  0.16673307385E+02  0.79536714229E+01  0.18483244020E+02  0.51100000000E-03 0. -1.
        -11    1    3    3    0    0  0.14560066938E+02  0.12695896986E+02  0.12734414314E+02  0.23137559458E+02  0.51100000000E-03 0.  1.
        -12    1    3    3    0    0 -0.99096693994E+01 -0.12065261285E+02 -0.26596737465E+02  0.30840857985E+02  0.00000000000E+00 0.  1.
</event>
<event>
 7    1  0.1692604E-013  0.7246158E+02  0.7816164E-02  0.1226708E+00
        -11   -1    0    0    0    0  0.00000000000E+00  0.00000000000E+00  0.45593999997E+02  0.45594000000E+02  0.51100000000E-03 0.  1.
         11   -1    0    0    0    0 -0.00000000000E+00 -0.00000000000E+00 -0.45593999997E+02  0.45594000000E+02  0.51100000000E-03 0. -1.
    9900012    2    1    2    0    0  0.15747629377E+02 -0.98775871590E+01  0.22636694390E+01  0.72461581271E+02  0.70000014300E+02 0.  0.
         12    1    1    2    0    0 -0.15747629377E+02  0.98775871590E+01 -0.22636694390E+01  0.18726418729E+02  0.00000000000E+00 0. -1.
         11    1    3    3    0    0 -0.10767324567E+02 -0.77095630467E+01 -0.22869005562E+02  0.26426578597E+02  0.51100000000E-03 0. -1.
        -11    1    3    3    0    0  0.45611454320E+01 -0.13052184272E+02  0.11567825554E+02  0.18027150363E+02  0.51100000000E-03 0.  1.
         12    1    3    3    0    0  0.21953808511E+02  0.10884160160E+02  0.13564849447E+02  0.28007852311E+02  0.00000000000E+00 0. -1.
</event>
<event>
 7    1  0.1692604E-013  0.7246164E+02  0.7816164E-02  0.1226708E+00
        -11   -1    0    0    0    0  0.00000000000E+00  0.00000000000E+00  0.45593999997E+02  0.45594000000E+02  0.51100000000E-03 0.  1.
         11   -1    0    0    0    0 -0.00000000000E+00 -0.00000000000E+00 -0.45593999997E+02  0.45594000000E+02  0.51100000000E-03 0. -1.
    9900012    2    1    2    0    0 -0.14461629269E+02 -0.32359794025E+01  0.11448414368E+02  0.72461642230E+02  0.70000093709E+02 0.  0.
         12    1    1    2    0    0  0.14461629269E+02  0.32359794025E+01 -0.11448414368E+02  0.18726357770E+02  0.00000000000E+00 0. -1.
         11    1    3    3    0    0 -0.51153787964E+00  0.22789173444E+02 -0.26546629539E+01  0.22948972371E+02  0.51100000000E-03 0. -1.
        -11    1    3    3    0    0 -0.81957434542E+01  0.98515828792E+00 -0.99230746759E+01  0.12907678293E+02  0.51100000000E-03 0.  1.
        -12    1    3    3    0    0 -0.57543479354E+01 -0.27010311134E+02  0.24026151997E+02  0.36604991566E+02  0.00000000000E+00 0.  1.
</event>
<event>
 7    1  0.1692604E-013  0.7246161E+02  0.7816164E-02  0.1226708E+00
        -11   -1    0    0    0    0  0.00000000000E+00  0.00000000000E+00  0.45593999997E+02  0.45594000000E+02  0.51100000000E-03 0.  1.
         11   -1    0    0    0    0 -0.00000000000E+00 -0.00000000000E+00 -0.45593999997E+02  0.45594000000E+02  0.51100000000E-03 0. -1.
    9900012    2    1    2    0    0 -0.70190746083E+01 -0.45333944983E+01  0.16758835232E+02  0.72461611336E+02  0.70000053465E+02 0.  0.
         12    1    1    2    0    0  0.70190746083E+01  0.45333944983E+01 -0.16758835232E+02  0.18726388664E+02  0.00000000000E+00 0. -1.
         11    1    3    3    0    0  0.48150690870E+01  0.34001267458E+01  0.45383305661E+00  0.59119977084E+01  0.51100000000E-03 0. -1.
        -11    1    3    3    0    0  0.58073548032E+01  0.20763432019E+02  0.23723046305E+02  0.32056643699E+02  0.51100000000E-03 0.  1.
         12    1    3    3    0    0 -0.17641498498E+02 -0.28696953263E+02 -0.74180441288E+01  0.34492969929E+02  0.00000000000E+00 0. -1.
</event>
<event>
 7    1  0.1692604E-013  0.7246159E+02  0.7816164E-02  0.1226708E+00
        -11   -1    0    0    0    0  0.00000000000E+00  0.00000000000E+00  0.45593999997E+02  0.45594000000E+02  0.51100000000E-03 0.  1.
         11   -1    0    0    0    0 -0.00000000000E+00 -0.00000000000E+00 -0.45593999997E+02  0.45594000000E+02  0.51100000000E-03 0. -1.
    9900012    2    1    2    0    0  0.17375653343E+02 -0.59037684962E+01 -0.37296766998E+01  0.72461593515E+02  0.70000030249E+02 0.  0.
         12    1    1    2    0    0 -0.17375653343E+02  0.59037684962E+01  0.37296766998E+01  0.18726406485E+02  0.00000000000E+00 0. -1.
         11    1    3    3    0    0 -0.24502369375E+02 -0.40551735383E+01 -0.11193734326E+02  0.27241700128E+02  0.51100000000E-03 0. -1.
        -11    1    3    3    0    0 -0.83727693138E+00 -0.14456697433E+01 -0.54720630218E+00  0.17579615084E+01  0.51100000000E-03 0.  1.
        -12    1    3    3    0    0  0.42715299650E+02 -0.40292521461E+00  0.80112639287E+01  0.43461931879E+02  0.00000000000E+00 0.  1.
</event>
<event>
 7    1  0.1692604E-013  0.7246157E+02  0.7816164E-02  0.1226708E+00
        -11   -1    0    0    0    0  0.00000000000E+00  0.00000000000E+00  0.45593999997E+02  0.45594000000E+02  0.51100000000E-03 0.  1.
         11   -1    0    0    0    0 -0.00000000000E+00 -0.00000000000E+00 -0.45593999997E+02  0.45594000000E+02  0.51100000000E-03 0. -1.
    9900012    2    1    2    0    0  0.12519008953E+02  0.12749972289E+02  0.56028291009E+01  0.72461572886E+02  0.70000003376E+02 0.  0.
         12    1    1    2    0    0 -0.12519008953E+02 -0.12749972289E+02 -0.56028291009E+01  0.18726427114E+02  0.00000000000E+00 0. -1.
         11    1    3    3    0    0 -0.16608484974E+02  0.50392096633E+01  0.10402437352E+01  0.17387280249E+02  0.51100000000E-03 0. -1.
        -11    1    3    3    0    0  0.29468500106E+02  0.43038208663E+01  0.22176280543E+02  0.37130887298E+02  0.51100000000E-03 0.  1.
         12    1    3    3    0    0 -0.34100617831E+00  0.34069417591E+01 -0.17613695177E+02  0.17943405339E+02  0.00000000000E+00 0. -1.
</event>
<event>
 7    1  0.1692604E-013  0.7246184E+02  0.7816164E-02  0.1226707E+00
        -11   -1    0    0    0    0  0.00000000000E+00  0.00000000000E+00  0.45593999997E+02  0.45594000000E+02  0.51100000000E-03 0.  1.
         11   -1    0    0    0    0 -0.00000000000E+00 -0.00000000000E+00 -0.45593999997E+02  0.45594000000E+02  0.51100000000E-03 0. -1.
    9900012    2    1    2    0    0 -0.64279922810E+01 -0.83156664083E+01  0.15498376379E+02  0.72461840143E+02  0.70000351528E+02 0.  0.
         12    1    1    2    0    0  0.64279922810E+01  0.83156664083E+01 -0.15498376379E+02  0.18726159857E+02  0.00000000000E+00 0. -1.
         11    1    3    3    0    0 -0.21485140990E+02  0.29662354270E+01 -0.18514281321E+01  0.21767811611E+02  0.51100000000E-03 0. -1.
        -11    1    3    3    0    0 -0.84845524973E+01  0.42623358140E+01  0.20219463139E+02  0.22337901145E+02  0.51100000000E-03 0.  1.
        -12    1    3    3    0    0  0.23541701206E+02 -0.15544237649E+02 -0.28696586272E+01  0.28356127387E+02  0.00000000000E+00 0.  1.
</event>
<event>
 7    1  0.1692604E-013  0.7246155E+02  0.7816164E-02  0.1226708E+00
        -11   -1    0    0    0    0  0.00000000000E+00  0.00000000000E+00  0.45593999997E+02  0.45594000000E+02  0.51100000000E-03 0.  1.
         11   -1    0    0    0    0 -0.00000000000E+00 -0.00000000000E+00 -0.45593999997E+02  0.45594000000E+02  0.51100000000E-03 0. -1.
    9900012    2    1    2    0    0 -0.13829044769E+02  0.12563127349E+02  0.12670574714E+01  0.72461545914E+02  0.69999968240E+02 0.  0.
         12    1    1    2    0    0  0.13829044769E+02 -0.12563127349E+02 -0.12670574714E+01  0.18726454086E+02  0.00000000000E+00 0. -1.
         11    1    3    3    0    0 -0.10380357169E+01  0.32554497833E+01  0.19094664236E+01  0.39142730775E+01  0.51100000000E-03 0. -1.
        -11    1    3    3    0    0 -0.21179545065E+02  0.35004812157E+02  0.40424106817E+01  0.41112663350E+02  0.51100000000E-03 0.  1.
         12    1    3    3    0    0  0.83885360129E+01 -0.25697134592E+02 -0.46848196339E+01  0.27434609487E+02  0.00000000000E+00 0. -1.
</event>
<event>
 7    1  0.1692604E-013  0.7246159E+02  0.7816164E-02  0.1226708E+00
        -11   -1    0    0    0    0  0.00000000000E+00  0.00000000000E+00  0.45593999997E+02  0.45594000000E+02  0.51100000000E-03 0. -1.
         11   -1    0    0    0    0 -0.00000000000E+00 -0.00000000000E+00 -0.45593999997E+02  0.45594000000E+02  0.51100000000E-03 0.  1.
    9900012    2    1    2    0    0 -0.16493964009E+02  0.77401961010E+01 -0.43263031627E+01  0.72461591282E+02  0.70000027341E+02 0.  0.
         12    1    1    2    0    0  0.16493964009E+02 -0.77401961010E+01  0.43263031627E+01  0.18726408718E+02  0.00000000000E+00 0. -1.
         11    1    3    3    0    0 -0.13982443234E+02 -0.19582690614E+01 -0.36029225055E+01  0.14571361891E+02  0.51100000000E-03 0. -1.
        -11    1    3    3    0    0 -0.93327058513E+01  0.30218545715E+02 -0.11597108828E+02  0.33686092636E+02  0.51100000000E-03 0.  1.
         12    1    3    3    0    0  0.68211850763E+01 -0.20520080553E+02  0.10873728171E+02  0.24204136756E+02  0.00000000000E+00 0. -1.
</event>
<event>
 7    1  0.1692604E-013  0.7246155E+02  0.7816164E-02  0.1226708E+00
        -11   -1    0    0    0    0  0.00000000000E+00  0.00000000000E+00  0.45593999997E+02  0.45594000000E+02  0.51100000000E-03 0.  1.
         11   -1    0    0    0    0 -0.00000000000E+00 -0.00000000000E+00 -0.45593999997E+02  0.45594000000E+02  0.51100000000E-03 0. -1.
    9900012    2    1    2    0    0  0.55301911668E+01  0.20280607553E+01  0.17775934285E+02  0.72461551205E+02  0.69999975133E+02 0.  0.
         12    1    1    2    0    0 -0.55301911668E+01 -0.20280607553E+01 -0.17775934285E+02  0.18726448795E+02  0.00000000000E+00 0. -1.
         11    1    3    3    0    0 -0.12019726297E+02 -0.23931241141E+01  0.23405057523E+02  0.26419643851E+02  0.51100000000E-03 0. -1.
        -11    1    3    3    0    0  0.19171940098E+02 -0.11512661230E+02  0.92314255769E+01  0.24193467592E+02  0.51100000000E-03 0.  1.
        -12    1    3    3    0    0 -0.16220226342E+01  0.15933846099E+02 -0.14860548816E+02  0.21848439762E+02  0.00000000000E+00 0.  1.
</event>
<event>
 7    1  0.1692604E-013  0.7246155E+02  0.7816164E-02  0.1226708E+00
        -11   -1    0    0    0    0  0.00000000000E+00  0.00000000000E+00  0.45593999997E+02  0.45594000000E+02  0.51100000000E-03 0. -1.
         11   -1    0    0    0    0 -0.00000000000E+00 -0.00000000000E+00 -0.45593999997E+02  0.45594000000E+02  0.51100000000E-03 0.  1.
    9900012    2    1    2    0    0 -0.73301845220E+01 -0.62319572740E+01 -0.16065838117E+02  0.72461546759E+02  0.69999969341E+02 0.  0.
         12    1    1    2    0    0  0.73301845220E+01  0.62319572740E+01  0.16065838117E+02  0.18726453241E+02  0.00000000000E+00 0. -1.
         11    1    3    3    0    0 -0.10365641473E+01 -0.10184010572E+00  0.13863485480E+02  0.13902556116E+02  0.51100000000E-03 0. -1.
        -11    1    3    3    0    0 -0.59706954359E+01 -0.51620333439E+01  0.13220382874E+02  0.15397217795E+02  0.51100000000E-03 0.  1.
        -12    1    3    3    0    0 -0.32292493882E+00 -0.96808382431E+00 -0.43149706471E+02  0.43161772848E+02  0.00000000000E+00 0.  1.
</event>
<event>
 7    1  0.1692604E-013  0.7246165E+02  0.7816164E-02  0.1226708E+00
        -11   -1    0    0    0    0  0.00000000000E+00  0.00000000000E+00  0.45593999997E+02  0.45594000000E+02  0.51100000000E-03 0.  1.
         11   -1    0    0    0    0 -0.00000000000E+00 -0.00000000000E+00 -0.45593999997E+02  0.45594000000E+02  0.51100000000E-03 0. -1.
    9900012    2    1    2    0    0 -0.14279780647E+02  0.11788132545E+02 -0.27935445667E+01  0.72461652372E+02  0.70000106922E+02 0.  0.
         12    1    1    2    0    0  0.14279780647E+02 -0.11788132545E+02  0.27935445667E+01  0.18726347628E+02  0.00000000000E+00 0. -1.
         11    1    3    3    0    0 -0.13126417771E+02 -0.13294100646E+02 -0.39826222779E+01  0.19102283527E+02  0.51100000000E-03 0. -1.
        -11    1    3    3    0    0  0.94305800102E+01  0.20861598575E+02 -0.19281054931E+02  0.29931608944E+02  0.51100000000E-03 0.  1.
         12    1    3    3    0    0 -0.10583942886E+02  0.42206346160E+01  0.20470132643E+02  0.23427759901E+02  0.00000000000E+00 0. -1.
</event>
<event>
 7    1  0.1692604E-013  0.7246153E+02  0.7816164E-02  0.1226708E+00
        -11   -1    0    0    0    0  0.00000000000E+00  0.00000000000E+00  0.45593999997E+02  0.45594000000E+02  0.51100000000E-03 0.  1.
         11   -1    0    0    0    0 -0.00000000000E+00 -0.00000000000E+00 -0.45593999997E+02  0.45594000000E+02  0.51100000000E-03 0. -1.
    9900012    2    1    2    0    0 -0.17390429801E+02  0.53136607953E+01  0.44742134531E+01  0.72461531414E+02  0.69999949351E+02 0.  0.
         12    1    1    2    0    0  0.17390429801E+02 -0.53136607953E+01 -0.44742134531E+01  0.18726468586E+02  0.00000000000E+00 0. -1.
         11    1    3    3    0    0  0.57358573875E+00  0.68678496194E+01  0.17451486639E+02  0.18763015353E+02  0.51100000000E-03 0. -1.
        -11    1    3    3    0    0 -0.21045158896E+02  0.20771365570E+02 -0.72777581466E+01  0.30451832531E+02  0.51100000000E-03 0.  1.
        -12    1    3    3    0    0  0.30811433569E+01 -0.22325554394E+02 -0.56995150388E+01  0.23246683529E+02  0.00000000000E+00 0.  1.
</event>
<event>
 7    1  0.1692604E-013  0.7246157E+02  0.7816164E-02  0.1226708E+00
        -11   -1    0    0    0    0  0.00000000000E+00  0.00000000000E+00  0.45593999997E+02  0.45594000000E+02  0.51100000000E-03 0.  1.
         11   -1    0    0    0    0 -0.00000000000E+00 -0.00000000000E+00 -0.45593999997E+02  0.45594000000E+02  0.51100000000E-03 0. -1.
    9900012    2    1    2    0    0  0.12593097201E+02  0.79504817458E+01  0.11352655235E+02  0.72461573807E+02  0.70000004575E+02 0.  0.
         12    1    1    2    0    0 -0.12593097201E+02 -0.79504817458E+01 -0.11352655235E+02  0.18726426193E+02  0.00000000000E+00 0. -1.
         11    1    3    3    0    0  0.24981912083E+02 -0.21546565032E+00 -0.17334146505E+02  0.30407482501E+02  0.51100000000E-03 0. -1.
        -11    1    3    3    0    0  0.30530470407E+01  0.33200536822E+00 -0.40126965596E+01  0.50530246128E+01  0.51100000000E-03 0.  1.
        -12    1    3    3    0    0 -0.15441861923E+02  0.78339420279E+01  0.32699498299E+02  0.37001066692E+02  0.00000000000E+00 0.  1.
</event>
<event>
 7    1  0.1692604E-013  0.7246130E+02  0.7816164E-02  0.1226709E+00
        -11   -1    0    0    0    0  0.00000000000E+00  0.00000000000E+00  0.45593999997E+02  0.45594000000E+02  0.51100000000E-03 0.  1.
         11   -1    0    0    0    0 -0.00000000000E+00 -0.00000000000E+00 -0.45593999997E+02  0.45594000000E+02  0.51100000000E-03 0. -1.
    9900012    2    1    2    0    0 -0.10117350829E+02  0.15695321561E+02 -0.14090365153E+01  0.72461300061E+02  0.69999647970E+02 0.  0.
         12    1    1    2    0    0  0.10117350829E+02 -0.15695321561E+02  0.14090365153E+01  0.18726699939E+02  0.00000000000E+00 0. -1.
         11    1    3    3    0    0  0.51681058915E+01 -0.20481893598E+02  0.51474035470E+01  0.21741965123E+02  0.51100000000E-03 0.  1.
        -11    1    3    3    0    0  0.94506668385E+01  0.85879263794E+01  0.13168184397E+01  0.12837507322E+02  0.51100000000E-03 0. -1.
        -12    1    3    3    0    0 -0.24736123559E+02  0.27589288780E+02 -0.78732585020E+01  0.37881827616E+02  0.00000000000E+00 0.  1.
</event>
<event>
 7    1  0.1692604E-013  0.7246157E+02  0.7816164E-02  0.1226708E+00
        -11   -1    0    0    0    0  0.00000000000E+00  0.00000000000E+00  0.45593999997E+02  0.45594000000E+02  0.51100000000E-03 0.  1.
         11   -1    0    0    0    0 -0.00000000000E+00 -0.00000000000E+00 -0.45593999997E+02  0.45594000000E+02  0.51100000000E-03 0. -1.
    9900012    2    1    2    0    0  0.18309557079E+02  0.17538996133E+01  0.35161290567E+01  0.72461569272E+02  0.69999998668E+02 0.  0.
         12    1    1    2    0    0 -0.18309557079E+02 -0.17538996133E+01 -0.35161290567E+01  0.18726430728E+02  0.00000000000E+00 0. -1.
         11    1    3    3    0    0 -0.12103146665E+02 -0.27166072662E+00 -0.76103460106E+01  0.14299556826E+02  0.51100000000E-03 0. -1.
        -11    1    3    3    0    0  0.48073012865E+01 -0.41760458310E+01  0.26773339135E+02  0.27520196096E+02  0.51100000000E-03 0.  1.
         12    1    3    3    0    0  0.25605402457E+02  0.62016061709E+01 -0.15646864068E+02  0.30641816351E+02  0.00000000000E+00 0. -1.
</event>
<event>
 7    1  0.1692604E-013  0.7246156E+02  0.7816164E-02  0.1226708E+00
        -11   -1    0    0    0    0  0.00000000000E+00  0.00000000000E+00  0.45593999997E+02  0.45594000000E+02  0.51100000000E-03 0.  1.
         11   -1    0    0    0    0 -0.00000000000E+00 -0.00000000000E+00 -0.45593999997E+02  0.45594000000E+02  0.51100000000E-03 0. -1.
    9900012    2    1    2    0    0 -0.96322790547E+01 -0.71715594975E+01  0.14368979109E+02  0.72461558105E+02  0.69999984121E+02 0.  0.
         12    1    1    2    0    0  0.96322790547E+01  0.71715594975E+01 -0.14368979109E+02  0.18726441895E+02  0.00000000000E+00 0. -1.
         11    1    3    3    0    0  0.14678745470E+02 -0.18181441082E+02  0.33478080584E+01  0.23605893067E+02  0.51100000000E-03 0. -1.
        -11    1    3    3    0    0  0.98280759125E+01  0.53761207266E+01 -0.28801768590E+01  0.11566726815E+02  0.51100000000E-03 0.  1.
        -12    1    3    3    0    0 -0.34139100438E+02  0.56337608583E+01  0.13901347910E+02  0.37288938223E+02  0.00000000000E+00 0.  1.
</event>
<event>
 7    1  0.1692604E-013  0.7246157E+02  0.7816164E-02  0.1226708E+00
        -11   -1    0    0    0    0  0.00000000000E+00  0.00000000000E+00  0.45593999997E+02  0.45594000000E+02  0.51100000000E-03 0. -1.
         11   -1    0    0    0    0 -0.00000000000E+00 -0.00000000000E+00 -0.45593999997E+02  0.45594000000E+02  0.51100000000E-03 0.  1.
    9900012    2    1    2    0    0 -0.38666190572E+01 -0.58793175890E+01 -0.17354024323E+02  0.72461567386E+02  0.69999996211E+02 0.  0.
         12    1    1    2    0    0  0.38666190572E+01  0.58793175890E+01  0.17354024323E+02  0.18726432614E+02  0.00000000000E+00 0. -1.
         11    1    3    3    0    0  0.12181717616E+02  0.13053738242E+02 -0.19266356473E+02  0.26267600160E+02  0.51100000000E-03 0. -1.
        -11    1    3    3    0    0 -0.21715884365E+02 -0.44582728110E+01 -0.12108572584E+02  0.25260114024E+02  0.51100000000E-03 0.  1.
        -12    1    3    3    0    0  0.56675476912E+01 -0.14474783020E+02  0.14020904735E+02  0.20933853202E+02  0.00000000000E+00 0.  1.
</event>
<event>
 7    1  0.1692604E-013  0.7246158E+02  0.7816164E-02  0.1226708E+00
        -11   -1    0    0    0    0  0.00000000000E+00  0.00000000000E+00  0.45593999997E+02  0.45594000000E+02  0.51100000000E-03 0. -1.
         11   -1    0    0    0    0 -0.00000000000E+00 -0.00000000000E+00 -0.45593999997E+02  0.45594000000E+02  0.51100000000E-03 0.  1.
    9900012    2    1    2    0    0 -0.10677129168E+02 -0.11423541655E+02 -0.10304385310E+02  0.72461581553E+02  0.70000014667E+02 0.  0.
         12    1    1    2    0    0  0.10677129168E+02  0.11423541655E+02  0.10304385310E+02  0.18726418447E+02  0.00000000000E+00 0. -1.
         11    1    3    3    0    0  0.20473473968E+01 -0.43439574655E+00 -0.27298765870E+02  0.27378877795E+02  0.51100000000E-03 0. -1.
        -11    1    3    3    0    0 -0.10936005355E+02 -0.12758150403E+02 -0.89350070307E+01  0.19031578120E+02  0.51100000000E-03 0.  1.
        -12    1    3    3    0    0 -0.17884712098E+01  0.17690044949E+01  0.25929387591E+02  0.26051125638E+02  0.00000000000E+00 0.  1.
</event>
<event>
 7    1  0.1692604E-013  0.7246171E+02  0.7816164E-02  0.1226708E+00
        -11   -1    0    0    0    0  0.00000000000E+00  0.00000000000E+00  0.45593999997E+02  0.45594000000E+02  0.51100000000E-03 0.  1.
         11   -1    0    0    0    0 -0.00000000000E+00 -0.00000000000E+00 -0.45593999997E+02  0.45594000000E+02  0.51100000000E-03 0. -1.
    9900012    2    1    2    0    0 -0.11895759088E+02  0.13637723456E+02  0.48142990573E+01  0.72461706700E+02  0.70000177693E+02 0.  0.
         12    1    1    2    0    0  0.11895759088E+02 -0.13637723456E+02 -0.48142990573E+01  0.18726293300E+02  0.00000000000E+00 0. -1.
         11    1    3    3    0    0  0.12118337832E+02  0.17746463183E+02 -0.18594553384E+02  0.28417397543E+02  0.51100000000E-03 0. -1.
        -11    1    3    3    0    0 -0.73083223287E+01  0.10693167106E+02  0.19794091941E+01  0.13102421877E+02  0.51100000000E-03 0.  1.
        -12    1    3    3    0    0 -0.16705774591E+02 -0.14801906833E+02  0.21429443248E+02  0.30941887280E+02  0.00000000000E+00 0.  1.
</event>
<event>
 7    1  0.1692604E-013  0.7246161E+02  0.7816164E-02  0.1226708E+00
        -11   -1    0    0    0    0  0.00000000000E+00  0.00000000000E+00  0.45593999997E+02  0.45594000000E+02  0.51100000000E-03 0.  1.
         11   -1    0    0    0    0 -0.00000000000E+00 -0.00000000000E+00 -0.45593999997E+02  0.45594000000E+02  0.51100000000E-03 0. -1.
    9900012    2    1    2    0    0  0.46523046781E+01  0.16014611463E+02  0.85185618274E+01  0.72461611808E+02  0.70000054079E+02 0.  0.
         12    1    1    2    0    0 -0.46523046781E+01 -0.16014611463E+02 -0.85185618274E+01  0.18726388192E+02  0.00000000000E+00 0. -1.
         11    1    3    3    0    0 -0.91394835506E+01  0.80938969736E+01 -0.12594410308E+02  0.17540253677E+02  0.51100000000E-03 0. -1.
        -11    1    3    3    0    0 -0.59473353153E+01  0.90777522726E+01 -0.12108917935E+02  0.16260451331E+02  0.51100000000E-03 0.  1.
        -12    1    3    3    0    0  0.19739123544E+02 -0.11570377836E+01  0.33221890070E+02  0.38660906800E+02  0.00000000000E+00 0.  1.
</event>
<event>
 7    1  0.1692604E-013  0.7246160E+02  0.7816164E-02  0.1226708E+00
        -11   -1    0    0    0    0  0.00000000000E+00  0.00000000000E+00  0.45593999997E+02  0.45594000000E+02  0.51100000000E-03 0. -1.
         11   -1    0    0    0    0 -0.00000000000E+00 -0.00000000000E+00 -0.45593999997E+02  0.45594000000E+02  0.51100000000E-03 0.  1.
    9900012    2    1    2    0    0 -0.93348117761E+01  0.12904740203E+02 -0.98492058870E+01  0.72461604533E+02  0.70000044602E+02 0.  0.
         12    1    1    2    0    0  0.93348117761E+01 -0.12904740203E+02  0.98492058870E+01  0.18726395467E+02  0.00000000000E+00 0. -1.
         11    1    3    3    0    0 -0.14982636964E+02  0.30828181553E+02 -0.17740788249E+02  0.38595229708E+02  0.51100000000E-03 0. -1.
        -11    1    3    3    0    0 -0.37049815944E+01  0.43353152144E+01 -0.39872973882E+01  0.69584759356E+01  0.51100000000E-03 0.  1.
        -12    1    3    3    0    0  0.93528067820E+01 -0.22258756565E+02  0.11878879751E+02  0.26907898889E+02  0.00000000000E+00 0.  1.
</event>
<event>
 7    1  0.1692604E-013  0.7246147E+02  0.7816164E-02  0.1226708E+00
        -11   -1    0    0    0    0  0.00000000000E+00  0.00000000000E+00  0.45593999997E+02  0.45594000000E+02  0.51100000000E-03 0. -1.
         11   -1    0    0    0    0 -0.00000000000E+00 -0.00000000000E+00 -0.45593999997E+02  0.45594000000E+02  0.51100000000E-03 0.  1.
    9900012    2    1    2    0    0  0.11224574443E+01  0.18661859958E+02 -0.10761507583E+01  0.72461467265E+02  0.69999865785E+02 0.  0.
         12    1    1    2    0    0 -0.11224574443E+01 -0.18661859958E+02  0.10761507583E+01  0.18726532735E+02  0.00000000000E+00 0. -1.
         11    1    3    3    0    0  0.10368799461E+02  0.16518167339E+02  0.24741860831E+02  0.31504309740E+02  0.51100000000E-03 0. -1.
        -11    1    3    3    0    0 -0.96261097083E+00  0.14651674186E+02 -0.54536600625E+01  0.15663351642E+02  0.51100000000E-03 0.  1.
        -12    1    3    3    0    0 -0.82837310457E+01 -0.12507981567E+02 -0.20364351527E+02  0.25293805883E+02  0.00000000000E+00 0.  1.
</event>
<event>
 7    1  0.1692604E-013  0.7246156E+02  0.7816164E-02  0.1226708E+00
        -11   -1    0    0    0    0  0.00000000000E+00  0.00000000000E+00  0.45593999997E+02  0.45594000000E+02  0.51100000000E-03 0.  1.
         11   -1    0    0    0    0 -0.00000000000E+00 -0.00000000000E+00 -0.45593999997E+02  0.45594000000E+02  0.51100000000E-03 0. -1.
    9900012    2    1    2    0    0  0.13846411291E+01  0.15362943433E+02  0.10618025736E+02  0.72461555263E+02  0.69999980418E+02 0.  0.
         12    1    1    2    0    0 -0.13846411291E+01 -0.15362943433E+02 -0.10618025736E+02  0.18726444737E+02  0.00000000000E+00 0. -1.
         11    1    3    3    0    0 -0.33556446251E+01  0.66227334171E+01 -0.19337691165E+02  0.20713938510E+02  0.51100000000E-03 0. -1.
        -11    1    3    3    0    0  0.53986742665E+01  0.22050872867E+02  0.46885035702E+01  0.23181215327E+02  0.51100000000E-03 0.  1.
         12    1    3    3    0    0 -0.65838851226E+00 -0.13310662851E+02  0.25267213330E+02  0.28566401426E+02  0.00000000000E+00 0. -1.
</event>
<event>
 7    1  0.1692604E-013  0.7246158E+02  0.7816164E-02  0.1226708E+00
        -11   -1    0    0    0    0  0.00000000000E+00  0.00000000000E+00  0.45593999997E+02  0.45594000000E+02  0.51100000000E-03 0.  1.
         11   -1    0    0    0    0 -0.00000000000E+00 -0.00000000000E+00 -0.45593999997E+02  0.45594000000E+02  0.51100000000E-03 0. -1.
    9900012    2    1    2    0    0 -0.31647543662E+01 -0.10547718673E+02  0.15146246049E+02  0.72461579926E+02  0.70000012547E+02 0.  0.
         12    1    1    2    0    0  0.31647543662E+01  0.10547718673E+02 -0.15146246049E+02  0.18726420074E+02  0.00000000000E+00 0. -1.
         11    1    3    3    0    0  0.21155765031E+01  0.25224313376E+01  0.15310231717E+02  0.15660188992E+02  0.51100000000E-03 0. -1.
        -11    1    3    3    0    0 -0.14385132987E+02  0.75870465877E+01  0.20520250881E+02  0.26183506707E+02  0.51100000000E-03 0.  1.
         12    1    3    3    0    0  0.91048021173E+01 -0.20657196599E+02 -0.20684236549E+02  0.30617884227E+02  0.00000000000E+00 0. -1.
</event>
<event>
 7    1  0.1692604E-013  0.7246164E+02  0.7816164E-02  0.1226708E+00
        -11   -1    0    0    0    0  0.00000000000E+00  0.00000000000E+00  0.45593999997E+02  0.45594000000E+02  0.51100000000E-03 0. -1.
         11   -1    0    0    0    0 -0.00000000000E+00 -0.00000000000E+00 -0.45593999997E+02  0.45594000000E+02  0.51100000000E-03 0.  1.
    9900012    2    1    2    0    0  0.98997609618E+01  0.15189734073E+02  0.46843728680E+01  0.72461637901E+02  0.70000088070E+02 0.  0.
         12    1    1    2    0    0 -0.98997609618E+01 -0.15189734073E+02 -0.46843728680E+01  0.18726362099E+02  0.00000000000E+00 0. -1.
         11    1    3    3    0    0 -0.45604446039E+01  0.29185561213E+02  0.65107800035E+01  0.30248717243E+02  0.51100000000E-03 0. -1.
        -11    1    3    3    0    0 -0.76657466826E+01 -0.16286400631E+01  0.11234759080E+02  0.13698027321E+02  0.51100000000E-03 0.  1.
        -12    1    3    3    0    0  0.22125952248E+02 -0.12367187077E+02 -0.13061166215E+02  0.28514893336E+02  0.00000000000E+00 0.  1.
</event>
<event>
 7    1  0.1692604E-013  0.7246160E+02  0.7816164E-02  0.1226708E+00
        -11   -1    0    0    0    0  0.00000000000E+00  0.00000000000E+00  0.45593999997E+02  0.45594000000E+02  0.51100000000E-03 0.  1.
         11   -1    0    0    0    0 -0.00000000000E+00 -0.00000000000E+00 -0.45593999997E+02  0.45594000000E+02  0.51100000000E-03 0. -1.
    9900012    2    1    2    0    0  0.46352318867E+01 -0.71918964992E+01  0.16657412741E+02  0.72461597539E+02  0.70000035491E+02 0.  0.
         12    1    1    2    0    0 -0.46352318867E+01  0.71918964992E+01 -0.16657412741E+02  0.18726402461E+02  0.00000000000E+00 0. -1.
         11    1    3    3    0    0  0.11236263815E+02  0.14073532772E+02 -0.35205063100E+00  0.18012270515E+02  0.51100000000E-03 0. -1.
        -11    1    3    3    0    0  0.11811954786E+02  0.99347624177E+01  0.38735579339E+01  0.15913083657E+02  0.51100000000E-03 0.  1.
        -12    1    3    3    0    0 -0.18412986714E+02 -0.31200191688E+02  0.13135905438E+02  0.38536243367E+02  0.00000000000E+00 0.  1.
</event>
<event>
 7    1  0.1692604E-013  0.7246161E+02  0.7816164E-02  0.1226708E+00
        -11   -1    0    0    0    0  0.00000000000E+00  0.00000000000E+00  0.45593999997E+02  0.45594000000E+02  0.51100000000E-03 0. -1.
         11   -1    0    0    0    0 -0.00000000000E+00 -0.00000000000E+00 -0.45593999997E+02  0.45594000000E+02  0.51100000000E-03 0.  1.
    9900012    2    1    2    0    0 -0.21467875309E+01  0.18574412937E+02 -0.10297345539E+01  0.72461605101E+02  0.70000045343E+02 0.  0.
         12    1    1    2    0    0  0.21467875309E+01 -0.18574412937E+02  0.10297345539E+01  0.18726394899E+02  0.00000000000E+00 0. -1.
         11    1    3    3    0    0  0.17315797651E+02 -0.56814651877E+01 -0.22163253185E+02  0.28693652381E+02  0.51100000000E-03 0. -1.
        -11    1    3    3    0    0  0.14122182921E+01  0.33753518785E+01  0.12472901728E+02  0.12998486011E+02  0.51100000000E-03 0.  1.
        -12    1    3    3    0    0 -0.20874803474E+02  0.20880526246E+02  0.86606169033E+01  0.30769466709E+02  0.00000000000E+00 0.  1.
</event>
<event>
 7    1  0.1692604E-013  0.7246155E+02  0.7816164E-02  0.1226708E+00
        -11   -1    0    0    0    0  0.00000000000E+00  0.00000000000E+00  0.45593999997E+02  0.45594000000E+02  0.51100000000E-03 0.  1.
         11   -1    0    0    0    0 -0.00000000000E+00 -0.00000000000E+00 -0.45593999997E+02  0.45594000000E+02  0.51100000000E-03 0. -1.
    9900012    2    1    2    0    0  0.10119299331E+02 -0.97688957221E+01 -0.12363181651E+02  0.72461553377E+02  0.69999977962E+02 0.  0.
         12    1    1    2    0    0 -0.10119299331E+02  0.97688957221E+01  0.12363181651E+02  0.18726446623E+02  0.00000000000E+00 0. -1.
         11    1    3    3    0    0 -0.74746059114E+01 -0.24966016047E+01 -0.21832343625E+01  0.81773630008E+01  0.51100000000E-03 0. -1.
        -11    1    3    3    0    0  0.52107901359E+01  0.57584942434E+01  0.24239525368E+02  0.25453235160E+02  0.51100000000E-03 0.  1.
         12    1    3    3    0    0  0.12383115107E+02 -0.13030788361E+02 -0.34419472656E+02  0.38830955216E+02  0.00000000000E+00 0. -1.
</event>
<event>
 7    1  0.1692604E-013  0.7246168E+02  0.7816164E-02  0.1226708E+00
        -11   -1    0    0    0    0  0.00000000000E+00  0.00000000000E+00  0.45593999997E+02  0.45594000000E+02  0.51100000000E-03 0.  1.
         11   -1    0    0    0    0 -0.00000000000E+00 -0.00000000000E+00 -0.45593999997E+02  0.45594000000E+02  0.51100000000E-03 0. -1.
    9900012    2    1    2    0    0  0.16830319421E+01 -0.16574437640E+02  0.85516297130E+01  0.72461682947E+02  0.70000146751E+02 0.  0.
         12    1    1    2    0    0 -0.16830319421E+01  0.16574437640E+02 -0.85516297130E+01  0.18726317053E+02  0.00000000000E+00 0. -1.
         11    1    3    3    0    0 -0.34269549839E+01 -0.10269293140E+02 -0.10949299725E+02  0.15397713038E+02  0.51100000000E-03 0. -1.
        -11    1    3    3    0    0 -0.12181662008E+02 -0.24578947855E+02  0.15737943926E+02  0.31625945776E+02  0.51100000000E-03 0.  1.
        -12    1    3    3    0    0  0.17291648934E+02  0.18273803355E+02  0.37629855119E+01  0.25438024134E+02  0.00000000000E+00 0.  1.
</event>
<event>
 7    1  0.1692604E-013  0.7246157E+02  0.7816164E-02  0.1226708E+00
        -11   -1    0    0    0    0  0.00000000000E+00  0.00000000000E+00  0.45593999997E+02  0.45594000000E+02  0.51100000000E-03 0.  1.
         11   -1    0    0    0    0 -0.00000000000E+00 -0.00000000000E+00 -0.45593999997E+02  0.45594000000E+02  0.51100000000E-03 0. -1.
    9900012    2    1    2    0    0 -0.13843152886E+02  0.10509976750E+02  0.69704036458E+01  0.72461574284E+02  0.70000005197E+02 0.  0.
         12    1    1    2    0    0  0.13843152886E+02 -0.10509976750E+02 -0.69704036458E+01  0.18726425716E+02  0.00000000000E+00 0. -1.
         11    1    3    3    0    0  0.17655228615E+01  0.27961825038E+01 -0.17786994444E+02  0.18091790381E+02  0.51100000000E-03 0. -1.
        -11    1    3    3    0    0 -0.15314849020E+02 -0.10903122321E+02 -0.48311777157E+01  0.19410382665E+02  0.51100000000E-03 0.  1.
        -12    1    3    3    0    0 -0.29382672813E+00  0.18616916568E+02  0.29588575806E+02  0.34959401237E+02  0.00000000000E+00 0.  1.
</event>
<event>
 7    1  0.1692604E-013  0.7246157E+02  0.7816164E-02  0.1226708E+00
        -11   -1    0    0    0    0  0.00000000000E+00  0.00000000000E+00  0.45593999997E+02  0.45594000000E+02  0.51100000000E-03 0.  1.
         11   -1    0    0    0    0 -0.00000000000E+00 -0.00000000000E+00 -0.45593999997E+02  0.45594000000E+02  0.51100000000E-03 0. -1.
    9900012    2    1    2    0    0  0.12356468091E+02 -0.99504465281E+01  0.99491444344E+01  0.72461570421E+02  0.70000000165E+02 0.  0.
         12    1    1    2    0    0 -0.12356468091E+02  0.99504465281E+01 -0.99491444344E+01  0.18726429579E+02  0.00000000000E+00 0. -1.
         11    1    3    3    0    0  0.18765159268E+02  0.11143071245E+02 -0.48997421347E+01  0.22367537020E+02  0.51100000000E-03 0.  1.
        -11    1    3    3    0    0 -0.13633991679E+02 -0.31378204265E+02  0.60294496754E+01  0.34739483238E+02  0.51100000000E-03 0. -1.
         12    1    3    3    0    0  0.72253005023E+01  0.10284686492E+02  0.88194368937E+01  0.15354550163E+02  0.00000000000E+00 0. -1.
</event>
<event>
 7    1  0.1692604E-013  0.7246158E+02  0.7816164E-02  0.1226708E+00
        -11   -1    0    0    0    0  0.00000000000E+00  0.00000000000E+00  0.45593999997E+02  0.45594000000E+02  0.51100000000E-03 0. -1.
         11   -1    0    0    0    0 -0.00000000000E+00 -0.00000000000E+00 -0.45593999997E+02  0.45594000000E+02  0.51100000000E-03 0.  1.
    9900012    2    1    2    0    0  0.60568249868E+01  0.16104873670E+02  0.73909998861E+01  0.72461575777E+02  0.70000007143E+02 0.  0.
         12    1    1    2    0    0 -0.60568249868E+01 -0.16104873670E+02 -0.73909998861E+01  0.18726424223E+02  0.00000000000E+00 0. -1.
         11    1    3    3    0    0  0.17060763529E+02  0.12411898499E+01 -0.86355902348E+01  0.19162035993E+02  0.51100000000E-03 0. -1.
        -11    1    3    3    0    0  0.18063636792E+02  0.10981377761E+02  0.98895680293E+01  0.23338577244E+02  0.51100000000E-03 0.  1.
         12    1    3    3    0    0 -0.29067575335E+02  0.38823060588E+01  0.61370220916E+01  0.29960962540E+02  0.00000000000E+00 0. -1.
</event>
<event>
 7    1  0.1692604E-013  0.7246147E+02  0.7816164E-02  0.1226708E+00
        -11   -1    0    0    0    0  0.00000000000E+00  0.00000000000E+00  0.45593999997E+02  0.45594000000E+02  0.51100000000E-03 0.  1.
         11   -1    0    0    0    0 -0.00000000000E+00 -0.00000000000E+00 -0.45593999997E+02  0.45594000000E+02  0.51100000000E-03 0. -1.
    9900012    2    1    2    0    0  0.11704205851E+02  0.14618294726E+02 -0.81275039425E-02  0.72461466915E+02  0.69999865330E+02 0.  0.
         12    1    1    2    0    0 -0.11704205851E+02 -0.14618294726E+02  0.81275039425E-02  0.18726533085E+02  0.00000000000E+00 0. -1.
         11    1    3    3    0    0  0.22952878401E+02 -0.45873809755E+01 -0.20794286213E+01  0.23498993909E+02  0.51100000000E-03 0. -1.
        -11    1    3    3    0    0  0.96015304272E+01  0.89094988012E+01  0.16900882119E+02  0.21382431389E+02  0.51100000000E-03 0.  1.
         12    1    3    3    0    0 -0.20850202977E+02  0.10296176901E+02 -0.14829581002E+02  0.27580041617E+02  0.00000000000E+00 0. -1.
</event>
<event>
 7    1  0.1692604E-013  0.7246163E+02  0.7816164E-02  0.1226708E+00
        -11   -1    0    0    0    0  0.00000000000E+00  0.00000000000E+00  0.45593999997E+02  0.45594000000E+02  0.51100000000E-03 0.  1.
         11   -1    0    0    0    0 -0.00000000000E+00 -0.00000000000E+00 -0.45593999997E+02  0.45594000000E+02  0.51100000000E-03 0. -1.
    9900012    2    1    2    0    0  0.78155378199E+01  0.11516446220E+02  0.12528597377E+02  0.72461630432E+02  0.70000078341E+02 0.  0.
         12    1    1    2    0    0 -0.78155378199E+01 -0.11516446220E+02 -0.12528597377E+02  0.18726369568E+02  0.00000000000E+00 0. -1.
         11    1    3    3    0    0  0.72683314084E+01  0.64554582846E+01  0.88013482844E+01  0.13113554629E+02  0.51100000000E-03 0. -1.
        -11    1    3    3    0    0  0.12604668924E+02  0.17020771470E+02 -0.20688056720E+02  0.29607094272E+02  0.51100000000E-03 0.  1.
         12    1    3    3    0    0 -0.12057462513E+02 -0.11959783535E+02  0.24415305813E+02  0.29740981531E+02  0.00000000000E+00 0. -1.
</event>
<event>
 7    1  0.1692604E-013  0.7246156E+02  0.7816164E-02  0.1226708E+00
        -11   -1    0    0    0    0  0.00000000000E+00  0.00000000000E+00  0.45593999997E+02  0.45594000000E+02  0.51100000000E-03 0.  1.
         11   -1    0    0    0    0 -0.00000000000E+00 -0.00000000000E+00 -0.45593999997E+02  0.45594000000E+02  0.51100000000E-03 0. -1.
    9900012    2    1    2    0    0  0.65760487283E+01 -0.13750716648E+02  0.10879006720E+02  0.72461563809E+02  0.69999991552E+02 0.  0.
         12    1    1    2    0    0 -0.65760487283E+01  0.13750716648E+02 -0.10879006720E+02  0.18726436191E+02  0.00000000000E+00 0. -1.
         11    1    3    3    0    0  0.58854408326E+01 -0.17582225520E+02 -0.10159813390E+02  0.21142253343E+02  0.51100000000E-03 0. -1.
        -11    1    3    3    0    0  0.28709444621E+01 -0.10735858013E+02 -0.11259903886E+02  0.15820442635E+02  0.51100000000E-03 0.  1.
        -12    1    3    3    0    0 -0.21803365664E+01  0.14567366886E+02  0.32298723996E+02  0.35498867831E+02  0.00000000000E+00 0.  1.
</event>
<event>
 7    1  0.1692604E-013  0.7246210E+02  0.7816164E-02  0.1226707E+00
        -11   -1    0    0    0    0  0.00000000000E+00  0.00000000000E+00  0.45593999997E+02  0.45594000000E+02  0.51100000000E-03 0.  1.
         11   -1    0    0    0    0 -0.00000000000E+00 -0.00000000000E+00 -0.45593999997E+02  0.45594000000E+02  0.51100000000E-03 0. -1.
    9900012    2    1    2    0    0  0.16676383245E+02  0.62541714529E+01 -0.57829689538E+01  0.72462104865E+02  0.70000696374E+02 0.  0.
         12    1    1    2    0    0 -0.16676383245E+02 -0.62541714529E+01  0.57829689538E+01  0.18725895135E+02  0.00000000000E+00 0. -1.
         11    1    3    3    0    0  0.16452270212E+02 -0.66150318184E+01 -0.18559508532E+02  0.25668876062E+02  0.51100000000E-03 0. -1.
        -11    1    3    3    0    0  0.17057153617E+01 -0.14401783903E+02  0.13007322482E+02  0.19481049327E+02  0.51100000000E-03 0.  1.
         12    1    3    3    0    0 -0.14816023291E+01  0.27270987175E+02 -0.23078290396E+00  0.27312179475E+02  0.00000000000E+00 0. -1.
</event>
<event>
 7    1  0.1692604E-013  0.7246153E+02  0.7816164E-02  0.1226708E+00
        -11   -1    0    0    0    0  0.00000000000E+00  0.00000000000E+00  0.45593999997E+02  0.45594000000E+02  0.51100000000E-03 0. -1.
         11   -1    0    0    0    0 -0.00000000000E+00 -0.00000000000E+00 -0.45593999997E+02  0.45594000000E+02  0.51100000000E-03 0.  1.
    9900012    2    1    2    0    0  0.17807874234E+02 -0.50840844832E+01  0.27770957736E+01  0.72461533150E+02  0.69999951613E+02 0.  0.
         12    1    1    2    0    0 -0.17807874234E+02  0.50840844832E+01 -0.27770957736E+01  0.18726466850E+02  0.00000000000E+00 0. -1.
         11    1    3    3    0    0 -0.38246034077E+01 -0.72169967633E+00  0.58211392676E+01  0.70024355965E+01  0.51100000000E-03 0. -1.
        -11    1    3    3    0    0  0.63832228574E+00 -0.44885773399E+01  0.27789322283E+02  0.28156725930E+02  0.51100000000E-03 0.  1.
        -12    1    3    3    0    0  0.20994155355E+02  0.12619253297E+00 -0.30833365777E+02  0.37302371624E+02  0.00000000000E+00 0.  1.
</event>
<event>
 7    1  0.1692604E-013  0.7246152E+02  0.7816164E-02  0.1226708E+00
        -11   -1    0    0    0    0  0.00000000000E+00  0.00000000000E+00  0.45593999997E+02  0.45594000000E+02  0.51100000000E-03 0.  1.
         11   -1    0    0    0    0 -0.00000000000E+00 -0.00000000000E+00 -0.45593999997E+02  0.45594000000E+02  0.51100000000E-03 0. -1.
    9900012    2    1    2    0    0 -0.56041020157E+01  0.34512000342E+01  0.17531809523E+02  0.72461519118E+02  0.69999933333E+02 0.  0.
         12    1    1    2    0    0  0.56041020157E+01 -0.34512000342E+01 -0.17531809523E+02  0.18726480882E+02  0.00000000000E+00 0. -1.
         11    1    3    3    0    0  0.46994184244E+01  0.17097380624E+02  0.25943266260E+02  0.31423844804E+02  0.51100000000E-03 0. -1.
        -11    1    3    3    0    0 -0.12172040502E+02  0.82107802067E+01  0.47790076743E+01  0.15440673437E+02  0.51100000000E-03 0.  1.
         12    1    3    3    0    0  0.18685200617E+01 -0.21856960797E+02 -0.13190464411E+02  0.25597000877E+02  0.00000000000E+00 0. -1.
</event>
<event>
 7    1  0.1692604E-013  0.7246156E+02  0.7816164E-02  0.1226708E+00
        -11   -1    0    0    0    0  0.00000000000E+00  0.00000000000E+00  0.45593999997E+02  0.45594000000E+02  0.51100000000E-03 0. -1.
         11   -1    0    0    0    0 -0.00000000000E+00 -0.00000000000E+00 -0.45593999997E+02  0.45594000000E+02  0.51100000000E-03 0.  1.
    9900012    2    1    2    0    0  0.45736780170E+01  0.16872306707E+02 -0.67146358816E+01  0.72461558821E+02  0.69999985054E+02 0.  0.
         12    1    1    2    0    0 -0.45736780170E+01 -0.16872306707E+02  0.67146358816E+01  0.18726441179E+02  0.00000000000E+00 0. -1.
         11    1    3    3    0    0  0.62132607427E+00 -0.24375429587E+01 -0.14488542828E+02  0.14705289365E+02  0.51100000000E-03 0. -1.
        -11    1    3    3    0    0 -0.64306121143E+00  0.17138233332E+02 -0.21806327371E+02  0.27742539234E+02  0.51100000000E-03 0.  1.
         12    1    3    3    0    0  0.45954131542E+01  0.21716163337E+01  0.29580234318E+02  0.30013730222E+02  0.00000000000E+00 0. -1.
</event>
<event>
 7    1  0.1692604E-013  0.7246156E+02  0.7816164E-02  0.1226708E+00
        -11   -1    0    0    0    0  0.00000000000E+00  0.00000000000E+00  0.45593999997E+02  0.45594000000E+02  0.51100000000E-03 0.  1.
         11   -1    0    0    0    0 -0.00000000000E+00 -0.00000000000E+00 -0.45593999997E+02  0.45594000000E+02  0.51100000000E-03 0. -1.
    9900012    2    1    2    0    0 -0.34839857840E+00  0.14733626105E+02  0.11553289836E+02  0.72461558112E+02  0.69999984130E+02 0.  0.
         12    1    1    2    0    0  0.34839857840E+00 -0.14733626105E+02 -0.11553289836E+02  0.18726441888E+02  0.00000000000E+00 0. -1.
         11    1    3    3    0    0 -0.21949426881E+02 -0.77629701420E+01 -0.16044011106E+02  0.28274570526E+02  0.51100000000E-03 0. -1.
        -11    1    3    3    0    0  0.57033543289E+01  0.12025597223E+02  0.40596029604E+01  0.13914870306E+02  0.51100000000E-03 0.  1.
        -12    1    3    3    0    0  0.15897673974E+02  0.10470999024E+02  0.23537697981E+02  0.30272117280E+02  0.00000000000E+00 0.  1.
</event>
<event>
 7    1  0.1692604E-013  0.7246221E+02  0.7816164E-02  0.1226706E+00
        -11   -1    0    0    0    0  0.00000000000E+00  0.00000000000E+00  0.45593999997E+02  0.45594000000E+02  0.51100000000E-03 0.  1.
         11   -1    0    0    0    0 -0.00000000000E+00 -0.00000000000E+00 -0.45593999997E+02  0.45594000000E+02  0.51100000000E-03 0. -1.
    9900012    2    1    2    0    0  0.35309437493E+01 -0.12784414196E+02  0.13219166556E+02  0.72462210977E+02  0.70000834603E+02 0.  0.
         12    1    1    2    0    0 -0.35309437493E+01  0.12784414196E+02 -0.13219166556E+02  0.18725789023E+02  0.00000000000E+00 0. -1.
         11    1    3    3    0    0 -0.56348461656E+01  0.84009801026E+01 -0.14772994973E+02  0.17904450249E+02  0.51100000000E-03 0. -1.
        -11    1    3    3    0    0  0.16229749998E+02  0.49721535736E+01  0.20158973273E+02  0.26353582296E+02  0.51100000000E-03 0.  1.
         12    1    3    3    0    0 -0.70639600831E+01 -0.26157547872E+02  0.78331882567E+01  0.28204178432E+02  0.00000000000E+00 0. -1.
</event>
<event>
 7    1  0.1692604E-013  0.7246157E+02  0.7816164E-02  0.1226708E+00
        -11   -1    0    0    0    0  0.00000000000E+00  0.00000000000E+00  0.45593999997E+02  0.45594000000E+02  0.51100000000E-03 0.  1.
         11   -1    0    0    0    0 -0.00000000000E+00 -0.00000000000E+00 -0.45593999997E+02  0.45594000000E+02  0.51100000000E-03 0. -1.
    9900012    2    1    2    0    0  0.13723642038E+02 -0.87075234096E+01  0.93016037575E+01  0.72461570891E+02  0.70000000777E+02 0.  0.
         12    1    1    2    0    0 -0.13723642038E+02  0.87075234096E+01 -0.93016037575E+01  0.18726429109E+02  0.00000000000E+00 0. -1.
         11    1    3    3    0    0 -0.15381446722E+02  0.17558394548E+02 -0.28339753905E+01  0.23514198671E+02  0.51100000000E-03 0. -1.
        -11    1    3    3    0    0  0.14659886551E+02 -0.10236073596E+02  0.19205890601E+02  0.26240345089E+02  0.51100000000E-03 0.  1.
        -12    1    3    3    0    0  0.14445202208E+02 -0.16029844361E+02 -0.70703114529E+01  0.22707027131E+02  0.00000000000E+00 0.  1.
</event>
<event>
 7    1  0.1692604E-013  0.7246169E+02  0.7816164E-02  0.1226708E+00
        -11   -1    0    0    0    0  0.00000000000E+00  0.00000000000E+00  0.45593999997E+02  0.45594000000E+02  0.51100000000E-03 0. -1.
         11   -1    0    0    0    0 -0.00000000000E+00 -0.00000000000E+00 -0.45593999997E+02  0.45594000000E+02  0.51100000000E-03 0.  1.
    9900012    2    1    2    0    0  0.10817585409E+02  0.14899319919E+02 -0.34153635114E+01  0.72461692408E+02  0.70000159075E+02 0.  0.
         12    1    1    2    0    0 -0.10817585409E+02 -0.14899319919E+02  0.34153635114E+01  0.18726307592E+02  0.00000000000E+00 0. -1.
         11    1    3    3    0    0 -0.86287925117E+01 -0.19068354471E+02  0.10171918514E+02  0.23270713976E+02  0.51100000000E-03 0. -1.
        -11    1    3    3    0    0 -0.41383513222E+01  0.17429394479E+02 -0.89128549438E+01  0.20008716277E+02  0.51100000000E-03 0.  1.
        -12    1    3    3    0    0  0.23584729243E+02  0.16538279911E+02 -0.46744270819E+01  0.29182262154E+02  0.00000000000E+00 0.  1.
</event>
<event>
 7    1  0.1692604E-013  0.7246161E+02  0.7816164E-02  0.1226708E+00
        -11   -1    0    0    0    0  0.00000000000E+00  0.00000000000E+00  0.45593999997E+02  0.45594000000E+02  0.51100000000E-03 0. -1.
         11   -1    0    0    0    0 -0.00000000000E+00 -0.00000000000E+00 -0.45593999997E+02  0.45594000000E+02  0.51100000000E-03 0.  1.
    9900012    2    1    2    0    0  0.12261507087E+02  0.12658997723E+02 -0.63311018922E+01  0.72461611385E+02  0.70000053528E+02 0.  0.
         12    1    1    2    0    0 -0.12261507087E+02 -0.12658997723E+02  0.63311018922E+01  0.18726388615E+02  0.00000000000E+00 0. -1.
         11    1    3    3    0    0  0.72565035906E+01 -0.56704402061E+01 -0.97945468491E+01  0.13444102229E+02  0.51100000000E-03 0. -1.
        -11    1    3    3    0    0 -0.11944162462E+02 -0.73771181823E+01 -0.16999388356E+02  0.22046861326E+02  0.51100000000E-03 0.  1.
         12    1    3    3    0    0  0.16949165959E+02  0.25706556111E+02  0.20462833313E+02  0.36970647830E+02  0.00000000000E+00 0. -1.
</event>
<event>
 7    1  0.1692604E-013  0.7246168E+02  0.7816164E-02  0.1226708E+00
        -11   -1    0    0    0    0  0.00000000000E+00  0.00000000000E+00  0.45593999997E+02  0.45594000000E+02  0.51100000000E-03 0.  1.
         11   -1    0    0    0    0 -0.00000000000E+00 -0.00000000000E+00 -0.45593999997E+02  0.45594000000E+02  0.51100000000E-03 0. -1.
    9900012    2    1    2    0    0  0.19955272286E+00 -0.13556166985E+02  0.12917639735E+02  0.72461684267E+02  0.70000148470E+02 0.  0.
         12    1    1    2    0    0 -0.19955272286E+00  0.13556166985E+02 -0.12917639735E+02  0.18726315733E+02  0.00000000000E+00 0. -1.
         11    1    3    3    0    0  0.16082287370E+02 -0.34459045850E+01 -0.96558654351E+01  0.19072230153E+02  0.51100000000E-03 0. -1.
        -11    1    3    3    0    0 -0.48076798029E+01 -0.14795468869E+02 -0.10117017909E+02  0.18557309497E+02  0.51100000000E-03 0.  1.
         12    1    3    3    0    0 -0.11075054844E+02  0.46852064688E+01  0.32690523079E+02  0.34832144617E+02  0.00000000000E+00 0. -1.
</event>
<event>
 7    1  0.1692604E-013  0.7246153E+02  0.7816164E-02  0.1226708E+00
        -11   -1    0    0    0    0  0.00000000000E+00  0.00000000000E+00  0.45593999997E+02  0.45594000000E+02  0.51100000000E-03 0. -1.
         11   -1    0    0    0    0 -0.00000000000E+00 -0.00000000000E+00 -0.45593999997E+02  0.45594000000E+02  0.51100000000E-03 0.  1.
    9900012    2    1    2    0    0  0.13940748120E+02 -0.43554187650E+01  0.11720340164E+02  0.72461534655E+02  0.69999953573E+02 0.  0.
         12    1    1    2    0    0 -0.13940748120E+02  0.43554187650E+01 -0.11720340164E+02  0.18726465345E+02  0.00000000000E+00 0. -1.
         11    1    3    3    0    0 -0.12932223128E+02 -0.19435694914E+02  0.11679736500E+01  0.23374190778E+02  0.51100000000E-03 0. -1.
        -11    1    3    3    0    0  0.57397067243E+01 -0.33051880766E+00 -0.12794989095E+02  0.14027302740E+02  0.51100000000E-03 0.  1.
         12    1    3    3    0    0  0.21133264524E+02  0.15410794956E+02  0.23347355608E+02  0.35060041137E+02  0.00000000000E+00 0. -1.
</event>
<event>
 7    1  0.1692604E-013  0.7246170E+02  0.7816164E-02  0.1226708E+00
        -11   -1    0    0    0    0  0.00000000000E+00  0.00000000000E+00  0.45593999997E+02  0.45594000000E+02  0.51100000000E-03 0.  1.
         11   -1    0    0    0    0 -0.00000000000E+00 -0.00000000000E+00 -0.45593999997E+02  0.45594000000E+02  0.51100000000E-03 0. -1.
    9900012    2    1    2    0    0  0.18225965074E+02  0.29457736820E+00 -0.42897245543E+01  0.72461699900E+02  0.70000168835E+02 0.  0.
         12    1    1    2    0    0 -0.18225965074E+02 -0.29457736820E+00  0.42897245543E+01  0.18726300100E+02  0.00000000000E+00 0. -1.
         11    1    3    3    0    0 -0.27196793169E+01  0.83912542314E+01 -0.30024907146E+01  0.93179801413E+01  0.51100000000E-03 0. -1.
        -11    1    3    3    0    0 -0.24994630729E+01 -0.29530363585E+01  0.26296064147E+02  0.26579140868E+02  0.51100000000E-03 0.  1.
         12    1    3    3    0    0  0.23445107464E+02 -0.51436405047E+01 -0.27583297987E+02  0.36564578890E+02  0.00000000000E+00 0. -1.
</event>
<event>
 7    1  0.1692604E-013  0.7246137E+02  0.7816164E-02  0.1226709E+00
        -11   -1    0    0    0    0  0.00000000000E+00  0.00000000000E+00  0.45593999997E+02  0.45594000000E+02  0.51100000000E-03 0. -1.
         11   -1    0    0    0    0 -0.00000000000E+00 -0.00000000000E+00 -0.45593999997E+02  0.45594000000E+02  0.51100000000E-03 0.  1.
    9900012    2    1    2    0    0 -0.11918325771E+02 -0.27767262098E+00 -0.14441718098E+02  0.72461366216E+02  0.69999734150E+02 0.  0.
         12    1    1    2    0    0  0.11918325771E+02  0.27767262098E+00  0.14441718098E+02  0.18726633784E+02  0.00000000000E+00 0. -1.
         11    1    3    3    0    0  0.73040291907E+01  0.29778037686E+01  0.28259792858E+01  0.83786822883E+01  0.51100000000E-03 0. -1.
        -11    1    3    3    0    0 -0.57409348383E+01  0.22350613839E+02 -0.25107561879E+02  0.34101289353E+02  0.51100000000E-03 0.  1.
         12    1    3    3    0    0 -0.13481420123E+02 -0.25606090228E+02  0.78398644959E+01  0.29981394574E+02  0.00000000000E+00 0. -1.
</event>
<event>
 7    1  0.1692604E-013  0.7246150E+02  0.7816164E-02  0.1226708E+00
        -11   -1    0    0    0    0  0.00000000000E+00  0.00000000000E+00  0.45593999997E+02  0.45594000000E+02  0.51100000000E-03 0.  1.
         11   -1    0    0    0    0 -0.00000000000E+00 -0.00000000000E+00 -0.45593999997E+02  0.45594000000E+02  0.51100000000E-03 0. -1.
    9900012    2    1    2    0    0 -0.62010777289E+01  0.55174407261E+01  0.16786487877E+02  0.72461502932E+02  0.69999912248E+02 0.  0.
         12    1    1    2    0    0  0.62010777289E+01 -0.55174407261E+01 -0.16786487877E+02  0.18726497068E+02  0.00000000000E+00 0. -1.
         11    1    3    3    0    0 -0.83390650378E+01  0.13236863900E+02  0.89172019841E+01  0.18007527956E+02  0.51100000000E-03 0. -1.
        -11    1    3    3    0    0 -0.78822914433E+01  0.21371351523E+02  0.63554076051E+01  0.23648602293E+02  0.51100000000E-03 0.  1.
         12    1    3    3    0    0  0.10020278752E+02 -0.29090774696E+02  0.15138782882E+01  0.30805372684E+02  0.00000000000E+00 0. -1.
</event>
<event>
 7    1  0.1692604E-013  0.7246156E+02  0.7816164E-02  0.1226708E+00
        -11   -1    0    0    0    0  0.00000000000E+00  0.00000000000E+00  0.45593999997E+02  0.45594000000E+02  0.51100000000E-03 0.  1.
         11   -1    0    0    0    0 -0.00000000000E+00 -0.00000000000E+00 -0.45593999997E+02  0.45594000000E+02  0.51100000000E-03 0. -1.
    9900012    2    1    2    0    0 -0.97603200873E+01 -0.77182714204E+01  0.13994425924E+02  0.72461560966E+02  0.69999987849E+02 0.  0.
         12    1    1    2    0    0  0.97603200873E+01  0.77182714204E+01 -0.13994425924E+02  0.18726439034E+02  0.00000000000E+00 0. -1.
         11    1    3    3    0    0 -0.16974658434E+02 -0.12811767504E+02 -0.94102974181E+00  0.21287694867E+02  0.51100000000E-03 0. -1.
        -11    1    3    3    0    0 -0.16768099125E+02 -0.46334996542E+01 -0.54490933522E+01  0.18229950245E+02  0.51100000000E-03 0.  1.
         12    1    3    3    0    0  0.23982437471E+02  0.97269957376E+01  0.20384549019E+02  0.32943915855E+02  0.00000000000E+00 0. -1.
</event>
<event>
 7    1  0.1692604E-013  0.7246157E+02  0.7816164E-02  0.1226708E+00
        -11   -1    0    0    0    0  0.00000000000E+00  0.00000000000E+00  0.45593999997E+02  0.45594000000E+02  0.51100000000E-03 0.  1.
         11   -1    0    0    0    0 -0.00000000000E+00 -0.00000000000E+00 -0.45593999997E+02  0.45594000000E+02  0.51100000000E-03 0. -1.
    9900012    2    1    2    0    0  0.15991106566E+02  0.71449543551E+01  0.66267064857E+01  0.72461572130E+02  0.70000002391E+02 0.  0.
         12    1    1    2    0    0 -0.15991106566E+02 -0.71449543551E+01 -0.66267064857E+01  0.18726427870E+02  0.00000000000E+00 0. -1.
         11    1    3    3    0    0  0.14468945708E+02 -0.17417923087E+02 -0.16207383863E+02  0.27846251570E+02  0.51100000000E-03 0. -1.
        -11    1    3    3    0    0 -0.33993470978E+01 -0.54229879942E+01 -0.32575046978E+00  0.64086248998E+01  0.51100000000E-03 0.  1.
        -12    1    3    3    0    0  0.49215079556E+01  0.29985865436E+02  0.23159840819E+02  0.38206695660E+02  0.00000000000E+00 0.  1.
</event>
<event>
 7    1  0.1692604E-013  0.7246156E+02  0.7816164E-02  0.1226708E+00
        -11   -1    0    0    0    0  0.00000000000E+00  0.00000000000E+00  0.45593999997E+02  0.45594000000E+02  0.51100000000E-03 0.  1.
         11   -1    0    0    0    0 -0.00000000000E+00 -0.00000000000E+00 -0.45593999997E+02  0.45594000000E+02  0.51100000000E-03 0. -1.
    9900012    2    1    2    0    0  0.73526790564E+01 -0.14061731432E+01  0.17165086101E+02  0.72461564325E+02  0.69999992224E+02 0.  0.
         12    1    1    2    0    0 -0.73526790564E+01  0.14061731432E+01 -0.17165086101E+02  0.18726435675E+02  0.00000000000E+00 0. -1.
         11    1    3    3    0    0  0.21059643119E+02  0.68258046087E+01 -0.90341227336E+01  0.23910574035E+02  0.51100000000E-03 0. -1.
        -11    1    3    3    0    0 -0.16148902461E+01 -0.48847991421E+01 -0.94492152722E+01  0.10759033539E+02  0.51100000000E-03 0.  1.
        -12    1    3    3    0    0 -0.12092073816E+02 -0.33471786098E+01  0.35648424107E+02  0.37791956752E+02  0.00000000000E+00 0.  1.
</event>
<event>
 7    1  0.1692604E-013  0.7246156E+02  0.7816164E-02  0.1226708E+00
        -11   -1    0    0    0    0  0.00000000000E+00  0.00000000000E+00  0.45593999997E+02  0.45594000000E+02  0.51100000000E-03 0. -1.
         11   -1    0    0    0    0 -0.00000000000E+00 -0.00000000000E+00 -0.45593999997E+02  0.45594000000E+02  0.51100000000E-03 0.  1.
    9900012    2    1    2    0    0  0.64268348912E+01  0.15888818795E+02 -0.75445753565E+01  0.72461564495E+02  0.69999992445E+02 0.  0.
         12    1    1    2    0    0 -0.64268348912E+01 -0.15888818795E+02  0.75445753565E+01  0.18726435505E+02  0.00000000000E+00 0. -1.
         11    1    3    3    0    0  0.33879445265E+01  0.18238636645E+01 -0.23087987176E+01  0.44872261544E+01  0.51100000000E-03 0. -1.
        -11    1    3    3    0    0  0.21199696793E+02 -0.72997788841E+01 -0.25065854909E+02  0.33630506961E+02  0.51100000000E-03 0.  1.
         12    1    3    3    0    0 -0.18160806428E+02  0.21364734014E+02  0.19830078270E+02  0.34343831380E+02  0.00000000000E+00 0. -1.
</event>
<event>
 7    1  0.1692604E-013  0.7246159E+02  0.7816164E-02  0.1226708E+00
        -11   -1    0    0    0    0  0.00000000000E+00  0.00000000000E+00  0.45593999997E+02  0.45594000000E+02  0.51100000000E-03 0. -1.
         11   -1    0    0    0    0 -0.00000000000E+00 -0.00000000000E+00 -0.45593999997E+02  0.45594000000E+02  0.51100000000E-03 0.  1.
    9900012    2    1    2    0    0 -0.13403218038E+02  0.84393617763E+01 -0.99904585596E+01  0.72461592357E+02  0.70000028741E+02 0.  0.
         12    1    1    2    0    0  0.13403218038E+02 -0.84393617763E+01  0.99904585596E+01  0.18726407643E+02  0.00000000000E+00 0. -1.
         11    1    3    3    0    0 -0.12022326663E+02 -0.53000392234E+01 -0.41027268370E+01  0.13764415059E+02  0.51100000000E-03 0. -1.
        -11    1    3    3    0    0 -0.21579161787E+02 -0.45177152328E+01 -0.18415748431E+02  0.28726464538E+02  0.51100000000E-03 0.  1.
         12    1    3    3    0    0  0.20198270411E+02  0.18257116233E+02  0.12528016708E+02  0.29970712760E+02  0.00000000000E+00 0. -1.
</event>
<event>
 7    1  0.1692604E-013  0.7246222E+02  0.7816164E-02  0.1226706E+00
        -11   -1    0    0    0    0  0.00000000000E+00  0.00000000000E+00  0.45593999997E+02  0.45594000000E+02  0.51100000000E-03 0. -1.
         11   -1    0    0    0    0 -0.00000000000E+00 -0.00000000000E+00 -0.45593999997E+02  0.45594000000E+02  0.51100000000E-03 0.  1.
    9900012    2    1    2    0    0  0.31032430168E+01  0.92246384848E+01 -0.15997837014E+02  0.72462219335E+02  0.70000845491E+02 0.  0.
         12    1    1    2    0    0 -0.31032430168E+01 -0.92246384848E+01  0.15997837014E+02  0.18725780665E+02  0.00000000000E+00 0. -1.
         11    1    3    3    0    0 -0.28891007972E+02  0.45962359710E+00 -0.62675329668E+01  0.29566595429E+02  0.51100000000E-03 0. -1.
        -11    1    3    3    0    0  0.82794504871E+00 -0.45333298235E+01 -0.76703030800E+01  0.89481909843E+01  0.51100000000E-03 0.  1.
        -12    1    3    3    0    0  0.31166305940E+02  0.13298344711E+02 -0.20600009668E+01  0.33947432922E+02  0.00000000000E+00 0.  1.
</event>
<event>
 7    1  0.1692604E-013  0.7246156E+02  0.7816164E-02  0.1226708E+00
        -11   -1    0    0    0    0  0.00000000000E+00  0.00000000000E+00  0.45593999997E+02  0.45594000000E+02  0.51100000000E-03 0. -1.
         11   -1    0    0    0    0 -0.00000000000E+00 -0.00000000000E+00 -0.45593999997E+02  0.45594000000E+02  0.51100000000E-03 0.  1.
    9900012    2    1    2    0    0 -0.16933444458E+02 -0.79311818753E+01  0.10170354655E+01  0.72461560181E+02  0.69999986826E+02 0.  0.
         12    1    1    2    0    0  0.16933444458E+02  0.79311818753E+01 -0.10170354655E+01  0.18726439819E+02  0.00000000000E+00 0. -1.
         11    1    3    3    0    0 -0.98153056853E+00  0.57124135608E+01 -0.22992112624E+01  0.62354986678E+01  0.51100000000E-03 0. -1.
        -11    1    3    3    0    0 -0.27436295424E+02  0.74231220938E+00 -0.21825168767E+02  0.35066213454E+02  0.51100000000E-03 0.  1.
         12    1    3    3    0    0  0.11484381535E+02 -0.14385907645E+02  0.25141415495E+02  0.31159848060E+02  0.00000000000E+00 0. -1.
</event>
<event>
 7    1  0.1692604E-013  0.7246161E+02  0.7816164E-02  0.1226708E+00
        -11   -1    0    0    0    0  0.00000000000E+00  0.00000000000E+00  0.45593999997E+02  0.45594000000E+02  0.51100000000E-03 0.  1.
         11   -1    0    0    0    0 -0.00000000000E+00 -0.00000000000E+00 -0.45593999997E+02  0.45594000000E+02  0.51100000000E-03 0. -1.
    9900012    2    1    2    0    0  0.77300951421E+01 -0.15580627306E+02  0.69402816865E+01  0.72461606112E+02  0.70000046660E+02 0.  0.
         12    1    1    2    0    0 -0.77300951421E+01  0.15580627306E+02 -0.69402816865E+01  0.18726393888E+02  0.00000000000E+00 0. -1.
         11    1    3    3    0    0  0.37984851050E+01 -0.20932697944E+02  0.12128139726E+02  0.24488734262E+02  0.51100000000E-03 0. -1.
        -11    1    3    3    0    0  0.53214380332E+01 -0.48982352846E+01  0.19718920521E+02  0.21003481579E+02  0.51100000000E-03 0.  1.
         12    1    3    3    0    0 -0.13898279960E+01  0.10250305923E+02 -0.24906778560E+02  0.26969390271E+02  0.00000000000E+00 0. -1.
</event>
<event>
 7    1  0.1692604E-013  0.7246155E+02  0.7816164E-02  0.1226708E+00
        -11   -1    0    0    0    0  0.00000000000E+00  0.00000000000E+00  0.45593999997E+02  0.45594000000E+02  0.51100000000E-03 0. -1.
         11   -1    0    0    0    0 -0.00000000000E+00 -0.00000000000E+00 -0.45593999997E+02  0.45594000000E+02  0.51100000000E-03 0.  1.
    9900012    2    1    2    0    0 -0.97337280158E+01  0.14546521452E+02  0.66583277944E+01  0.72461546079E+02  0.69999968454E+02 0.  0.
         12    1    1    2    0    0  0.97337280158E+01 -0.14546521452E+02 -0.66583277944E+01  0.18726453921E+02  0.00000000000E+00 0. -1.
         11    1    3    3    0    0 -0.84730206979E+01  0.62020755135E+01 -0.88550064975E+01  0.13735682027E+02  0.51100000000E-03 0. -1.
        -11    1    3    3    0    0 -0.27192902834E+02  0.10092550445E+02  0.11457695436E+01  0.29028026580E+02  0.51100000000E-03 0.  1.
         12    1    3    3    0    0  0.25932195516E+02 -0.17481045063E+01  0.14367564748E+02  0.29697837471E+02  0.00000000000E+00 0. -1.
</event>
<event>
 7    1  0.1692604E-013  0.7246139E+02  0.7816164E-02  0.1226708E+00
        -11   -1    0    0    0    0  0.00000000000E+00  0.00000000000E+00  0.45593999997E+02  0.45594000000E+02  0.51100000000E-03 0.  1.
         11   -1    0    0    0    0 -0.00000000000E+00 -0.00000000000E+00 -0.45593999997E+02  0.45594000000E+02  0.51100000000E-03 0. -1.
    9900012    2    1    2    0    0 -0.15056883278E+02  0.11121292923E+02 -0.54141660104E+00  0.72461387326E+02  0.69999761649E+02 0.  0.
         12    1    1    2    0    0  0.15056883278E+02 -0.11121292923E+02  0.54141660104E+00  0.18726612674E+02  0.00000000000E+00 0. -1.
         11    1    3    3    0    0  0.49819593666E+00 -0.63713611362E+01  0.52941104238E+01  0.82987979467E+01  0.51100000000E-03 0. -1.
        -11    1    3    3    0    0  0.10442204685E+02 -0.45903735890E+01  0.18866837570E+02  0.22046966425E+02  0.51100000000E-03 0.  1.
         12    1    3    3    0    0 -0.25997283899E+02  0.22083027648E+02 -0.24702364595E+02  0.42115622954E+02  0.00000000000E+00 0. -1.
</event>
<event>
 7    1  0.1692604E-013  0.7246159E+02  0.7816164E-02  0.1226708E+00
        -11   -1    0    0    0    0  0.00000000000E+00  0.00000000000E+00  0.45593999997E+02  0.45594000000E+02  0.51100000000E-03 0. -1.
         11   -1    0    0    0    0 -0.00000000000E+00 -0.00000000000E+00 -0.45593999997E+02  0.45594000000E+02  0.51100000000E-03 0.  1.
    9900012    2    1    2    0    0  0.51204334386E+01 -0.14169471371E+02  0.11121399741E+02  0.72461593785E+02  0.70000030601E+02 0.  0.
         12    1    1    2    0    0 -0.51204334386E+01  0.14169471371E+02 -0.11121399741E+02  0.18726406215E+02  0.00000000000E+00 0. -1.
         11    1    3    3    0    0 -0.45412329839E+01  0.58631670508E+01 -0.96086381347E+01  0.12137769645E+02  0.51100000000E-03 0. -1.
        -11    1    3    3    0    0 -0.19769136088E+02 -0.75764939077E+01 -0.17615737164E+01  0.21244414414E+02  0.51100000000E-03 0.  1.
         12    1    3    3    0    0  0.29430802510E+02 -0.12456144514E+02  0.22491611592E+02  0.39079409726E+02  0.00000000000E+00 0. -1.
</event>
<event>
 7    1  0.1692604E-013  0.7246160E+02  0.7816164E-02  0.1226708E+00
        -11   -1    0    0    0    0  0.00000000000E+00  0.00000000000E+00  0.45593999997E+02  0.45594000000E+02  0.51100000000E-03 0.  1.
         11   -1    0    0    0    0 -0.00000000000E+00 -0.00000000000E+00 -0.45593999997E+02  0.45594000000E+02  0.51100000000E-03 0. -1.
    9900012    2    1    2    0    0 -0.70972692518E+01  0.14487263412E+02  0.95092588131E+01  0.72461600582E+02  0.70000039455E+02 0.  0.
         12    1    1    2    0    0  0.70972692518E+01 -0.14487263412E+02 -0.95092588131E+01  0.18726399418E+02  0.00000000000E+00 0. -1.
         11    1    3    3    0    0  0.99532991334E+01  0.19433129525E+02 -0.24864581687E+00  0.21835212657E+02  0.51100000000E-03 0. -1.
        -11    1    3    3    0    0 -0.87792101145E+01  0.96154979831E+01  0.24868099577E+02  0.28070530962E+02  0.51100000000E-03 0.  1.
        -12    1    3    3    0    0 -0.82713582707E+01 -0.14561364097E+02 -0.15110194947E+02  0.22555856963E+02  0.00000000000E+00 0.  1.
</event>
<event>
 7    1  0.1692604E-013  0.7246153E+02  0.7816164E-02  0.1226708E+00
        -11   -1    0    0    0    0  0.00000000000E+00  0.00000000000E+00  0.45593999997E+02  0.45594000000E+02  0.51100000000E-03 0.  1.
         11   -1    0    0    0    0 -0.00000000000E+00 -0.00000000000E+00 -0.45593999997E+02  0.45594000000E+02  0.51100000000E-03 0. -1.
    9900012    2    1    2    0    0 -0.70036391720E+01 -0.15390833742E+02  0.80468515204E+01  0.72461533587E+02  0.69999952182E+02 0.  0.
         12    1    1    2    0    0  0.70036391720E+01  0.15390833742E+02 -0.80468515204E+01  0.18726466413E+02  0.00000000000E+00 0. -1.
         11    1    3    3    0    0  0.67178761089E+01 -0.57296275183E+01 -0.16800643361E+02  0.18979465443E+02  0.51100000000E-03 0. -1.
        -11    1    3    3    0    0  0.79375355784E+01  0.12096483769E+01 -0.88666286891E+01  0.11961806921E+02  0.51100000000E-03 0.  1.
         12    1    3    3    0    0 -0.21659050859E+02 -0.10870854600E+02  0.33714123570E+02  0.41520261223E+02  0.00000000000E+00 0. -1.
</event>
<event>
 7    1  0.1692604E-013  0.7246132E+02  0.7816164E-02  0.1226709E+00
        -11   -1    0    0    0    0  0.00000000000E+00  0.00000000000E+00  0.45593999997E+02  0.45594000000E+02  0.51100000000E-03 0. -1.
         11   -1    0    0    0    0 -0.00000000000E+00 -0.00000000000E+00 -0.45593999997E+02  0.45594000000E+02  0.51100000000E-03 0.  1.
    9900012    2    1    2    0    0 -0.15599770354E+02  0.48422312821E+01  0.91590718546E+01  0.72461317535E+02  0.69999670734E+02 0.  0.
         12    1    1    2    0    0  0.15599770354E+02 -0.48422312821E+01 -0.91590718546E+01  0.18726682465E+02  0.00000000000E+00 0. -1.
         11    1    3    3    0    0 -0.17699332767E+02  0.26862188225E+01 -0.18117675727E+02  0.25470224301E+02  0.51100000000E-03 0. -1.
        -11    1    3    3    0    0 -0.92028963386E+01  0.41373223148E+01 -0.60358065639E+01  0.11757622978E+02  0.51100000000E-03 0.  1.
         12    1    3    3    0    0  0.11302458751E+02 -0.19813098552E+01  0.33312554146E+02  0.35233470256E+02  0.00000000000E+00 0. -1.
</event>
<event>
 7    1  0.1692604E-013  0.7246155E+02  0.7816164E-02  0.1226708E+00
        -11   -1    0    0    0    0  0.00000000000E+00  0.00000000000E+00  0.45593999997E+02  0.45594000000E+02  0.51100000000E-03 0.  1.
         11   -1    0    0    0    0 -0.00000000000E+00 -0.00000000000E+00 -0.45593999997E+02  0.45594000000E+02  0.51100000000E-03 0. -1.
    9900012    2    1    2    0    0  0.63411387850E+01  0.15821736812E+02  0.77551579498E+01  0.72461551547E+02  0.69999975579E+02 0.  0.
         12    1    1    2    0    0 -0.63411387850E+01 -0.15821736812E+02 -0.77551579498E+01  0.18726448453E+02  0.00000000000E+00 0. -1.
         11    1    3    3    0    0  0.31366033925E+02  0.12431281246E+02  0.29732211179E+01  0.33870413072E+02  0.51100000000E-03 0. -1.
        -11    1    3    3    0    0  0.14464049782E+01  0.62675128218E+01  0.95760677402E+01  0.11535808509E+02  0.51100000000E-03 0.  1.
         12    1    3    3    0    0 -0.26471300118E+02 -0.28770572564E+01 -0.47941309083E+01  0.27055329966E+02  0.00000000000E+00 0. -1.
</event>
<event>
 7    1  0.1692604E-013  0.7246156E+02  0.7816164E-02  0.1226708E+00
        -11   -1    0    0    0    0  0.00000000000E+00  0.00000000000E+00  0.45593999997E+02  0.45594000000E+02  0.51100000000E-03 0. -1.
         11   -1    0    0    0    0 -0.00000000000E+00 -0.00000000000E+00 -0.45593999997E+02  0.45594000000E+02  0.51100000000E-03 0.  1.
    9900012    2    1    2    0    0  0.15398614268E+01  0.90015152530E+01 -0.16348731838E+02  0.72461561930E+02  0.69999989104E+02 0.  0.
         12    1    1    2    0    0 -0.15398614268E+01 -0.90015152530E+01  0.16348731838E+02  0.18726438070E+02  0.00000000000E+00 0. -1.
         11    1    3    3    0    0  0.11423570490E+02  0.13037136995E+02 -0.62266073945E+00  0.17345103356E+02  0.51100000000E-03 0. -1.
        -11    1    3    3    0    0  0.16536980686E+02 -0.29036585989E+01  0.88808072594E+01  0.18993991190E+02  0.51100000000E-03 0.  1.
         12    1    3    3    0    0 -0.26420689750E+02 -0.11319631434E+01 -0.24606878358E+02  0.36122467384E+02  0.00000000000E+00 0. -1.
</event>
<event>
 7    1  0.1692604E-013  0.7246150E+02  0.7816164E-02  0.1226708E+00
        -11   -1    0    0    0    0  0.00000000000E+00  0.00000000000E+00  0.45593999997E+02  0.45594000000E+02  0.51100000000E-03 0.  1.
         11   -1    0    0    0    0 -0.00000000000E+00 -0.00000000000E+00 -0.45593999997E+02  0.45594000000E+02  0.51100000000E-03 0. -1.
    9900012    2    1    2    0    0  0.83324873096E+01 -0.15804235018E+02  0.56104749976E+01  0.72461504894E+02  0.69999914804E+02 0.  0.
         12    1    1    2    0    0 -0.83324873096E+01  0.15804235018E+02 -0.56104749976E+01  0.18726495106E+02  0.00000000000E+00 0. -1.
         11    1    3    3    0    0  0.10232709546E+02  0.10090819593E+02  0.15695395052E+02  0.21280940083E+02  0.51100000000E-03 0. -1.
        -11    1    3    3    0    0 -0.38472873597E+01 -0.31498185923E+02  0.75132239264E+01  0.32609597828E+02  0.51100000000E-03 0.  1.
         12    1    3    3    0    0  0.19470651230E+01  0.56031313126E+01 -0.17598143981E+02  0.18570966983E+02  0.00000000000E+00 0. -1.
</event>
<event>
 7    1  0.1692604E-013  0.7246146E+02  0.7816164E-02  0.1226708E+00
        -11   -1    0    0    0    0  0.00000000000E+00  0.00000000000E+00  0.45593999997E+02  0.45594000000E+02  0.51100000000E-03 0.  1.
         11   -1    0    0    0    0 -0.00000000000E+00 -0.00000000000E+00 -0.45593999997E+02  0.45594000000E+02  0.51100000000E-03 0. -1.
    9900012    2    1    2    0    0 -0.78774739808E+01 -0.92675268477E+01  0.14238735247E+02  0.72461461836E+02  0.69999858712E+02 0.  0.
         12    1    1    2    0    0  0.78774739808E+01  0.92675268477E+01 -0.14238735247E+02  0.18726538164E+02  0.00000000000E+00 0. -1.
         11    1    3    3    0    0  0.68032568883E+01  0.16357966284E+02 -0.14574791863E+02  0.22941053231E+02  0.51100000000E-03 0. -1.
        -11    1    3    3    0    0 -0.34331165165E+01 -0.14083015902E+02 -0.21109580864E+01  0.14648336773E+02  0.51100000000E-03 0.  1.
        -12    1    3    3    0    0 -0.11247614353E+02 -0.11542477229E+02  0.30924485196E+02  0.34872071832E+02  0.00000000000E+00 0.  1.
</event>
<event>
 7    1  0.1692604E-013  0.7246157E+02  0.7816164E-02  0.1226708E+00
        -11   -1    0    0    0    0  0.00000000000E+00  0.00000000000E+00  0.45593999997E+02  0.45594000000E+02  0.51100000000E-03 0. -1.
         11   -1    0    0    0    0 -0.00000000000E+00 -0.00000000000E+00 -0.45593999997E+02  0.45594000000E+02  0.51100000000E-03 0.  1.
    9900012    2    1    2    0    0 -0.66470399737E+01  0.12382370905E+02 -0.12376307152E+02  0.72461568723E+02  0.69999997954E+02 0.  0.
         12    1    1    2    0    0  0.66470399737E+01 -0.12382370905E+02  0.12376307152E+02  0.18726431277E+02  0.00000000000E+00 0. -1.
         11    1    3    3    0    0  0.69321501508E+01  0.92153526304E+01 -0.13364343166E+02  0.17651716583E+02  0.51100000000E-03 0. -1.
        -11    1    3    3    0    0 -0.14337791908E+02  0.14164230553E+02 -0.21681597858E+02  0.29602185559E+02  0.51100000000E-03 0.  1.
         12    1    3    3    0    0  0.75860178309E+00 -0.10997212279E+02  0.22669633872E+02  0.25207666581E+02  0.00000000000E+00 0. -1.
</event>
<event>
 7    1  0.1692604E-013  0.7246160E+02  0.7816164E-02  0.1226708E+00
        -11   -1    0    0    0    0  0.00000000000E+00  0.00000000000E+00  0.45593999997E+02  0.45594000000E+02  0.51100000000E-03 0.  1.
         11   -1    0    0    0    0 -0.00000000000E+00 -0.00000000000E+00 -0.45593999997E+02  0.45594000000E+02  0.51100000000E-03 0. -1.
    9900012    2    1    2    0    0  0.15765690971E+02  0.87614777487E+01  0.50356220761E+01  0.72461601686E+02  0.70000040893E+02 0.  0.
         12    1    1    2    0    0 -0.15765690971E+02 -0.87614777487E+01 -0.50356220761E+01  0.18726398314E+02  0.00000000000E+00 0. -1.
         11    1    3    3    0    0  0.16745608053E+02  0.15713989146E+02 -0.85782036517E+01  0.24513882232E+02  0.51100000000E-03 0. -1.
        -11    1    3    3    0    0 -0.13962704164E+02 -0.87268068392E+01  0.25435417119E+02  0.30299747679E+02  0.51100000000E-03 0.  1.
         12    1    3    3    0    0  0.12982787082E+02  0.17742954421E+01 -0.11821591391E+02  0.17647971774E+02  0.00000000000E+00 0. -1.
</event>
<event>
 7    1  0.1692604E-013  0.7246158E+02  0.7816164E-02  0.1226708E+00
        -11   -1    0    0    0    0  0.00000000000E+00  0.00000000000E+00  0.45593999997E+02  0.45594000000E+02  0.51100000000E-03 0.  1.
         11   -1    0    0    0    0 -0.00000000000E+00 -0.00000000000E+00 -0.45593999997E+02  0.45594000000E+02  0.51100000000E-03 0. -1.
    9900012    2    1    2    0    0 -0.82237129297E+01 -0.45804923399E+01  0.16188532176E+02  0.72461576464E+02  0.70000008037E+02 0.  0.
         12    1    1    2    0    0  0.82237129297E+01  0.45804923399E+01 -0.16188532176E+02  0.18726423536E+02  0.00000000000E+00 0. -1.
         11    1    3    3    0    0  0.70014409020E+01  0.14923466859E+02  0.12023451311E+02  0.20403269824E+02  0.51100000000E-03 0. -1.
        -11    1    3    3    0    0  0.98614598514E+01 -0.23402604078E+02  0.74334686032E+01  0.26461041623E+02  0.51100000000E-03 0.  1.
         12    1    3    3    0    0 -0.25086613683E+02  0.38986448787E+01 -0.32683877377E+01  0.25597265018E+02  0.00000000000E+00 0. -1.
</event>
<event>
 7    1  0.1692604E-013  0.7246153E+02  0.7816164E-02  0.1226708E+00
        -11   -1    0    0    0    0  0.00000000000E+00  0.00000000000E+00  0.45593999997E+02  0.45594000000E+02  0.51100000000E-03 0. -1.
         11   -1    0    0    0    0 -0.00000000000E+00 -0.00000000000E+00 -0.45593999997E+02  0.45594000000E+02  0.51100000000E-03 0.  1.
    9900012    2    1    2    0    0 -0.12362220332E+02  0.55984764556E+01 -0.12904008482E+02  0.72461525023E+02  0.69999941025E+02 0.  0.
         12    1    1    2    0    0  0.12362220332E+02 -0.55984764556E+01  0.12904008482E+02  0.18726474977E+02  0.00000000000E+00 0. -1.
         11    1    3    3    0    0  0.23214233581E+02  0.10035116106E+02  0.81829720774E+01  0.26581294707E+02  0.51100000000E-03 0. -1.
        -11    1    3    3    0    0 -0.20366741412E+01  0.51928282309E+01 -0.11625262454E+01  0.56978043250E+01  0.51100000000E-03 0.  1.
        -12    1    3    3    0    0 -0.33539779772E+02 -0.96294678808E+01 -0.19924454314E+02  0.40182425991E+02  0.00000000000E+00 0.  1.
</event>
<event>
 7    1  0.1692604E-013  0.7246153E+02  0.7816164E-02  0.1226708E+00
        -11   -1    0    0    0    0  0.00000000000E+00  0.00000000000E+00  0.45593999997E+02  0.45594000000E+02  0.51100000000E-03 0. -1.
         11   -1    0    0    0    0 -0.00000000000E+00 -0.00000000000E+00 -0.45593999997E+02  0.45594000000E+02  0.51100000000E-03 0.  1.
    9900012    2    1    2    0    0 -0.25600605876E+00 -0.11164493321E+02 -0.15032274343E+02  0.72461528839E+02  0.69999945997E+02 0.  0.
         12    1    1    2    0    0  0.25600605876E+00  0.11164493321E+02  0.15032274343E+02  0.18726471161E+02  0.00000000000E+00 0. -1.
         11    1    3    3    0    0  0.15380092766E+01 -0.24443106220E+01 -0.17024795272E+02  0.17267998763E+02  0.51100000000E-03 0. -1.
        -11    1    3    3    0    0 -0.17015579355E+02 -0.12519923680E+02 -0.19388612510E+02  0.28673972956E+02  0.51100000000E-03 0.  1.
         12    1    3    3    0    0  0.15221564019E+02  0.37997409815E+01  0.21381133439E+02  0.26519557121E+02  0.00000000000E+00 0. -1.
</event>
<event>
 7    1  0.1692604E-013  0.7246161E+02  0.7816164E-02  0.1226708E+00
        -11   -1    0    0    0    0  0.00000000000E+00  0.00000000000E+00  0.45593999997E+02  0.45594000000E+02  0.51100000000E-03 0. -1.
         11   -1    0    0    0    0 -0.00000000000E+00 -0.00000000000E+00 -0.45593999997E+02  0.45594000000E+02  0.51100000000E-03 0.  1.
    9900012    2    1    2    0    0  0.16645852397E+02  0.67310863938E+01  0.53184217466E+01  0.72461613912E+02  0.70000056820E+02 0.  0.
         12    1    1    2    0    0 -0.16645852397E+02 -0.67310863938E+01 -0.53184217466E+01  0.18726386088E+02  0.00000000000E+00 0. -1.
         11    1    3    3    0    0  0.52054753302E+01  0.67402353807E+01  0.13072140871E+02  0.15601558051E+02  0.51100000000E-03 0. -1.
        -11    1    3    3    0    0  0.59447801989E+01  0.21594424717E+02  0.13423994400E+02  0.26112510725E+02  0.51100000000E-03 0.  1.
        -12    1    3    3    0    0  0.54955968678E+01 -0.21603573704E+02 -0.21177713525E+02  0.30747545135E+02  0.00000000000E+00 0.  1.
</event>
<event>
 7    1  0.1692604E-013  0.7246154E+02  0.7816164E-02  0.1226708E+00
        -11   -1    0    0    0    0  0.00000000000E+00  0.00000000000E+00  0.45593999997E+02  0.45594000000E+02  0.51100000000E-03 0.  1.
         11   -1    0    0    0    0 -0.00000000000E+00 -0.00000000000E+00 -0.45593999997E+02  0.45594000000E+02  0.51100000000E-03 0. -1.
    9900012    2    1    2    0    0 -0.72269582981E+01 -0.75186903923E+00  0.17259373532E+02  0.72461542567E+02  0.69999963879E+02 0.  0.
         12    1    1    2    0    0  0.72269582981E+01  0.75186903923E+00 -0.17259373532E+02  0.18726457433E+02  0.00000000000E+00 0. -1.
         11    1    3    3    0    0 -0.23487859330E+01  0.33281775264E+01  0.12065714633E+01  0.42484557152E+01  0.51100000000E-03 0. -1.
        -11    1    3    3    0    0 -0.11813132855E+02  0.21729845700E+02  0.29334058301E+02  0.38369561877E+02  0.51100000000E-03 0.  1.
         12    1    3    3    0    0  0.69349604902E+01 -0.25809892266E+02 -0.13281256232E+02  0.29843524974E+02  0.00000000000E+00 0. -1.
</event>
<event>
 7    1  0.1692604E-013  0.7246157E+02  0.7816164E-02  0.1226708E+00
        -11   -1    0    0    0    0  0.00000000000E+00  0.00000000000E+00  0.45593999997E+02  0.45594000000E+02  0.51100000000E-03 0.  1.
         11   -1    0    0    0    0 -0.00000000000E+00 -0.00000000000E+00 -0.45593999997E+02  0.45594000000E+02  0.51100000000E-03 0. -1.
    9900012    2    1    2    0    0 -0.16896852398E+02 -0.70897248792E+01  0.38615213038E+01  0.72461570372E+02  0.70000000102E+02 0.  0.
         12    1    1    2    0    0  0.16896852398E+02  0.70897248792E+01 -0.38615213038E+01  0.18726429628E+02  0.00000000000E+00 0. -1.
         11    1    3    3    0    0 -0.10796248188E+02 -0.12641812517E+02 -0.21590345543E+01  0.16764123273E+02  0.51100000000E-03 0. -1.
        -11    1    3    3    0    0 -0.18197480565E+02 -0.20035617636E+02  0.27126391626E+01  0.27201703705E+02  0.51100000000E-03 0.  1.
         12    1    3    3    0    0  0.12096876356E+02  0.25587705273E+02  0.33079166955E+01  0.28495743394E+02  0.00000000000E+00 0. -1.
</event>
<event>
 7    1  0.1692604E-013  0.7246152E+02  0.7816164E-02  0.1226708E+00
        -11   -1    0    0    0    0  0.00000000000E+00  0.00000000000E+00  0.45593999997E+02  0.45594000000E+02  0.51100000000E-03 0.  1.
         11   -1    0    0    0    0 -0.00000000000E+00 -0.00000000000E+00 -0.45593999997E+02  0.45594000000E+02  0.51100000000E-03 0. -1.
    9900012    2    1    2    0    0 -0.78185337559E+01  0.91740202547E+01  0.14331396138E+02  0.72461520539E+02  0.69999935184E+02 0.  0.
         12    1    1    2    0    0  0.78185337559E+01 -0.91740202547E+01 -0.14331396138E+02  0.18726479461E+02  0.00000000000E+00 0. -1.
         11    1    3    3    0    0 -0.21268445130E+02  0.92522016726E+01  0.32085333003E+02  0.39590637633E+02  0.51100000000E-03 0. -1.
        -11    1    3    3    0    0  0.42125459937E-01 -0.27107503901E+01  0.53678055915E+01  0.60135912200E+01  0.51100000000E-03 0.  1.
        -12    1    3    3    0    0  0.13407785914E+02  0.26325689722E+01 -0.23121742456E+02  0.26857291686E+02  0.00000000000E+00 0.  1.
</event>
<event>
 7    1  0.1692604E-013  0.7246158E+02  0.7816164E-02  0.1226708E+00
        -11   -1    0    0    0    0  0.00000000000E+00  0.00000000000E+00  0.45593999997E+02  0.45594000000E+02  0.51100000000E-03 0. -1.
         11   -1    0    0    0    0 -0.00000000000E+00 -0.00000000000E+00 -0.45593999997E+02  0.45594000000E+02  0.51100000000E-03 0.  1.
    9900012    2    1    2    0    0  0.80544281791E+01  0.10022485907E+02 -0.13614506997E+02  0.72461579151E+02  0.70000011537E+02 0.  0.
         12    1    1    2    0    0 -0.80544281791E+01 -0.10022485907E+02  0.13614506997E+02  0.18726420849E+02  0.00000000000E+00 0. -1.
         11    1    3    3    0    0  0.25163522429E+02  0.41068050866E+01 -0.79391926526E+01  0.26703922732E+02  0.51100000000E-03 0. -1.
        -11    1    3    3    0    0  0.92490559072E+01  0.66286100409E+01 -0.14061000184E+02  0.18088538710E+02  0.51100000000E-03 0.  1.
        -12    1    3    3    0    0 -0.26358150157E+02 -0.71292922042E+00  0.83856858391E+01  0.27669117708E+02  0.00000000000E+00 0.  1.
</event>
<event>
 7    1  0.1692604E-013  0.7246157E+02  0.7816164E-02  0.1226708E+00
        -11   -1    0    0    0    0  0.00000000000E+00  0.00000000000E+00  0.45593999997E+02  0.45594000000E+02  0.51100000000E-03 0.  1.
         11   -1    0    0    0    0 -0.00000000000E+00 -0.00000000000E+00 -0.45593999997E+02  0.45594000000E+02  0.51100000000E-03 0. -1.
    9900012    2    1    2    0    0  0.95760924661E+01 -0.12076519533E+02  0.10636503601E+02  0.72461572690E+02  0.70000003120E+02 0.  0.
         12    1    1    2    0    0 -0.95760924661E+01  0.12076519533E+02 -0.10636503601E+02  0.18726427310E+02  0.00000000000E+00 0. -1.
         11    1    3    3    0    0 -0.12702854696E+01 -0.12235740463E+02  0.48596637230E+00  0.12311097978E+02  0.51100000000E-03 0. -1.
        -11    1    3    3    0    0 -0.82674841983E+01 -0.11332515597E+02  0.28175728050E+02  0.31474574757E+02  0.51100000000E-03 0.  1.
         12    1    3    3    0    0  0.19113862134E+02  0.11491736528E+02 -0.18025190821E+02  0.28675899955E+02  0.00000000000E+00 0. -1.
</event>
<event>
 7    1  0.1692604E-013  0.7246153E+02  0.7816164E-02  0.1226708E+00
        -11   -1    0    0    0    0  0.00000000000E+00  0.00000000000E+00  0.45593999997E+02  0.45594000000E+02  0.51100000000E-03 0.  1.
         11   -1    0    0    0    0 -0.00000000000E+00 -0.00000000000E+00 -0.45593999997E+02  0.45594000000E+02  0.51100000000E-03 0. -1.
    9900012    2    1    2    0    0 -0.14006908996E+02  0.88055453307E+01  0.87720992019E+01  0.72461525356E+02  0.69999941459E+02 0.  0.
         12    1    1    2    0    0  0.14006908996E+02 -0.88055453307E+01 -0.87720992019E+01  0.18726474644E+02  0.00000000000E+00 0. -1.
         11    1    3    3    0    0 -0.10191991088E+02  0.10197051894E+02  0.11959459208E+02  0.18731930346E+02  0.51100000000E-03 0. -1.
        -11    1    3    3    0    0 -0.19812354632E+02 -0.20132961556E+02 -0.61597465944E+01  0.28910344437E+02  0.51100000000E-03 0.  1.
         12    1    3    3    0    0  0.15997436724E+02  0.18741454993E+02  0.29723865883E+01  0.24819250573E+02  0.00000000000E+00 0. -1.
</event>
<event>
 7    1  0.1692604E-013  0.7246155E+02  0.7816164E-02  0.1226708E+00
        -11   -1    0    0    0    0  0.00000000000E+00  0.00000000000E+00  0.45593999997E+02  0.45594000000E+02  0.51100000000E-03 0.  1.
         11   -1    0    0    0    0 -0.00000000000E+00 -0.00000000000E+00 -0.45593999997E+02  0.45594000000E+02  0.51100000000E-03 0. -1.
    9900012    2    1    2    0    0  0.48098631925E+01  0.39007379435E+01  0.17672845640E+02  0.72461547761E+02  0.69999970646E+02 0.  0.
         12    1    1    2    0    0 -0.48098631925E+01 -0.39007379435E+01 -0.17672845640E+02  0.18726452239E+02  0.00000000000E+00 0. -1.
         11    1    3    3    0    0  0.11907489962E+02  0.75713505998E+01  0.60205506410E+01  0.15341469857E+02  0.51100000000E-03 0. -1.
        -11    1    3    3    0    0 -0.16969114361E+01  0.72464893302E+01  0.32300688870E+02  0.33147030301E+02  0.51100000000E-03 0.  1.
         12    1    3    3    0    0 -0.54007153334E+01 -0.10917101986E+02 -0.20648393871E+02  0.23973047602E+02  0.00000000000E+00 0. -1.
</event>
<event>
 7    1  0.1692604E-013  0.7246157E+02  0.7816164E-02  0.1226708E+00
        -11   -1    0    0    0    0  0.00000000000E+00  0.00000000000E+00  0.45593999997E+02  0.45594000000E+02  0.51100000000E-03 0.  1.
         11   -1    0    0    0    0 -0.00000000000E+00 -0.00000000000E+00 -0.45593999997E+02  0.45594000000E+02  0.51100000000E-03 0. -1.
    9900012    2    1    2    0    0 -0.20929040078E+01  0.15305618988E+02  0.10584752562E+02  0.72461569304E+02  0.69999998710E+02 0.  0.
         12    1    1    2    0    0  0.20929040078E+01 -0.15305618988E+02 -0.10584752562E+02  0.18726430696E+02  0.00000000000E+00 0. -1.
         11    1    3    3    0    0 -0.29322548143E+02  0.16774040761E+02  0.59215554632E+01  0.34296429733E+02  0.51100000000E-03 0. -1.
        -11    1    3    3    0    0 -0.21287333711E+01 -0.42457674426E+01  0.71361196009E+01  0.85721788457E+01  0.51100000000E-03 0.  1.
        -12    1    3    3    0    0  0.29358377507E+02  0.27773456697E+01 -0.24729225023E+01  0.29592960725E+02  0.00000000000E+00 0.  1.
</event>
<event>
 7    1  0.1692604E-013  0.7246162E+02  0.7816164E-02  0.1226708E+00
        -11   -1    0    0    0    0  0.00000000000E+00  0.00000000000E+00  0.45593999997E+02  0.45594000000E+02  0.51100000000E-03 0.  1.
         11   -1    0    0    0    0 -0.00000000000E+00 -0.00000000000E+00 -0.45593999997E+02  0.45594000000E+02  0.51100000000E-03 0. -1.
    9900012    2    1    2    0    0  0.80437547375E+00  0.75797605941E+01  0.17104902015E+02  0.72461615845E+02  0.70000059338E+02 0.  0.
         12    1    1    2    0    0 -0.80437547375E+00 -0.75797605941E+01 -0.17104902015E+02  0.18726384155E+02  0.00000000000E+00 0. -1.
         11    1    3    3    0    0 -0.25228255495E+01 -0.13991396852E+02 -0.26811599497E+01  0.14467634691E+02  0.51100000000E-03 0. -1.
        -11    1    3    3    0    0 -0.66333690729E+01  0.23170005697E+02  0.33314572847E+02  0.41118262530E+02  0.51100000000E-03 0.  1.
         12    1    3    3    0    0  0.99605700961E+01 -0.15988482510E+01 -0.13528510883E+02  0.16875718624E+02  0.00000000000E+00 0. -1.
</event>
<event>
 7    1  0.1692604E-013  0.7246158E+02  0.7816164E-02  0.1226708E+00
        -11   -1    0    0    0    0  0.00000000000E+00  0.00000000000E+00  0.45593999997E+02  0.45594000000E+02  0.51100000000E-03 0.  1.
         11   -1    0    0    0    0 -0.00000000000E+00 -0.00000000000E+00 -0.45593999997E+02  0.45594000000E+02  0.51100000000E-03 0. -1.
    9900012    2    1    2    0    0 -0.33341653173E+01 -0.17791476002E+02 -0.47984780987E+01  0.72461583665E+02  0.70000017418E+02 0.  0.
         12    1    1    2    0    0  0.33341653173E+01  0.17791476002E+02  0.47984780987E+01  0.18726416335E+02  0.00000000000E+00 0. -1.
         11    1    3    3    0    0 -0.10229685617E+02  0.14011097519E+02 -0.22141129233E+01  0.17488842666E+02  0.51100000000E-03 0. -1.
        -11    1    3    3    0    0 -0.45576480713E+01  0.97307003078E+01 -0.49369351792E+01  0.11825058716E+02  0.51100000000E-03 0.  1.
        -12    1    3    3    0    0  0.11453168371E+02 -0.41533273829E+02  0.23525700037E+01  0.43147682282E+02  0.00000000000E+00 0.  1.
</event>
<event>
 7    1  0.1692604E-013  0.7246190E+02  0.7816164E-02  0.1226707E+00
        -11   -1    0    0    0    0  0.00000000000E+00  0.00000000000E+00  0.45593999997E+02  0.45594000000E+02  0.51100000000E-03 0.  1.
         11   -1    0    0    0    0 -0.00000000000E+00 -0.00000000000E+00 -0.45593999997E+02  0.45594000000E+02  0.51100000000E-03 0. -1.
    9900012    2    1    2    0    0 -0.72526062706E+01  0.13570602059E+02  0.10672647241E+02  0.72461896906E+02  0.70000425471E+02 0.  0.
         12    1    1    2    0    0  0.72526062706E+01 -0.13570602059E+02 -0.10672647241E+02  0.18726103094E+02  0.00000000000E+00 0. -1.
         11    1    3    3    0    0  0.14557843643E+02  0.18010462118E+02 -0.79011915829E+01  0.24469090419E+02  0.51100000000E-03 0.  1.
        -11    1    3    3    0    0 -0.12160098221E+02  0.58223953060E+01 -0.95611067276E+01  0.16528249694E+02  0.51100000000E-03 0. -1.
        -12    1    3    3    0    0 -0.96503516923E+01 -0.10262255366E+02  0.28134945552E+02  0.31464556793E+02  0.00000000000E+00 0.  1.
</event>
<event>
 7    1  0.1692604E-013  0.7246155E+02  0.7816164E-02  0.1226708E+00
        -11   -1    0    0    0    0  0.00000000000E+00  0.00000000000E+00  0.45593999997E+02  0.45594000000E+02  0.51100000000E-03 0.  1.
         11   -1    0    0    0    0 -0.00000000000E+00 -0.00000000000E+00 -0.45593999997E+02  0.45594000000E+02  0.51100000000E-03 0. -1.
    9900012    2    1    2    0    0  0.25595365957E+01  0.80364440568E+01  0.16719575728E+02  0.72461551507E+02  0.69999975526E+02 0.  0.
         12    1    1    2    0    0 -0.25595365957E+01 -0.80364440568E+01 -0.16719575728E+02  0.18726448493E+02  0.00000000000E+00 0. -1.
         11    1    3    3    0    0 -0.78026342873E+01 -0.66211272805E+01 -0.44315761165E+01  0.11151649897E+02  0.51100000000E-03 0. -1.
        -11    1    3    3    0    0  0.27566997842E+01 -0.24583453516E+01  0.36750083113E+02  0.36935233377E+02  0.51100000000E-03 0.  1.
         12    1    3    3    0    0  0.76054710987E+01  0.17115916689E+02 -0.15598931269E+02  0.24374668233E+02  0.00000000000E+00 0. -1.
</event>
<event>
 7    1  0.1692604E-013  0.7246158E+02  0.7816164E-02  0.1226708E+00
        -11   -1    0    0    0    0  0.00000000000E+00  0.00000000000E+00  0.45593999997E+02  0.45594000000E+02  0.51100000000E-03 0.  1.
         11   -1    0    0    0    0 -0.00000000000E+00 -0.00000000000E+00 -0.45593999997E+02  0.45594000000E+02  0.51100000000E-03 0. -1.
    9900012    2    1    2    0    0  0.12072505588E+02 -0.11575065697E+02  0.84232545362E+01  0.72461581388E+02  0.70000014451E+02 0.  0.
         12    1    1    2    0    0 -0.12072505588E+02  0.11575065697E+02 -0.84232545362E+01  0.18726418612E+02  0.00000000000E+00 0. -1.
         11    1    3    3    0    0 -0.14809818625E+02 -0.10354970564E+02  0.73672667966E+01  0.19514936930E+02  0.51100000000E-03 0. -1.
        -11    1    3    3    0    0  0.18422896809E+02  0.12053066340E+02  0.18997960697E+02  0.29079237369E+02  0.51100000000E-03 0.  1.
         12    1    3    3    0    0  0.84594274033E+01 -0.13273161474E+02 -0.17941972958E+02  0.23867407088E+02  0.00000000000E+00 0. -1.
</event>
<event>
 7    1  0.1692604E-013  0.7246155E+02  0.7816164E-02  0.1226708E+00
        -11   -1    0    0    0    0  0.00000000000E+00  0.00000000000E+00  0.45593999997E+02  0.45594000000E+02  0.51100000000E-03 0.  1.
         11   -1    0    0    0    0 -0.00000000000E+00 -0.00000000000E+00 -0.45593999997E+02  0.45594000000E+02  0.51100000000E-03 0. -1.
    9900012    2    1    2    0    0  0.74859280328E+01  0.86158275167E+01  0.14846152407E+02  0.72461552296E+02  0.69999976554E+02 0.  0.
         12    1    1    2    0    0 -0.74859280328E+01 -0.86158275167E+01 -0.14846152407E+02  0.18726447704E+02  0.00000000000E+00 0. -1.
         11    1    3    3    0    0 -0.33246197259E+01 -0.10182657105E+02  0.40045263539E+00  0.10719140106E+02  0.51100000000E-03 0. -1.
        -11    1    3    3    0    0 -0.11385293741E+02 -0.39492006938E+01  0.25409432535E+02  0.28122239628E+02  0.51100000000E-03 0.  1.
         12    1    3    3    0    0  0.22195841499E+02  0.22747685315E+02 -0.10963732763E+02  0.33620172563E+02  0.00000000000E+00 0. -1.
</event>
<event>
 7    1  0.1692604E-013  0.7246156E+02  0.7816164E-02  0.1226708E+00
        -11   -1    0    0    0    0  0.00000000000E+00  0.00000000000E+00  0.45593999997E+02  0.45594000000E+02  0.51100000000E-03 0.  1.
         11   -1    0    0    0    0 -0.00000000000E+00 -0.00000000000E+00 -0.45593999997E+02  0.45594000000E+02  0.51100000000E-03 0. -1.
    9900012    2    1    2    0    0 -0.92136031411E+01  0.12169047339E+02  0.10849126247E+02  0.72461555161E+02  0.69999980286E+02 0.  0.
         12    1    1    2    0    0  0.92136031411E+01 -0.12169047339E+02 -0.10849126247E+02  0.18726444839E+02  0.00000000000E+00 0. -1.
         11    1    3    3    0    0  0.85080811848E+01  0.11091847407E+02  0.90465958921E+01  0.16651048671E+02  0.51100000000E-03 0.  1.
        -11    1    3    3    0    0  0.10593192172E+02  0.95302913516E+01  0.17324829568E+02  0.22431939137E+02  0.51100000000E-03 0. -1.
         12    1    3    3    0    0 -0.28314876498E+02 -0.84530914191E+01 -0.15522299213E+02  0.33378567353E+02  0.00000000000E+00 0. -1.
</event>
<event>
 7    1  0.1692604E-013  0.7246157E+02  0.7816164E-02  0.1226708E+00
        -11   -1    0    0    0    0  0.00000000000E+00  0.00000000000E+00  0.45593999997E+02  0.45594000000E+02  0.51100000000E-03 0.  1.
         11   -1    0    0    0    0 -0.00000000000E+00 -0.00000000000E+00 -0.45593999997E+02  0.45594000000E+02  0.51100000000E-03 0. -1.
    9900012    2    1    2    0    0 -0.52051882342E+01 -0.15940907564E+02  0.83350188885E+01  0.72461573262E+02  0.70000003866E+02 0.  0.
         12    1    1    2    0    0  0.52051882342E+01  0.15940907564E+02 -0.83350188885E+01  0.18726426738E+02  0.00000000000E+00 0. -1.
         11    1    3    3    0    0 -0.11440106953E+02  0.57715602421E+01  0.80780190260E+00  0.12838983562E+02  0.51100000000E-03 0. -1.
        -11    1    3    3    0    0 -0.57144814173E+00 -0.39086303578E+02  0.11074440560E+02  0.40628917218E+02  0.51100000000E-03 0.  1.
         12    1    3    3    0    0  0.68063668603E+01  0.17373835772E+02 -0.35472235743E+01  0.18993672482E+02  0.00000000000E+00 0. -1.
</event>
<event>
 7    1  0.2632582E-013  0.7246155E+02  0.7816164E-02  0.1226708E+00
        -11   -1    0    0    0    0  0.00000000000E+00  0.00000000000E+00  0.45593999997E+02  0.45594000000E+02  0.51100000000E-03 0. -1.
         11   -1    0    0    0    0 -0.00000000000E+00 -0.00000000000E+00 -0.45593999997E+02  0.45594000000E+02  0.51100000000E-03 0.  1.
    9900012    2    1    2    0    0  0.45378562026E+01  0.13002295640E+02 -0.12689683911E+02  0.72461550561E+02  0.69999974294E+02 0.  0.
         12    1    1    2    0    0 -0.45378562026E+01 -0.13002295640E+02  0.12689683911E+02  0.18726449439E+02  0.00000000000E+00 0. -1.
         11    1    3    3    0    0 -0.47690495561E+01 -0.66511324158E+00  0.20462667462E+02  0.21021583414E+02  0.51100000000E-03 0. -1.
        -11    1    3    3    0    0  0.21077148084E+02  0.67377300907E+00 -0.13196449276E+02  0.24876623870E+02  0.51100000000E-03 0.  1.
        -12    1    3    3    0    0 -0.11770242325E+02  0.12993635872E+02 -0.19955902098E+02  0.26563343278E+02  0.00000000000E+00 0.  1.
</event>
<event>
 7    1  0.1692604E-013  0.7246141E+02  0.7816164E-02  0.1226708E+00
        -11   -1    0    0    0    0  0.00000000000E+00  0.00000000000E+00  0.45593999997E+02  0.45594000000E+02  0.51100000000E-03 0. -1.
         11   -1    0    0    0    0 -0.00000000000E+00 -0.00000000000E+00 -0.45593999997E+02  0.45594000000E+02  0.51100000000E-03 0.  1.
    9900012    2    1    2    0    0  0.70776692659E+01 -0.17331941301E+02 -0.44243977465E+00  0.72461405423E+02  0.69999785225E+02 0.  0.
         12    1    1    2    0    0 -0.70776692659E+01  0.17331941301E+02  0.44243977465E+00  0.18726594577E+02  0.00000000000E+00 0. -1.
         11    1    3    3    0    0  0.10953755155E+02 -0.75143890734E+01  0.78303429051E+01  0.15419632467E+02  0.51100000000E-03 0. -1.
        -11    1    3    3    0    0  0.24106625980E+02 -0.56626381085E+01  0.58182875949E+01  0.25437125571E+02  0.51100000000E-03 0.  1.
        -12    1    3    3    0    0 -0.27982711869E+02 -0.41549141186E+01 -0.14091070275E+02  0.31604647386E+02  0.00000000000E+00 0.  1.
</event>
<event>
 7    1  0.1692604E-013  0.7246156E+02  0.7816164E-02  0.1226708E+00
        -11   -1    0    0    0    0  0.00000000000E+00  0.00000000000E+00  0.45593999997E+02  0.45594000000E+02  0.51100000000E-03 0.  1.
         11   -1    0    0    0    0 -0.00000000000E+00 -0.00000000000E+00 -0.45593999997E+02  0.45594000000E+02  0.51100000000E-03 0. -1.
    9900012    2    1    2    0    0 -0.28739803352E+00 -0.18049900965E+02 -0.49797690130E+01  0.72461558216E+02  0.69999984266E+02 0.  0.
         12    1    1    2    0    0  0.28739803352E+00  0.18049900965E+02  0.49797690130E+01  0.18726441784E+02  0.00000000000E+00 0. -1.
         11    1    3    3    0    0 -0.11057899165E+02 -0.14199834050E+01 -0.10574320157E+01  0.11198734284E+02  0.51100000000E-03 0. -1.
        -11    1    3    3    0    0  0.84108994788E+01 -0.30911670338E+02 -0.21432679169E+02  0.38543927275E+02  0.51100000000E-03 0.  1.
         12    1    3    3    0    0  0.23596016532E+01  0.14281752778E+02  0.17510342172E+02  0.22718896658E+02  0.00000000000E+00 0. -1.
</event>
<event>
 7    1  0.1692604E-013  0.7246157E+02  0.7816164E-02  0.1226708E+00
        -11   -1    0    0    0    0  0.00000000000E+00  0.00000000000E+00  0.45593999997E+02  0.45594000000E+02  0.51100000000E-03 0. -1.
         11   -1    0    0    0    0 -0.00000000000E+00 -0.00000000000E+00 -0.45593999997E+02  0.45594000000E+02  0.51100000000E-03 0.  1.
    9900012    2    1    2    0    0  0.16008260563E+02 -0.33210607976E+01 -0.91315632389E+01  0.72461566857E+02  0.69999995522E+02 0.  0.
         12    1    1    2    0    0 -0.16008260563E+02  0.33210607976E+01  0.91315632389E+01  0.18726433143E+02  0.00000000000E+00 0. -1.
         11    1    3    3    0    0 -0.17225518969E+02  0.17027677599E+02  0.58490549236E+01  0.24917298247E+02  0.51100000000E-03 0. -1.
        -11    1    3    3    0    0  0.14012907937E+00  0.36715785698E+01  0.71537697569E+00  0.37432458951E+01  0.51100000000E-03 0.  1.
        -12    1    3    3    0    0  0.33093650453E+02 -0.24020316966E+02 -0.15695995138E+02  0.43801022715E+02  0.00000000000E+00 0.  1.
</event>
<event>
 7    1  0.1692604E-013  0.7246156E+02  0.7816164E-02  0.1226708E+00
        -11   -1    0    0    0    0  0.00000000000E+00  0.00000000000E+00  0.45593999997E+02  0.45594000000E+02  0.51100000000E-03 0. -1.
         11   -1    0    0    0    0 -0.00000000000E+00 -0.00000000000E+00 -0.45593999997E+02  0.45594000000E+02  0.51100000000E-03 0.  1.
    9900012    2    1    2    0    0 -0.18224394497E+02 -0.38092078634E+01 -0.20102487357E+01  0.72461555615E+02  0.69999980877E+02 0.  0.
         12    1    1    2    0    0  0.18224394497E+02  0.38092078634E+01  0.20102487357E+01  0.18726444385E+02  0.00000000000E+00 0. -1.
         11    1    3    3    0    0 -0.10293763666E+02 -0.34539309704E+02  0.97092372500E+01  0.37325524423E+02  0.51100000000E-03 0. -1.
        -11    1    3    3    0    0 -0.13982146399E+00  0.40582552334E+00  0.11936880200E+01  0.12685171451E+01  0.51100000000E-03 0.  1.
        -12    1    3    3    0    0 -0.77908093674E+01  0.30324276317E+02 -0.12913174006E+02  0.33867514046E+02  0.00000000000E+00 0.  1.
</event>
<event>
 7    1  0.1692604E-013  0.7246183E+02  0.7816164E-02  0.1226707E+00
        -11   -1    0    0    0    0  0.00000000000E+00  0.00000000000E+00  0.45593999997E+02  0.45594000000E+02  0.51100000000E-03 0. -1.
         11   -1    0    0    0    0 -0.00000000000E+00 -0.00000000000E+00 -0.45593999997E+02  0.45594000000E+02  0.51100000000E-03 0.  1.
    9900012    2    1    2    0    0  0.75262366307E+01 -0.37415471989E+01 -0.16733974075E+02  0.72461833771E+02  0.70000343227E+02 0.  0.
         12    1    1    2    0    0 -0.75262366307E+01  0.37415471989E+01  0.16733974075E+02  0.18726166229E+02  0.00000000000E+00 0. -1.
         11    1    3    3    0    0 -0.97195010747E+01 -0.65989948358E+01 -0.51252648914E+01  0.12817323217E+02  0.51100000000E-03 0. -1.
        -11    1    3    3    0    0 -0.12394224037E+02 -0.18026141293E+02 -0.76314804124E+01  0.23168902713E+02  0.51100000000E-03 0.  1.
         12    1    3    3    0    0  0.29639961742E+02  0.20883588930E+02 -0.39772287715E+01  0.36475607841E+02  0.00000000000E+00 0. -1.
</event>
<event>
 7    1  0.1692604E-013  0.7246154E+02  0.7816164E-02  0.1226708E+00
        -11   -1    0    0    0    0  0.00000000000E+00  0.00000000000E+00  0.45593999997E+02  0.45594000000E+02  0.51100000000E-03 0. -1.
         11   -1    0    0    0    0 -0.00000000000E+00 -0.00000000000E+00 -0.45593999997E+02  0.45594000000E+02  0.51100000000E-03 0.  1.
    9900012    2    1    2    0    0  0.56271816261E+01 -0.17543330913E+02 -0.33536180508E+01  0.72461537798E+02  0.69999957668E+02 0.  0.
         12    1    1    2    0    0 -0.56271816261E+01  0.17543330913E+02  0.33536180508E+01  0.18726462202E+02  0.00000000000E+00 0. -1.
         11    1    3    3    0    0 -0.14290394433E+02  0.44050038948E+01  0.11290255033E+01  0.14996470625E+02  0.51100000000E-03 0. -1.
        -11    1    3    3    0    0 -0.15296859815E+02  0.57650065737E+00 -0.32261022328E+01  0.15643976767E+02  0.51100000000E-03 0.  1.
         12    1    3    3    0    0  0.35214435874E+02 -0.22524835465E+02 -0.12565413213E+01  0.41821090406E+02  0.00000000000E+00 0. -1.
</event>
<event>
 7    1  0.1692604E-013  0.7246153E+02  0.7816164E-02  0.1226708E+00
        -11   -1    0    0    0    0  0.00000000000E+00  0.00000000000E+00  0.45593999997E+02  0.45594000000E+02  0.51100000000E-03 0. -1.
         11   -1    0    0    0    0 -0.00000000000E+00 -0.00000000000E+00 -0.45593999997E+02  0.45594000000E+02  0.51100000000E-03 0.  1.
    9900012    2    1    2    0    0 -0.48340958977E+01  0.82607734718E+01 -0.16095710651E+02  0.72461527752E+02  0.69999944581E+02 0.  0.
         12    1    1    2    0    0  0.48340958977E+01 -0.82607734718E+01  0.16095710651E+02  0.18726472248E+02  0.00000000000E+00 0. -1.
         11    1    3    3    0    0 -0.19364588155E+02  0.24597881933E+02 -0.12358929157E+01  0.31330025560E+02  0.51100000000E-03 0. -1.
        -11    1    3    3    0    0  0.44323801603E+00  0.66972292759E+01  0.43468371593E+01  0.79965200846E+01  0.51100000000E-03 0.  1.
        -12    1    3    3    0    0  0.14087254241E+02 -0.23034337737E+02 -0.19206654894E+02  0.33134982108E+02  0.00000000000E+00 0.  1.
</event>
<event>
 7    1  0.1692604E-013  0.7246157E+02  0.7816164E-02  0.1226708E+00
        -11   -1    0    0    0    0  0.00000000000E+00  0.00000000000E+00  0.45593999997E+02  0.45594000000E+02  0.51100000000E-03 0. -1.
         11   -1    0    0    0    0 -0.00000000000E+00 -0.00000000000E+00 -0.45593999997E+02  0.45594000000E+02  0.51100000000E-03 0.  1.
    9900012    2    1    2    0    0  0.13076609474E+02  0.13677903599E+01 -0.13334566821E+02  0.72461568463E+02  0.69999997614E+02 0.  0.
         12    1    1    2    0    0 -0.13076609474E+02 -0.13677903599E+01  0.13334566821E+02  0.18726431537E+02  0.00000000000E+00 0. -1.
         11    1    3    3    0    0 -0.29736600173E+01 -0.10764383885E+02  0.61371171514E+00  0.11184420264E+02  0.51100000000E-03 0. -1.
        -11    1    3    3    0    0  0.32353485635E+01 -0.69039545952E+00  0.21345219236E+02  0.21600058119E+02  0.51100000000E-03 0.  1.
        -12    1    3    3    0    0  0.12814920928E+02  0.12822569704E+02 -0.35293497773E+02  0.39677090080E+02  0.00000000000E+00 0.  1.
</event>
<event>
 7    1  0.1692604E-013  0.7246154E+02  0.7816164E-02  0.1226708E+00
        -11   -1    0    0    0    0  0.00000000000E+00  0.00000000000E+00  0.45593999997E+02  0.45594000000E+02  0.51100000000E-03 0. -1.
         11   -1    0    0    0    0 -0.00000000000E+00 -0.00000000000E+00 -0.45593999997E+02  0.45594000000E+02  0.51100000000E-03 0.  1.
    9900012    2    1    2    0    0 -0.15439626421E+02 -0.10537666051E+02 -0.11205665749E+01  0.72461544401E+02  0.69999966270E+02 0.  0.
         12    1    1    2    0    0  0.15439626421E+02  0.10537666051E+02  0.11205665749E+01  0.18726455599E+02  0.00000000000E+00 0. -1.
         11    1    3    3    0    0 -0.10576219345E+02  0.10556752023E+02  0.24210664337E+02  0.28450970051E+02  0.51100000000E-03 0. -1.
        -11    1    3    3    0    0  0.55148289491E+01 -0.12458363173E+01  0.41302570571E+01  0.70017476451E+01  0.51100000000E-03 0.  1.
        -12    1    3    3    0    0 -0.10378236025E+02 -0.19848581757E+02 -0.29461487969E+02  0.37008826706E+02  0.00000000000E+00 0.  1.
</event>
<event>
 7    1  0.1692604E-013  0.7246129E+02  0.7816164E-02  0.1226709E+00
        -11   -1    0    0    0    0  0.00000000000E+00  0.00000000000E+00  0.45593999997E+02  0.45594000000E+02  0.51100000000E-03 0.  1.
         11   -1    0    0    0    0 -0.00000000000E+00 -0.00000000000E+00 -0.45593999997E+02  0.45594000000E+02  0.51100000000E-03 0. -1.
    9900012    2    1    2    0    0  0.36647160887E+00 -0.18043261560E+02  0.49995938831E+01  0.72461293718E+02  0.69999639707E+02 0.  0.
         12    1    1    2    0    0 -0.36647160887E+00  0.18043261560E+02 -0.49995938831E+01  0.18726706282E+02  0.00000000000E+00 0. -1.
         11    1    3    3    0    0  0.14294078762E+02  0.17326711097E+02 -0.97371219875E+01  0.24481567555E+02  0.51100000000E-03 0. -1.
        -11    1    3    3    0    0  0.63472900874E+01 -0.10693167561E+02  0.94251176798E+01  0.15603357571E+02  0.51100000000E-03 0.  1.
        -12    1    3    3    0    0 -0.20274897240E+02 -0.24676805097E+02  0.53115981908E+01  0.32376368592E+02  0.00000000000E+00 0.  1.
</event>
<event>
 7    1  0.1692604E-013  0.7246154E+02  0.7816164E-02  0.1226708E+00
        -11   -1    0    0    0    0  0.00000000000E+00  0.00000000000E+00  0.45593999997E+02  0.45594000000E+02  0.51100000000E-03 0. -1.
         11   -1    0    0    0    0 -0.00000000000E+00 -0.00000000000E+00 -0.45593999997E+02  0.45594000000E+02  0.51100000000E-03 0.  1.
    9900012    2    1    2    0    0 -0.53742764645E+01  0.13753189531E+02 -0.11517252259E+02  0.72461543597E+02  0.69999965222E+02 0.  0.
         12    1    1    2    0    0  0.53742764645E+01 -0.13753189531E+02  0.11517252259E+02  0.18726456403E+02  0.00000000000E+00 0. -1.
         11    1    3    3    0    0  0.14808255936E+01 -0.21437953399E+02  0.63829649867E+01  0.22416978669E+02  0.51100000000E-03 0. -1.
        -11    1    3    3    0    0  0.10498632848E+02  0.96813648512E+01 -0.11954076794E+02  0.18623911226E+02  0.51100000000E-03 0.  1.
         12    1    3    3    0    0 -0.17353734907E+02  0.25509778079E+02 -0.59461404513E+01  0.31420653703E+02  0.00000000000E+00 0. -1.
</event>
<event>
 7    1  0.1692604E-013  0.7246160E+02  0.7816164E-02  0.1226708E+00
        -11   -1    0    0    0    0  0.00000000000E+00  0.00000000000E+00  0.45593999997E+02  0.45594000000E+02  0.51100000000E-03 0.  1.
         11   -1    0    0    0    0 -0.00000000000E+00 -0.00000000000E+00 -0.45593999997E+02  0.45594000000E+02  0.51100000000E-03 0. -1.
    9900012    2    1    2    0    0 -0.16632190813E+02 -0.76137720154E+01  0.40098289818E+01  0.72461600880E+02  0.70000039843E+02 0.  0.
         12    1    1    2    0    0  0.16632190813E+02  0.76137720154E+01 -0.40098289818E+01  0.18726399120E+02  0.00000000000E+00 0. -1.
         11    1    3    3    0    0  0.40497108167E+01 -0.68904306411E+01  0.94417378451E+01  0.12370311472E+02  0.51100000000E-03 0. -1.
        -11    1    3    3    0    0  0.77106795094E+01 -0.21864182695E+02 -0.81830612796E+01  0.24585759203E+02  0.51100000000E-03 0.  1.
         12    1    3    3    0    0 -0.28392581139E+02  0.21140841321E+02  0.27511524163E+01  0.35505530205E+02  0.00000000000E+00 0. -1.
</event>
<event>
 7    1  0.1692604E-013  0.7246158E+02  0.7816164E-02  0.1226708E+00
        -11   -1    0    0    0    0  0.00000000000E+00  0.00000000000E+00  0.45593999997E+02  0.45594000000E+02  0.51100000000E-03 0. -1.
         11   -1    0    0    0    0 -0.00000000000E+00 -0.00000000000E+00 -0.45593999997E+02  0.45594000000E+02  0.51100000000E-03 0.  1.
    9900012    2    1    2    0    0  0.13709059651E+02  0.11238219682E+02  0.60367935338E+01  0.72461580847E+02  0.70000013747E+02 0.  0.
         12    1    1    2    0    0 -0.13709059651E+02 -0.11238219682E+02 -0.60367935338E+01  0.18726419153E+02  0.00000000000E+00 0. -1.
         11    1    3    3    0    0  0.13479181379E+00  0.66011225779E+01  0.60862663301E+01  0.89797341956E+01  0.51100000000E-03 0. -1.
        -11    1    3    3    0    0 -0.46688923449E+01  0.25461191211E+02  0.16999332877E+02  0.30968502258E+02  0.51100000000E-03 0.  1.
         12    1    3    3    0    0  0.18243160182E+02 -0.20824094107E+02 -0.17048805673E+02  0.32513344394E+02  0.00000000000E+00 0. -1.
</event>
<event>
 7    1  0.1692604E-013  0.7246152E+02  0.7816164E-02  0.1226708E+00
        -11   -1    0    0    0    0  0.00000000000E+00  0.00000000000E+00  0.45593999997E+02  0.45594000000E+02  0.51100000000E-03 0.  1.
         11   -1    0    0    0    0 -0.00000000000E+00 -0.00000000000E+00 -0.45593999997E+02  0.45594000000E+02  0.51100000000E-03 0. -1.
    9900012    2    1    2    0    0 -0.65334120189E+01  0.14643148822E+02  0.96733450537E+01  0.72461524503E+02  0.69999940348E+02 0.  0.
         12    1    1    2    0    0  0.65334120189E+01 -0.14643148822E+02 -0.96733450537E+01  0.18726475497E+02  0.00000000000E+00 0. -1.
         11    1    3    3    0    0 -0.17189239343E+02 -0.22897659976E+01 -0.21305393424E+02  0.27470580022E+02  0.51100000000E-03 0. -1.
        -11    1    3    3    0    0 -0.37034645125E+01 -0.43369466326E+01  0.14810421954E+01  0.58922187447E+01  0.51100000000E-03 0.  1.
        -12    1    3    3    0    0  0.14359291837E+02  0.21269861452E+02  0.29497696282E+02  0.39098725736E+02  0.00000000000E+00 0.  1.
</event>
<event>
 7    1  0.1692604E-013  0.7246158E+02  0.7816164E-02  0.1226708E+00
        -11   -1    0    0    0    0  0.00000000000E+00  0.00000000000E+00  0.45593999997E+02  0.45594000000E+02  0.51100000000E-03 0. -1.
         11   -1    0    0    0    0 -0.00000000000E+00 -0.00000000000E+00 -0.45593999997E+02  0.45594000000E+02  0.51100000000E-03 0.  1.
    9900012    2    1    2    0    0 -0.31001724693E+01 -0.16786066711E+02 -0.77003645856E+01  0.72461582304E+02  0.70000015645E+02 0.  0.
         12    1    1    2    0    0  0.31001724693E+01  0.16786066711E+02  0.77003645856E+01  0.18726417696E+02  0.00000000000E+00 0. -1.
         11    1    3    3    0    0 -0.16496662710E+02  0.22937537464E-01 -0.33084522041E+01  0.16825167546E+02  0.51100000000E-03 0. -1.
        -11    1    3    3    0    0  0.80125962579E+01 -0.31418898359E+02 -0.16055613025E+02  0.36181923425E+02  0.51100000000E-03 0.  1.
         12    1    3    3    0    0  0.53838939825E+01  0.14609894110E+02  0.11663700644E+02  0.19454491333E+02  0.00000000000E+00 0. -1.
</event>
<event>
 7    1  0.1692604E-013  0.7246162E+02  0.7816164E-02  0.1226708E+00
        -11   -1    0    0    0    0  0.00000000000E+00  0.00000000000E+00  0.45593999997E+02  0.45594000000E+02  0.51100000000E-03 0. -1.
         11   -1    0    0    0    0 -0.00000000000E+00 -0.00000000000E+00 -0.45593999997E+02  0.45594000000E+02  0.51100000000E-03 0.  1.
    9900012    2    1    2    0    0 -0.94882112638E+01  0.10511780864E+02 -0.12253717803E+02  0.72461620480E+02  0.70000065376E+02 0.  0.
         12    1    1    2    0    0  0.94882112638E+01 -0.10511780864E+02  0.12253717803E+02  0.18726379520E+02  0.00000000000E+00 0. -1.
         11    1    3    3    0    0 -0.69299226216E+01  0.27601848823E+00 -0.50157780803E+01  0.85590912929E+01  0.51100000000E-03 0. -1.
        -11    1    3    3    0    0  0.98234466838E+01  0.30567472980E+02 -0.19044381607E+02  0.37330402894E+02  0.51100000000E-03 0.  1.
         12    1    3    3    0    0 -0.12381735326E+02 -0.20331710604E+02  0.11806441884E+02  0.26572126293E+02  0.00000000000E+00 0. -1.
</event>
<event>
 7    1  0.1692604E-013  0.7246155E+02  0.7816164E-02  0.1226708E+00
        -11   -1    0    0    0    0  0.00000000000E+00  0.00000000000E+00  0.45593999997E+02  0.45594000000E+02  0.51100000000E-03 0.  1.
         11   -1    0    0    0    0 -0.00000000000E+00 -0.00000000000E+00 -0.45593999997E+02  0.45594000000E+02  0.51100000000E-03 0. -1.
    9900012    2    1    2    0    0  0.11029501893E+02 -0.32821411982E+01  0.14773543695E+02  0.72461549291E+02  0.69999972639E+02 0.  0.
         12    1    1    2    0    0 -0.11029501893E+02  0.32821411982E+01 -0.14773543695E+02  0.18726450709E+02  0.00000000000E+00 0. -1.
         11    1    3    3    0    0  0.18942741814E+02 -0.15949969697E+01  0.10027060959E+01  0.19036199793E+02  0.51100000000E-03 0. -1.
        -11    1    3    3    0    0  0.58657660467E+01  0.21544236046E+02  0.14109558349E+02  0.26412893729E+02  0.51100000000E-03 0.  1.
        -12    1    3    3    0    0 -0.13779005968E+02 -0.23231380274E+02 -0.33872074994E+00  0.27012455769E+02  0.00000000000E+00 0.  1.
</event>
<event>
 7    1  0.1692604E-013  0.7246157E+02  0.7816164E-02  0.1226708E+00
        -11   -1    0    0    0    0  0.00000000000E+00  0.00000000000E+00  0.45593999997E+02  0.45594000000E+02  0.51100000000E-03 0.  1.
         11   -1    0    0    0    0 -0.00000000000E+00 -0.00000000000E+00 -0.45593999997E+02  0.45594000000E+02  0.51100000000E-03 0. -1.
    9900012    2    1    2    0    0  0.74414564784E+01 -0.11884366409E+02  0.12412320502E+02  0.72461571090E+02  0.70000001037E+02 0.  0.
         12    1    1    2    0    0 -0.74414564784E+01  0.11884366409E+02 -0.12412320502E+02  0.18726428910E+02  0.00000000000E+00 0. -1.
         11    1    3    3    0    0 -0.53820008445E+01 -0.19001354789E+02 -0.19209966262E+02  0.27550684583E+02  0.51100000000E-03 0. -1.
        -11    1    3    3    0    0  0.67719887066E+01  0.59584005196E+01 -0.31823986079E+01  0.95650420258E+01  0.51100000000E-03 0.  1.
        -12    1    3    3    0    0  0.60514686162E+01  0.11585878604E+01  0.34804685373E+02  0.35345844482E+02  0.00000000000E+00 0.  1.
</event>
<event>
 7    1  0.1692604E-013  0.7246163E+02  0.7816164E-02  0.1226708E+00
        -11   -1    0    0    0    0  0.00000000000E+00  0.00000000000E+00  0.45593999997E+02  0.45594000000E+02  0.51100000000E-03 0. -1.
         11   -1    0    0    0    0 -0.00000000000E+00 -0.00000000000E+00 -0.45593999997E+02  0.45594000000E+02  0.51100000000E-03 0.  1.
    9900012    2    1    2    0    0  0.14412329898E+02  0.11336072739E+02  0.38020056602E+01  0.72461627012E+02  0.70000073886E+02 0.  0.
         12    1    1    2    0    0 -0.14412329898E+02 -0.11336072739E+02 -0.38020056602E+01  0.18726372988E+02  0.00000000000E+00 0. -1.
         11    1    3    3    0    0 -0.15726173370E+02 -0.27756973966E+01  0.85870009111E+01  0.18131563910E+02  0.51100000000E-03 0. -1.
        -11    1    3    3    0    0 -0.17409146337E+01 -0.10936817951E+02  0.56971442507E+01  0.12454004317E+02  0.51100000000E-03 0.  1.
        -12    1    3    3    0    0  0.31879417902E+02  0.25048588086E+02 -0.10482139501E+02  0.41876058786E+02  0.00000000000E+00 0.  1.
</event>
<event>
 7    1  0.1692604E-013  0.7246162E+02  0.7816164E-02  0.1226708E+00
        -11   -1    0    0    0    0  0.00000000000E+00  0.00000000000E+00  0.45593999997E+02  0.45594000000E+02  0.51100000000E-03 0.  1.
         11   -1    0    0    0    0 -0.00000000000E+00 -0.00000000000E+00 -0.45593999997E+02  0.45594000000E+02  0.51100000000E-03 0. -1.
    9900012    2    1    2    0    0  0.12810253951E+02  0.90458740450E+01  0.10234592547E+02  0.72461619459E+02  0.70000064047E+02 0.  0.
         12    1    1    2    0    0 -0.12810253951E+02 -0.90458740450E+01 -0.10234592547E+02  0.18726380541E+02  0.00000000000E+00 0. -1.
         11    1    3    3    0    0 -0.50051213752E+01 -0.76191147940E+01 -0.81825500123E+01  0.12249745924E+02  0.51100000000E-03 0. -1.
        -11    1    3    3    0    0  0.12854394989E+02 -0.19156072052E+01 -0.16104758075E+02  0.20694643133E+02  0.51100000000E-03 0.  1.
        -12    1    3    3    0    0  0.49609803372E+01  0.18580596044E+02  0.34521900635E+02  0.39517230403E+02  0.00000000000E+00 0.  1.
</event>
<event>
 7    1  0.1692604E-013  0.7246160E+02  0.7816164E-02  0.1226708E+00
        -11   -1    0    0    0    0  0.00000000000E+00  0.00000000000E+00  0.45593999997E+02  0.45594000000E+02  0.51100000000E-03 0.  1.
         11   -1    0    0    0    0 -0.00000000000E+00 -0.00000000000E+00 -0.45593999997E+02  0.45594000000E+02  0.51100000000E-03 0. -1.
    9900012    2    1    2    0    0  0.18515804893E+02 -0.16971064601E+01  0.22277878975E+01  0.72461595111E+02  0.70000032328E+02 0.  0.
         12    1    1    2    0    0 -0.18515804893E+02  0.16971064601E+01 -0.22277878975E+01  0.18726404889E+02  0.00000000000E+00 0. -1.
         11    1    3    3    0    0  0.85200859169E+00 -0.10697437384E+01  0.64314739777E+01  0.65752663895E+01  0.51100000000E-03 0. -1.
        -11    1    3    3    0    0  0.21828475633E+02  0.16651032512E+00  0.26816389118E+02  0.34577865749E+02  0.51100000000E-03 0.  1.
         12    1    3    3    0    0 -0.41646793321E+01 -0.79387304683E+00 -0.31020075198E+02  0.31308462972E+02  0.00000000000E+00 0. -1.
</event>
<event>
 7    1  0.1692604E-013  0.7246175E+02  0.7816164E-02  0.1226708E+00
        -11   -1    0    0    0    0  0.00000000000E+00  0.00000000000E+00  0.45593999997E+02  0.45594000000E+02  0.51100000000E-03 0. -1.
         11   -1    0    0    0    0 -0.00000000000E+00 -0.00000000000E+00 -0.45593999997E+02  0.45594000000E+02  0.51100000000E-03 0.  1.
    9900012    2    1    2    0    0  0.15542361010E+02 -0.94312291750E+01  0.44899220657E+01  0.72461749183E+02  0.70000233035E+02 0.  0.
         12    1    1    2    0    0 -0.15542361010E+02  0.94312291750E+01 -0.44899220657E+01  0.18726250817E+02  0.00000000000E+00 0. -1.
         11    1    3    3    0    0  0.12323886674E+02 -0.26340786629E+02  0.25819152351E+02  0.38888865391E+02  0.51100000000E-03 0. -1.
        -11    1    3    3    0    0 -0.53422154266E+01  0.18407402239E+01  0.53198655219E+00  0.56754383257E+01  0.51100000000E-03 0.  1.
        -12    1    3    3    0    0  0.85606897624E+01  0.15068817230E+02 -0.21861216838E+02  0.27897445467E+02  0.00000000000E+00 0.  1.
</event>
<event>
 7    1  0.1692604E-013  0.7246156E+02  0.7816164E-02  0.1226708E+00
        -11   -1    0    0    0    0  0.00000000000E+00  0.00000000000E+00  0.45593999997E+02  0.45594000000E+02  0.51100000000E-03 0.  1.
         11   -1    0    0    0    0 -0.00000000000E+00 -0.00000000000E+00 -0.45593999997E+02  0.45594000000E+02  0.51100000000E-03 0. -1.
    9900012    2    1    2    0    0  0.14784172832E+02  0.10070349014E+02 -0.55403925298E+01  0.72461557600E+02  0.69999983463E+02 0.  0.
         12    1    1    2    0    0 -0.14784172832E+02 -0.10070349014E+02  0.55403925298E+01  0.18726442400E+02  0.00000000000E+00 0. -1.
         11    1    3    3    0    0 -0.16021966825E+02 -0.72892814006E+01  0.10513452959E+02  0.20502920222E+02  0.51100000000E-03 0. -1.
        -11    1    3    3    0    0  0.94542613465E+01  0.21806832366E+02  0.17103493059E+01  0.23829525603E+02  0.51100000000E-03 0.  1.
        -12    1    3    3    0    0  0.21351878310E+02 -0.44472019515E+01 -0.17764194794E+02  0.28129111775E+02  0.00000000000E+00 0.  1.
</event>
<event>
 7    1  0.1692604E-013  0.7246163E+02  0.7816164E-02  0.1226708E+00
        -11   -1    0    0    0    0  0.00000000000E+00  0.00000000000E+00  0.45593999997E+02  0.45594000000E+02  0.51100000000E-03 0. -1.
         11   -1    0    0    0    0 -0.00000000000E+00 -0.00000000000E+00 -0.45593999997E+02  0.45594000000E+02  0.51100000000E-03 0.  1.
    9900012    2    1    2    0    0 -0.79978252613E+01 -0.13247358634E+02 -0.10546046088E+02  0.72461633354E+02  0.70000082147E+02 0.  0.
         12    1    1    2    0    0  0.79978252613E+01  0.13247358634E+02  0.10546046088E+02  0.18726366646E+02  0.00000000000E+00 0. -1.
         11    1    3    3    0    0  0.45386084593E+01 -0.22697077889E+02 -0.53948134410E+01  0.23766790354E+02  0.51100000000E-03 0. -1.
        -11    1    3    3    0    0  0.91602076640E+01 -0.59332290846E+01 -0.16496155560E+02  0.19779680491E+02  0.51100000000E-03 0.  1.
         12    1    3    3    0    0 -0.21696641385E+02  0.15382948339E+02  0.11344922913E+02  0.28915162508E+02  0.00000000000E+00 0. -1.
</event>
<event>
 7    1  0.1692604E-013  0.7246133E+02  0.7816164E-02  0.1226709E+00
        -11   -1    0    0    0    0  0.00000000000E+00  0.00000000000E+00  0.45593999997E+02  0.45594000000E+02  0.51100000000E-03 0. -1.
         11   -1    0    0    0    0 -0.00000000000E+00 -0.00000000000E+00 -0.45593999997E+02  0.45594000000E+02  0.51100000000E-03 0.  1.
    9900012    2    1    2    0    0 -0.67949230096E+01  0.15915649337E+02 -0.71560726977E+01  0.72461327872E+02  0.69999684200E+02 0.  0.
         12    1    1    2    0    0  0.67949230096E+01 -0.15915649337E+02  0.71560726977E+01  0.18726672128E+02  0.00000000000E+00 0. -1.
         11    1    3    3    0    0  0.10055325832E+02  0.19168989772E+02 -0.46597566716E+01  0.22142110988E+02  0.51100000000E-03 0. -1.
        -11    1    3    3    0    0 -0.31076155281E+01  0.21060760511E+02 -0.61323143709E+01  0.22154416882E+02  0.51100000000E-03 0.  1.
        -12    1    3    3    0    0 -0.13742633313E+02 -0.24314100947E+02  0.36359983448E+01  0.28164800003E+02  0.00000000000E+00 0.  1.
</event>
<event>
 7    1  0.1692604E-013  0.7246145E+02  0.7816164E-02  0.1226708E+00
        -11   -1    0    0    0    0  0.00000000000E+00  0.00000000000E+00  0.45593999997E+02  0.45594000000E+02  0.51100000000E-03 0. -1.
         11   -1    0    0    0    0 -0.00000000000E+00 -0.00000000000E+00 -0.45593999997E+02  0.45594000000E+02  0.51100000000E-03 0.  1.
    9900012    2    1    2    0    0 -0.10083317560E+02 -0.87288604028E+00 -0.15755899108E+02  0.72461452541E+02  0.69999846604E+02 0.  0.
         12    1    1    2    0    0  0.10083317560E+02  0.87288604028E+00  0.15755899108E+02  0.18726547459E+02  0.00000000000E+00 0. -1.
         11    1    3    3    0    0  0.58290297022E+01 -0.12867459610E+02  0.34280737265E+01  0.14536189109E+02  0.51100000000E-03 0. -1.
        -11    1    3    3    0    0  0.73226224677E+01  0.20135078314E+02  0.64581159812E+01  0.22377431506E+02  0.51100000000E-03 0.  1.
         12    1    3    3    0    0 -0.23234969730E+02 -0.81405047443E+01 -0.25642088816E+02  0.35547831926E+02  0.00000000000E+00 0. -1.
</event>
<event>
 7    1  0.1692604E-013  0.7246159E+02  0.7816164E-02  0.1226708E+00
        -11   -1    0    0    0    0  0.00000000000E+00  0.00000000000E+00  0.45593999997E+02  0.45594000000E+02  0.51100000000E-03 0. -1.
         11   -1    0    0    0    0 -0.00000000000E+00 -0.00000000000E+00 -0.45593999997E+02  0.45594000000E+02  0.51100000000E-03 0.  1.
    9900012    2    1    2    0    0  0.13197963760E+02  0.12755297272E+02 -0.37141050575E+01  0.72461589978E+02  0.70000025642E+02 0.  0.
         12    1    1    2    0    0 -0.13197963760E+02 -0.12755297272E+02  0.37141050575E+01  0.18726410022E+02  0.00000000000E+00 0. -1.
         11    1    3    3    0    0  0.66057313783E+01 -0.63955929877E+00 -0.19742800054E+01  0.69240526384E+01  0.51100000000E-03 0. -1.
        -11    1    3    3    0    0  0.30623838682E+02 -0.48885896367E+01  0.10804003895E+02  0.32839675770E+02  0.51100000000E-03 0.  1.
         12    1    3    3    0    0 -0.24031606300E+02  0.18283446208E+02 -0.12543828948E+02  0.32697861570E+02  0.00000000000E+00 0. -1.
</event>
<event>
 7    1  0.1692604E-013  0.7246158E+02  0.7816164E-02  0.1226708E+00
        -11   -1    0    0    0    0  0.00000000000E+00  0.00000000000E+00  0.45593999997E+02  0.45594000000E+02  0.51100000000E-03 0. -1.
         11   -1    0    0    0    0 -0.00000000000E+00 -0.00000000000E+00 -0.45593999997E+02  0.45594000000E+02  0.51100000000E-03 0.  1.
    9900012    2    1    2    0    0  0.19008757959E+01 -0.83445236052E+01 -0.16656357584E+02  0.72461584140E+02  0.70000018037E+02 0.  0.
         12    1    1    2    0    0 -0.19008757959E+01  0.83445236052E+01  0.16656357584E+02  0.18726415860E+02  0.00000000000E+00 0. -1.
         11    1    3    3    0    0 -0.65425550634E+01  0.11632990168E+01 -0.16756180171E+01  0.68531735247E+01  0.51100000000E-03 0. -1.
        -11    1    3    3    0    0 -0.23583644101E+02  0.10754629860E+02 -0.47311656682E+01  0.26348325590E+02  0.51100000000E-03 0.  1.
         12    1    3    3    0    0  0.32027074961E+02 -0.20262452483E+02 -0.10249573899E+02  0.39260085026E+02  0.00000000000E+00 0. -1.
</event>
<event>
 7    1  0.1692604E-013  0.7246155E+02  0.7816164E-02  0.1226708E+00
        -11   -1    0    0    0    0  0.00000000000E+00  0.00000000000E+00  0.45593999997E+02  0.45594000000E+02  0.51100000000E-03 0.  1.
         11   -1    0    0    0    0 -0.00000000000E+00 -0.00000000000E+00 -0.45593999997E+02  0.45594000000E+02  0.51100000000E-03 0. -1.
    9900012    2    1    2    0    0  0.15556178087E+02  0.85286330709E+01  0.59956299962E+01  0.72461552452E+02  0.69999976757E+02 0.  0.
         12    1    1    2    0    0 -0.15556178087E+02 -0.85286330709E+01 -0.59956299962E+01  0.18726447548E+02  0.00000000000E+00 0. -1.
         11    1    3    3    0    0 -0.11795344006E+02 -0.19851038677E+02  0.15663217622E+02  0.27902155174E+02  0.51100000000E-03 0. -1.
        -11    1    3    3    0    0  0.14915955483E+01 -0.14735456766E+01  0.24703163966E+01  0.32401631905E+01  0.51100000000E-03 0.  1.
         12    1    3    3    0    0  0.25859926545E+02  0.29853217425E+02 -0.12137904023E+02  0.41319234088E+02  0.00000000000E+00 0. -1.
</event>
<event>
 7    1  0.1692604E-013  0.7246157E+02  0.7816164E-02  0.1226708E+00
        -11   -1    0    0    0    0  0.00000000000E+00  0.00000000000E+00  0.45593999997E+02  0.45594000000E+02  0.51100000000E-03 0.  1.
         11   -1    0    0    0    0 -0.00000000000E+00 -0.00000000000E+00 -0.45593999997E+02  0.45594000000E+02  0.51100000000E-03 0. -1.
    9900012    2    1    2    0    0  0.15737673562E+02 -0.17508664629E+01  0.99969605825E+01  0.72461571526E+02  0.70000001604E+02 0.  0.
         12    1    1    2    0    0 -0.15737673562E+02  0.17508664629E+01 -0.99969605825E+01  0.18726428474E+02  0.00000000000E+00 0. -1.
         11    1    3    3    0    0 -0.97007886315E+01  0.60311764106E+01 -0.21784010743E+02  0.24597225723E+02  0.51100000000E-03 0. -1.
        -11    1    3    3    0    0  0.62733238659E+01  0.39092564908E+01 -0.16704109295E+01  0.75780704386E+01  0.51100000000E-03 0.  1.
        -12    1    3    3    0    0  0.19165138328E+02 -0.11691299364E+02  0.33451382255E+02  0.40286275364E+02  0.00000000000E+00 0.  1.
</event>
<event>
 7    1  0.1692604E-013  0.7246149E+02  0.7816164E-02  0.1226708E+00
        -11   -1    0    0    0    0  0.00000000000E+00  0.00000000000E+00  0.45593999997E+02  0.45594000000E+02  0.51100000000E-03 0. -1.
         11   -1    0    0    0    0 -0.00000000000E+00 -0.00000000000E+00 -0.45593999997E+02  0.45594000000E+02  0.51100000000E-03 0.  1.
    9900012    2    1    2    0    0  0.62893759013E+01 -0.15393784455E+02  0.86114624148E+01  0.72461491143E+02  0.69999896890E+02 0.  0.
         12    1    1    2    0    0 -0.62893759013E+01  0.15393784455E+02 -0.86114624148E+01  0.18726508857E+02  0.00000000000E+00 0. -1.
         11    1    3    3    0    0  0.37630632291E+00  0.44515654486E+01  0.14247363239E+02  0.14931356299E+02  0.51100000000E-03 0. -1.
        -11    1    3    3    0    0 -0.19876581222E+02 -0.57395504676E+01  0.11332294844E+02  0.23589019211E+02  0.51100000000E-03 0.  1.
        -12    1    3    3    0    0  0.25789650801E+02 -0.14105799436E+02 -0.16968195669E+02  0.33941115633E+02  0.00000000000E+00 0.  1.
</event>
<event>
 7    1  0.1692604E-013  0.7246114E+02  0.7816164E-02  0.1226709E+00
        -11   -1    0    0    0    0  0.00000000000E+00  0.00000000000E+00  0.45593999997E+02  0.45594000000E+02  0.51100000000E-03 0.  1.
         11   -1    0    0    0    0 -0.00000000000E+00 -0.00000000000E+00 -0.45593999997E+02  0.45594000000E+02  0.51100000000E-03 0. -1.
    9900012    2    1    2    0    0 -0.30025086597E+01  0.17624942179E+02 -0.55714909064E+01  0.72461143457E+02  0.69999443962E+02 0.  0.
         12    1    1    2    0    0  0.30025086597E+01 -0.17624942179E+02  0.55714909064E+01  0.18726856543E+02  0.00000000000E+00 0. -1.
         11    1    3    3    0    0  0.61416085863E+01 -0.23973310041E+02 -0.52971637696E+01  0.25308079631E+02  0.51100000000E-03 0. -1.
        -11    1    3    3    0    0  0.46996967429E+01  0.23756011675E+01 -0.17028273146E+01  0.55344603627E+01  0.51100000000E-03 0.  1.
        -12    1    3    3    0    0 -0.13843813989E+02  0.39222651053E+02  0.14285001778E+01  0.41618603462E+02  0.00000000000E+00 0.  1.
</event>
<event>
 7    1  0.1692604E-013  0.7246152E+02  0.7816164E-02  0.1226708E+00
        -11   -1    0    0    0    0  0.00000000000E+00  0.00000000000E+00  0.45593999997E+02  0.45594000000E+02  0.51100000000E-03 0.  1.
         11   -1    0    0    0    0 -0.00000000000E+00 -0.00000000000E+00 -0.45593999997E+02  0.45594000000E+02  0.51100000000E-03 0. -1.
    9900012    2    1    2    0    0  0.15079183457E+02 -0.79339396927E+00  0.11075633507E+02  0.72461523948E+02  0.69999939626E+02 0.  0.
         12    1    1    2    0    0 -0.15079183457E+02  0.79339396927E+00 -0.11075633507E+02  0.18726476052E+02  0.00000000000E+00 0. -1.
         11    1    3    3    0    0  0.20844571308E+02 -0.25055956092E+01 -0.66000130211E+01  0.22007597199E+02  0.51100000000E-03 0. -1.
        -11    1    3    3    0    0  0.16532861591E+02  0.61012992454E+00  0.22188034406E+02  0.27677005654E+02  0.51100000000E-03 0.  1.
        -12    1    3    3    0    0 -0.22298249441E+02  0.11020717154E+01 -0.45123878777E+01  0.22776921095E+02  0.00000000000E+00 0.  1.
</event>
<event>
 7    1  0.1692604E-013  0.7246155E+02  0.7816164E-02  0.1226708E+00
        -11   -1    0    0    0    0  0.00000000000E+00  0.00000000000E+00  0.45593999997E+02  0.45594000000E+02  0.51100000000E-03 0.  1.
         11   -1    0    0    0    0 -0.00000000000E+00 -0.00000000000E+00 -0.45593999997E+02  0.45594000000E+02  0.51100000000E-03 0. -1.
    9900012    2    1    2    0    0 -0.87566035577E+00 -0.18665642145E+02 -0.12275555320E+01  0.72461551583E+02  0.69999975625E+02 0.  0.
         12    1    1    2    0    0  0.87566035577E+00  0.18665642145E+02  0.12275555320E+01  0.18726448417E+02  0.00000000000E+00 0. -1.
         11    1    3    3    0    0  0.94943230594E+01 -0.13993041908E+02  0.16546681377E+02  0.23658826198E+02  0.51100000000E-03 0. -1.
        -11    1    3    3    0    0  0.75177002637E+00 -0.21390433352E+02 -0.19090423183E+02  0.28680307787E+02  0.51100000000E-03 0.  1.
         12    1    3    3    0    0 -0.11121753442E+02  0.16717833116E+02  0.13161862734E+01  0.20122417598E+02  0.00000000000E+00 0. -1.
</event>
<event>
 7    1  0.1692604E-013  0.7246165E+02  0.7816164E-02  0.1226708E+00
        -11   -1    0    0    0    0  0.00000000000E+00  0.00000000000E+00  0.45593999997E+02  0.45594000000E+02  0.51100000000E-03 0.  1.
         11   -1    0    0    0    0 -0.00000000000E+00 -0.00000000000E+00 -0.45593999997E+02  0.45594000000E+02  0.51100000000E-03 0. -1.
    9900012    2    1    2    0    0 -0.10975907504E+02  0.85797531301E+01  0.12513736241E+02  0.72461646804E+02  0.70000099668E+02 0.  0.
         12    1    1    2    0    0  0.10975907504E+02 -0.85797531301E+01 -0.12513736241E+02  0.18726353196E+02  0.00000000000E+00 0. -1.
         11    1    3    3    0    0 -0.42173492243E+01  0.18663750441E+01 -0.10647162406E+02  0.11603079671E+02  0.51100000000E-03 0. -1.
        -11    1    3    3    0    0 -0.29968987330E+02 -0.10054130985E+01  0.20346024691E+02  0.36236884221E+02  0.51100000000E-03 0.  1.
         12    1    3    3    0    0  0.23210429050E+02  0.77187911845E+01  0.28148739554E+01  0.24621682912E+02  0.00000000000E+00 0. -1.
</event>
<event>
 7    1  0.1692604E-013  0.7246149E+02  0.7816164E-02  0.1226708E+00
        -11   -1    0    0    0    0  0.00000000000E+00  0.00000000000E+00  0.45593999997E+02  0.45594000000E+02  0.51100000000E-03 0.  1.
         11   -1    0    0    0    0 -0.00000000000E+00 -0.00000000000E+00 -0.45593999997E+02  0.45594000000E+02  0.51100000000E-03 0. -1.
    9900012    2    1    2    0    0 -0.13886594298E+02  0.11140684213E+02  0.58077401985E+01  0.72461489590E+02  0.69999894867E+02 0.  0.
         12    1    1    2    0    0  0.13886594298E+02 -0.11140684213E+02 -0.58077401985E+01  0.18726510410E+02  0.00000000000E+00 0. -1.
         11    1    3    3    0    0 -0.48155998700E+01  0.69480907780E+01  0.51615620139E+01  0.99049326223E+01  0.51100000000E-03 0. -1.
        -11    1    3    3    0    0  0.11520604364E+01  0.24836296466E+02  0.20438458271E+02  0.32185391751E+02  0.51100000000E-03 0.  1.
         12    1    3    3    0    0 -0.10223054864E+02 -0.20643703031E+02 -0.19792280086E+02  0.30371165217E+02  0.00000000000E+00 0. -1.
</event>
<event>
 7    1  0.1692604E-013  0.7246142E+02  0.7816164E-02  0.1226708E+00
        -11   -1    0    0    0    0  0.00000000000E+00  0.00000000000E+00  0.45593999997E+02  0.45594000000E+02  0.51100000000E-03 0. -1.
         11   -1    0    0    0    0 -0.00000000000E+00 -0.00000000000E+00 -0.45593999997E+02  0.45594000000E+02  0.51100000000E-03 0.  1.
    9900012    2    1    2    0    0  0.82343161088E+01 -0.33558041969E+01 -0.16480881843E+02  0.72461418627E+02  0.69999802425E+02 0.  0.
         12    1    1    2    0    0 -0.82343161088E+01  0.33558041969E+01  0.16480881843E+02  0.18726581373E+02  0.00000000000E+00 0. -1.
         11    1    3    3    0    0 -0.26888244771E+02 -0.23093571363E+01 -0.49417655807E+01  0.27435959699E+02  0.51100000000E-03 0. -1.
        -11    1    3    3    0    0 -0.41272440134E+01  0.82470810000E+00 -0.15088156072E+01  0.44711085196E+01  0.51100000000E-03 0.  1.
        -12    1    3    3    0    0  0.39249804894E+02 -0.18711551606E+01 -0.10030300656E+02  0.40554350409E+02  0.00000000000E+00 0.  1.
</event>
<event>
 7    1  0.1692604E-013  0.7246159E+02  0.7816164E-02  0.1226708E+00
        -11   -1    0    0    0    0  0.00000000000E+00  0.00000000000E+00  0.45593999997E+02  0.45594000000E+02  0.51100000000E-03 0.  1.
         11   -1    0    0    0    0 -0.00000000000E+00 -0.00000000000E+00 -0.45593999997E+02  0.45594000000E+02  0.51100000000E-03 0. -1.
    9900012    2    1    2    0    0 -0.17870787359E+02 -0.52881184611E+01  0.18300505524E+01  0.72461592904E+02  0.70000029454E+02 0.  0.
         12    1    1    2    0    0  0.17870787359E+02  0.52881184611E+01 -0.18300505524E+01  0.18726407096E+02  0.00000000000E+00 0. -1.
         11    1    3    3    0    0 -0.72884507138E+00  0.43475411195E+01 -0.13227990471E+02  0.13943172562E+02  0.51100000000E-03 0. -1.
        -11    1    3    3    0    0  0.93727142040E+01 -0.23899825399E+02  0.11737063787E+02  0.28227789362E+02  0.51100000000E-03 0.  1.
         12    1    3    3    0    0 -0.26514656492E+02  0.14264165819E+02  0.33209772363E+01  0.30290630980E+02  0.00000000000E+00 0. -1.
</event>
<event>
 7    1  0.1692604E-013  0.7246154E+02  0.7816164E-02  0.1226708E+00
        -11   -1    0    0    0    0  0.00000000000E+00  0.00000000000E+00  0.45593999997E+02  0.45594000000E+02  0.51100000000E-03 0.  1.
         11   -1    0    0    0    0 -0.00000000000E+00 -0.00000000000E+00 -0.45593999997E+02  0.45594000000E+02  0.51100000000E-03 0. -1.
    9900012    2    1    2    0    0  0.91633191597E+01  0.24478254572E+01  0.16146892962E+02  0.72461536911E+02  0.69999956512E+02 0.  0.
         12    1    1    2    0    0 -0.91633191597E+01 -0.24478254572E+01 -0.16146892962E+02  0.18726463089E+02  0.00000000000E+00 0. -1.
         11    1    3    3    0    0 -0.17101757203E+02 -0.93576172049E+00  0.22254326581E+02  0.28082036986E+02  0.51100000000E-03 0. -1.
        -11    1    3    3    0    0 -0.41925028989E+01  0.30542073905E+01  0.89936277161E+01  0.10382225344E+02  0.51100000000E-03 0.  1.
        -12    1    3    3    0    0  0.30457579261E+02  0.32937978715E+00 -0.15101061335E+02  0.33997274581E+02  0.00000000000E+00 0.  1.
</event>
<event>
 7    1  0.1692604E-013  0.7246158E+02  0.7816164E-02  0.1226708E+00
        -11   -1    0    0    0    0  0.00000000000E+00  0.00000000000E+00  0.45593999997E+02  0.45594000000E+02  0.51100000000E-03 0.  1.
         11   -1    0    0    0    0 -0.00000000000E+00 -0.00000000000E+00 -0.45593999997E+02  0.45594000000E+02  0.51100000000E-03 0. -1.
    9900012    2    1    2    0    0 -0.64790340507E+01  0.16711779704E+02 -0.54237728776E+01  0.72461580819E+02  0.70000013711E+02 0.  0.
         12    1    1    2    0    0  0.64790340507E+01 -0.16711779704E+02  0.54237728776E+01  0.18726419181E+02  0.00000000000E+00 0. -1.
         11    1    3    3    0    0  0.14711481327E+02 -0.37200634634E+01 -0.21252821436E+02  0.26114152757E+02  0.51100000000E-03 0. -1.
        -11    1    3    3    0    0 -0.58057567379E+01  0.25143493938E+02  0.34254648712E+01  0.26031440770E+02  0.51100000000E-03 0.  1.
        -12    1    3    3    0    0 -0.15384758639E+02 -0.47116507705E+01  0.12403583687E+02  0.20315987292E+02  0.00000000000E+00 0.  1.
</event>
<event>
 7    1  0.1692604E-013  0.7246157E+02  0.7816164E-02  0.1226708E+00
        -11   -1    0    0    0    0  0.00000000000E+00  0.00000000000E+00  0.45593999997E+02  0.45594000000E+02  0.51100000000E-03 0.  1.
         11   -1    0    0    0    0 -0.00000000000E+00 -0.00000000000E+00 -0.45593999997E+02  0.45594000000E+02  0.51100000000E-03 0. -1.
    9900012    2    1    2    0    0  0.25496812952E+00 -0.17402197542E+00  0.18723887959E+02  0.72461567540E+02  0.69999996411E+02 0.  0.
         12    1    1    2    0    0 -0.25496812952E+00  0.17402197542E+00 -0.18723887959E+02  0.18726432460E+02  0.00000000000E+00 0. -1.
         11    1    3    3    0    0  0.64935571160E+01 -0.83142182995E+01  0.30578034517E+01  0.10983745816E+02  0.51100000000E-03 0. -1.
        -11    1    3    3    0    0  0.57158003166E+01  0.23124319554E+01  0.36359879622E+02  0.36878971803E+02  0.51100000000E-03 0.  1.
         12    1    3    3    0    0 -0.11954389303E+02  0.58277643686E+01 -0.20693795115E+02  0.24598849921E+02  0.00000000000E+00 0. -1.
</event>
<event>
 7    1  0.1692604E-013  0.7246160E+02  0.7816164E-02  0.1226708E+00
        -11   -1    0    0    0    0  0.00000000000E+00  0.00000000000E+00  0.45593999997E+02  0.45594000000E+02  0.51100000000E-03 0. -1.
         11   -1    0    0    0    0 -0.00000000000E+00 -0.00000000000E+00 -0.45593999997E+02  0.45594000000E+02  0.51100000000E-03 0.  1.
    9900012    2    1    2    0    0 -0.14895160856E+02 -0.11207922381E+02  0.17873639170E+01  0.72461601233E+02  0.70000040303E+02 0.  0.
         12    1    1    2    0    0  0.14895160856E+02  0.11207922381E+02 -0.17873639170E+01  0.18726398767E+02  0.00000000000E+00 0. -1.
         11    1    3    3    0    0 -0.10189473717E+02 -0.18596885033E+02  0.14213669471E+02  0.25528374560E+02  0.51100000000E-03 0. -1.
        -11    1    3    3    0    0 -0.17988771793E+02 -0.12071997406E+02 -0.50674522841E+01  0.22248777605E+02  0.51100000000E-03 0.  1.
         12    1    3    3    0    0  0.13283084655E+02  0.19460960058E+02 -0.73588532702E+01  0.24684449068E+02  0.00000000000E+00 0. -1.
</event>
<event>
 7    1  0.1692604E-013  0.7246164E+02  0.7816164E-02  0.1226708E+00
        -11   -1    0    0    0    0  0.00000000000E+00  0.00000000000E+00  0.45593999997E+02  0.45594000000E+02  0.51100000000E-03 0.  1.
         11   -1    0    0    0    0 -0.00000000000E+00 -0.00000000000E+00 -0.45593999997E+02  0.45594000000E+02  0.51100000000E-03 0. -1.
    9900012    2    1    2    0    0 -0.93938119803E+01  0.16176071159E+02 -0.87620161940E+00  0.72461635939E+02  0.70000085515E+02 0.  0.
         12    1    1    2    0    0  0.93938119803E+01 -0.16176071159E+02  0.87620161940E+00  0.18726364061E+02  0.00000000000E+00 0. -1.
         11    1    3    3    0    0 -0.13600358993E+01 -0.10899626376E+02 -0.19779497646E+02  0.22624766964E+02  0.51100000000E-03 0. -1.
        -11    1    3    3    0    0  0.75180093748E+01  0.15501074073E+02 -0.60307676542E+01  0.18253052379E+02  0.51100000000E-03 0.  1.
        -12    1    3    3    0    0 -0.15551785456E+02  0.11574623461E+02  0.24934063681E+02  0.31583816596E+02  0.00000000000E+00 0.  1.
</event>
<event>
 7    1  0.1692604E-013  0.7246129E+02  0.7816164E-02  0.1226709E+00
        -11   -1    0    0    0    0  0.00000000000E+00  0.00000000000E+00  0.45593999997E+02  0.45594000000E+02  0.51100000000E-03 0.  1.
         11   -1    0    0    0    0 -0.00000000000E+00 -0.00000000000E+00 -0.45593999997E+02  0.45594000000E+02  0.51100000000E-03 0. -1.
    9900012    2    1    2    0    0 -0.77563164218E+00 -0.85526370764E+01  0.16641524726E+02  0.72461293119E+02  0.69999638927E+02 0.  0.
         12    1    1    2    0    0  0.77563164218E+00  0.85526370764E+01 -0.16641524726E+02  0.18726706881E+02  0.00000000000E+00 0. -1.
         11    1    3    3    0    0  0.16347957732E+01 -0.15690973267E+02  0.25341458720E+00  0.15777940882E+02  0.51100000000E-03 0.  1.
        -11    1    3    3    0    0 -0.11334878982E+02 -0.84991353407E+01 -0.14915264867E+02  0.20571337083E+02  0.51100000000E-03 0. -1.
         12    1    3    3    0    0  0.89244515664E+01  0.15637471531E+02  0.31303375006E+02  0.36112015153E+02  0.00000000000E+00 0. -1.
</event>
<event>
 7    1  0.1692604E-013  0.7246156E+02  0.7816164E-02  0.1226708E+00
        -11   -1    0    0    0    0  0.00000000000E+00  0.00000000000E+00  0.45593999997E+02  0.45594000000E+02  0.51100000000E-03 0. -1.
         11   -1    0    0    0    0 -0.00000000000E+00 -0.00000000000E+00 -0.45593999997E+02  0.45594000000E+02  0.51100000000E-03 0.  1.
    9900012    2    1    2    0    0  0.76590760945E+01 -0.16541327478E+02 -0.42898292079E+01  0.72461558907E+02  0.69999985166E+02 0.  0.
         12    1    1    2    0    0 -0.76590760945E+01  0.16541327478E+02  0.42898292079E+01  0.18726441093E+02  0.00000000000E+00 0. -1.
         11    1    3    3    0    0  0.16089806762E+01 -0.58031271478E+01 -0.24220955418E+01  0.64908898145E+01  0.51100000000E-03 0. -1.
        -11    1    3    3    0    0  0.17358534336E+02 -0.33919935469E+02  0.69100726380E+01  0.38725054431E+02  0.51100000000E-03 0.  1.
         12    1    3    3    0    0 -0.11308438918E+02  0.23181735139E+02 -0.87778063041E+01  0.27245614662E+02  0.00000000000E+00 0. -1.
</event>
<event>
 7    1  0.1692604E-013  0.7246147E+02  0.7816164E-02  0.1226708E+00
        -11   -1    0    0    0    0  0.00000000000E+00  0.00000000000E+00  0.45593999997E+02  0.45594000000E+02  0.51100000000E-03 0.  1.
         11   -1    0    0    0    0 -0.00000000000E+00 -0.00000000000E+00 -0.45593999997E+02  0.45594000000E+02  0.51100000000E-03 0. -1.
    9900012    2    1    2    0    0 -0.18627225897E+02 -0.91582506714E+00  0.16943366063E+01  0.72461466506E+02  0.69999864796E+02 0.  0.
         12    1    1    2    0    0  0.18627225897E+02  0.91582506714E+00 -0.16943366063E+01  0.18726533494E+02  0.00000000000E+00 0. -1.
         11    1    3    3    0    0 -0.21941156299E+02  0.27842116505E+01 -0.90400656737E+01  0.23893282778E+02  0.51100000000E-03 0. -1.
        -11    1    3    3    0    0 -0.17933423084E+02  0.26603255293E+01 -0.77304034306E+01  0.19708986095E+02  0.51100000000E-03 0.  1.
        -12    1    3    3    0    0  0.21247353486E+02 -0.63603622470E+01  0.18464805711E+02  0.28859197633E+02  0.00000000000E+00 0.  1.
</event>
<event>
 7    1  0.1692604E-013  0.7246157E+02  0.7816164E-02  0.1226708E+00
        -11   -1    0    0    0    0  0.00000000000E+00  0.00000000000E+00  0.45593999997E+02  0.45594000000E+02  0.51100000000E-03 0.  1.
         11   -1    0    0    0    0 -0.00000000000E+00 -0.00000000000E+00 -0.45593999997E+02  0.45594000000E+02  0.51100000000E-03 0. -1.
    9900012    2    1    2    0    0 -0.32049823749E+01  0.34126477183E+01  0.18131767876E+02  0.72461572610E+02  0.70000003016E+02 0.  0.
         12    1    1    2    0    0  0.32049823749E+01 -0.34126477183E+01 -0.18131767876E+02  0.18726427390E+02  0.00000000000E+00 0. -1.
         11    1    3    3    0    0  0.11040705735E+01  0.18373373288E+01 -0.71324917175E+01  0.74476317479E+01  0.51100000000E-03 0. -1.
        -11    1    3    3    0    0  0.25968258484E+02 -0.93262996644E+01  0.13817219571E+02  0.30858481347E+02  0.51100000000E-03 0.  1.
         12    1    3    3    0    0 -0.30277311433E+02  0.10901610054E+02  0.11447040023E+02  0.34155459514E+02  0.00000000000E+00 0. -1.
</event>
<event>
 7    1  0.1692604E-013  0.7246156E+02  0.7816164E-02  0.1226708E+00
        -11   -1    0    0    0    0  0.00000000000E+00  0.00000000000E+00  0.45593999997E+02  0.45594000000E+02  0.51100000000E-03 0.  1.
         11   -1    0    0    0    0 -0.00000000000E+00 -0.00000000000E+00 -0.45593999997E+02  0.45594000000E+02  0.51100000000E-03 0. -1.
    9900012    2    1    2    0    0  0.14346367016E+02 -0.68089378512E+00  0.12016562323E+02  0.72461557920E+02  0.69999983880E+02 0.  0.
         12    1    1    2    0    0 -0.14346367016E+02  0.68089378512E+00 -0.12016562323E+02  0.18726442080E+02  0.00000000000E+00 0. -1.
         11    1    3    3    0    0 -0.57786167036E+01  0.26992975171E+01 -0.15446359753E+02  0.16711332920E+02  0.51100000000E-03 0. -1.
        -11    1    3    3    0    0 -0.67825412436E+01 -0.11465193206E+02  0.23990113746E+02  0.27440464260E+02  0.51100000000E-03 0.  1.
         12    1    3    3    0    0  0.26907524964E+02  0.80850019041E+01  0.34728083295E+01  0.28309760740E+02  0.00000000000E+00 0. -1.
</event>
<event>
 7    1  0.1692604E-013  0.7246164E+02  0.7816164E-02  0.1226708E+00
        -11   -1    0    0    0    0  0.00000000000E+00  0.00000000000E+00  0.45593999997E+02  0.45594000000E+02  0.51100000000E-03 0. -1.
         11   -1    0    0    0    0 -0.00000000000E+00 -0.00000000000E+00 -0.45593999997E+02  0.45594000000E+02  0.51100000000E-03 0.  1.
    9900012    2    1    2    0    0  0.13647952131E+02  0.91760152882E+01 -0.89560427346E+01  0.72461640092E+02  0.70000090924E+02 0.  0.
         12    1    1    2    0    0 -0.13647952131E+02 -0.91760152882E+01  0.89560427346E+01  0.18726359908E+02  0.00000000000E+00 0. -1.
         11    1    3    3    0    0  0.19890511575E+02 -0.95199156403E+01  0.46032410409E+01  0.22526674696E+02  0.51100000000E-03 0. -1.
        -11    1    3    3    0    0  0.96830510570E+01 -0.73519548818E+01 -0.15075102201E+02  0.19366760828E+02  0.51100000000E-03 0.  1.
        -12    1    3    3    0    0 -0.15925610501E+02  0.26047885810E+02  0.15158184250E+01  0.30568204568E+02  0.00000000000E+00 0.  1.
</event>
<event>
 7    1  0.1692604E-013  0.7246156E+02  0.7816164E-02  0.1226708E+00
        -11   -1    0    0    0    0  0.00000000000E+00  0.00000000000E+00  0.45593999997E+02  0.45594000000E+02  0.51100000000E-03 0.  1.
         11   -1    0    0    0    0 -0.00000000000E+00 -0.00000000000E+00 -0.45593999997E+02  0.45594000000E+02  0.51100000000E-03 0. -1.
    9900012    2    1    2    0    0 -0.10684545943E+02 -0.12824877177E+02  0.84877810782E+01  0.72461563493E+02  0.69999991140E+02 0.  0.
         12    1    1    2    0    0  0.10684545943E+02  0.12824877177E+02 -0.84877810782E+01  0.18726436507E+02  0.00000000000E+00 0. -1.
         11    1    3    3    0    0  0.15181758628E+02  0.50236029195E+01  0.19413416445E+02  0.25151602725E+02  0.51100000000E-03 0. -1.
        -11    1    3    3    0    0  0.51977151712E+01  0.22529123584E+01 -0.85198368108E+01  0.10231298874E+02  0.51100000000E-03 0.  1.
        -12    1    3    3    0    0 -0.31064019742E+02 -0.20101392455E+02 -0.24057985556E+01  0.37078661894E+02  0.00000000000E+00 0.  1.
</event>
<event>
 7    1  0.1692604E-013  0.7246158E+02  0.7816164E-02  0.1226708E+00
        -11   -1    0    0    0    0  0.00000000000E+00  0.00000000000E+00  0.45593999997E+02  0.45594000000E+02  0.51100000000E-03 0. -1.
         11   -1    0    0    0    0 -0.00000000000E+00 -0.00000000000E+00 -0.45593999997E+02  0.45594000000E+02  0.51100000000E-03 0.  1.
    9900012    2    1    2    0    0 -0.70157966205E+01 -0.16109849324E+02  0.64753537978E+01  0.72461578712E+02  0.70000010965E+02 0.  0.
         12    1    1    2    0    0  0.70157966205E+01  0.16109849324E+02 -0.64753537978E+01  0.18726421288E+02  0.00000000000E+00 0. -1.
         11    1    3    3    0    0 -0.68731519239E+01 -0.30469683902E+02  0.12831333026E+02  0.33768105690E+02  0.51100000000E-03 0. -1.
        -11    1    3    3    0    0 -0.98718563303E+01 -0.83850743051E+01 -0.51094018946E+01  0.13923685090E+02  0.51100000000E-03 0.  1.
        -12    1    3    3    0    0  0.97292116338E+01  0.22744908883E+02 -0.12465773336E+01  0.24769787931E+02  0.00000000000E+00 0.  1.
</event>
<event>
 7    1  0.1692604E-013  0.7246159E+02  0.7816164E-02  0.1226708E+00
        -11   -1    0    0    0    0  0.00000000000E+00  0.00000000000E+00  0.45593999997E+02  0.45594000000E+02  0.51100000000E-03 0.  1.
         11   -1    0    0    0    0 -0.00000000000E+00 -0.00000000000E+00 -0.45593999997E+02  0.45594000000E+02  0.51100000000E-03 0. -1.
    9900012    2    1    2    0    0  0.10674390808E+02  0.15084049360E+02  0.30343459963E+01  0.72461590311E+02  0.70000026075E+02 0.  0.
         12    1    1    2    0    0 -0.10674390808E+02 -0.15084049360E+02 -0.30343459963E+01  0.18726409689E+02  0.00000000000E+00 0. -1.
         11    1    3    3    0    0 -0.28040560533E+01  0.14057747406E+02 -0.14354181960E+02  0.20286092095E+02  0.51100000000E-03 0. -1.
        -11    1    3    3    0    0 -0.92704081895E+01  0.12327835475E+02 -0.70205763459E+01  0.16947108543E+02  0.51100000000E-03 0.  1.
        -12    1    3    3    0    0  0.22748855051E+02 -0.11301533520E+02  0.24409104303E+02  0.35228389672E+02  0.00000000000E+00 0.  1.
</event>
<event>
 7    1  0.1692604E-013  0.7246237E+02  0.7816164E-02  0.1226706E+00
        -11   -1    0    0    0    0  0.00000000000E+00  0.00000000000E+00  0.45593999997E+02  0.45594000000E+02  0.51100000000E-03 0. -1.
         11   -1    0    0    0    0 -0.00000000000E+00 -0.00000000000E+00 -0.45593999997E+02  0.45594000000E+02  0.51100000000E-03 0.  1.
    9900012    2    1    2    0    0 -0.18778871700E+01 -0.13286953818E+02  0.13060613243E+02  0.72462369963E+02  0.70001041710E+02 0.  0.
         12    1    1    2    0    0  0.18778871700E+01  0.13286953818E+02 -0.13060613243E+02  0.18725630037E+02  0.00000000000E+00 0. -1.
         11    1    3    3    0    0 -0.16076981215E+02  0.23133519976E+01  0.20215763554E+02  0.25932566760E+02  0.51100000000E-03 0. -1.
        -11    1    3    3    0    0  0.44023064283E+01  0.93998870404E+01 -0.15283793159E+02  0.18475186382E+02  0.51100000000E-03 0.  1.
        -12    1    3    3    0    0  0.97967876170E+01 -0.25000192856E+02  0.81286428481E+01  0.28054616821E+02  0.00000000000E+00 0.  1.
</event>
<event>
 7    1  0.1692604E-013  0.7246186E+02  0.7816164E-02  0.1226707E+00
        -11   -1    0    0    0    0  0.00000000000E+00  0.00000000000E+00  0.45593999997E+02  0.45594000000E+02  0.51100000000E-03 0. -1.
         11   -1    0    0    0    0 -0.00000000000E+00 -0.00000000000E+00 -0.45593999997E+02  0.45594000000E+02  0.51100000000E-03 0.  1.
    9900012    2    1    2    0    0  0.85438884446E+01 -0.13484574390E+02 -0.97896128586E+01  0.72461860618E+02  0.70000378199E+02 0.  0.
         12    1    1    2    0    0 -0.85438884446E+01  0.13484574390E+02  0.97896128586E+01  0.18726139382E+02  0.00000000000E+00 0. -1.
         11    1    3    3    0    0 -0.36344110245E+01 -0.28883740488E+02  0.42265790970E+01  0.29416719382E+02  0.51100000000E-03 0. -1.
        -11    1    3    3    0    0  0.16399870617E+02 -0.69204283086E+01 -0.81933091943E+01  0.19595366800E+02  0.51100000000E-03 0.  1.
         12    1    3    3    0    0 -0.42215711477E+01  0.22319594406E+02 -0.58228827613E+01  0.23449774435E+02  0.00000000000E+00 0. -1.
</event>
<event>
 7    1  0.1692604E-013  0.7246155E+02  0.7816164E-02  0.1226708E+00
        -11   -1    0    0    0    0  0.00000000000E+00  0.00000000000E+00  0.45593999997E+02  0.45594000000E+02  0.51100000000E-03 0.  1.
         11   -1    0    0    0    0 -0.00000000000E+00 -0.00000000000E+00 -0.45593999997E+02  0.45594000000E+02  0.51100000000E-03 0. -1.
    9900012    2    1    2    0    0 -0.17665765390E+02  0.21609461184E+01  0.58250209873E+01  0.72461552807E+02  0.69999977220E+02 0.  0.
         12    1    1    2    0    0  0.17665765390E+02 -0.21609461184E+01 -0.58250209873E+01  0.18726447193E+02  0.00000000000E+00 0. -1.
         11    1    3    3    0    0 -0.22434952093E+02  0.15257962377E+02  0.13134767791E+01  0.27163536456E+02  0.51100000000E-03 0.  1.
        -11    1    3    3    0    0 -0.11185564018E+01  0.13596225892E+02 -0.73549921015E+01  0.15498530124E+02  0.51100000000E-03 0. -1.
         12    1    3    3    0    0  0.58877431041E+01 -0.26693242151E+02  0.11866536310E+02  0.29799486227E+02  0.00000000000E+00 0. -1.
</event>
<event>
 7    1  0.1692604E-013  0.7246157E+02  0.7816164E-02  0.1226708E+00
        -11   -1    0    0    0    0  0.00000000000E+00  0.00000000000E+00  0.45593999997E+02  0.45594000000E+02  0.51100000000E-03 0. -1.
         11   -1    0    0    0    0 -0.00000000000E+00 -0.00000000000E+00 -0.45593999997E+02  0.45594000000E+02  0.51100000000E-03 0.  1.
    9900012    2    1    2    0    0  0.14790875791E+01 -0.45557330938E+01 -0.18103502750E+02  0.72461569056E+02  0.69999998387E+02 0.  0.
         12    1    1    2    0    0 -0.14790875791E+01  0.45557330938E+01  0.18103502750E+02  0.18726430944E+02  0.00000000000E+00 0. -1.
         11    1    3    3    0    0 -0.14474269203E+02 -0.16487928070E+02 -0.91274532621E+01  0.23762715424E+02  0.51100000000E-03 0. -1.
        -11    1    3    3    0    0 -0.46424151791E+01 -0.13986779833E+02 -0.20877371912E+01  0.14884242528E+02  0.51100000000E-03 0.  1.
        -12    1    3    3    0    0  0.20595771961E+02  0.25918974809E+02 -0.68883122964E+01  0.33814611104E+02  0.00000000000E+00 0.  1.
</event>
<event>
 7    1  0.1692604E-013  0.7246160E+02  0.7816164E-02  0.1226708E+00
        -11   -1    0    0    0    0  0.00000000000E+00  0.00000000000E+00  0.45593999997E+02  0.45594000000E+02  0.51100000000E-03 0.  1.
         11   -1    0    0    0    0 -0.00000000000E+00 -0.00000000000E+00 -0.45593999997E+02  0.45594000000E+02  0.51100000000E-03 0. -1.
    9900012    2    1    2    0    0 -0.27290225706E+01  0.18239083171E+02  0.32505825193E+01  0.72461601366E+02  0.70000040476E+02 0.  0.
         12    1    1    2    0    0  0.27290225706E+01 -0.18239083171E+02 -0.32505825193E+01  0.18726398634E+02  0.00000000000E+00 0. -1.
         11    1    3    3    0    0  0.90151080615E+01 -0.12423151997E+01  0.16514491611E+02  0.18855873192E+02  0.51100000000E-03 0. -1.
        -11    1    3    3    0    0 -0.26724648221E+01  0.12117632244E+02  0.17067518400E+02  0.21101641264E+02  0.51100000000E-03 0.  1.
         12    1    3    3    0    0 -0.90716658100E+01  0.73637661269E+01 -0.30331427492E+02  0.32504086910E+02  0.00000000000E+00 0. -1.
</event>
<event>
 7    1  0.1692604E-013  0.7246156E+02  0.7816164E-02  0.1226708E+00
        -11   -1    0    0    0    0  0.00000000000E+00  0.00000000000E+00  0.45593999997E+02  0.45594000000E+02  0.51100000000E-03 0. -1.
         11   -1    0    0    0    0 -0.00000000000E+00 -0.00000000000E+00 -0.45593999997E+02  0.45594000000E+02  0.51100000000E-03 0.  1.
    9900012    2    1    2    0    0 -0.99758182129E+01  0.38626896360E+01 -0.15370173336E+02  0.72461560172E+02  0.69999986814E+02 0.  0.
         12    1    1    2    0    0  0.99758182129E+01 -0.38626896360E+01  0.15370173336E+02  0.18726439828E+02  0.00000000000E+00 0. -1.
         11    1    3    3    0    0  0.71215817892E+01  0.56793800583E+01  0.42005795857E+00  0.91185927630E+01  0.51100000000E-03 0. -1.
        -11    1    3    3    0    0 -0.46571352677E+01 -0.29163040414E+02 -0.15379455663E+02  0.33297139394E+02  0.51100000000E-03 0.  1.
         12    1    3    3    0    0 -0.12440264734E+02  0.27346349991E+02 -0.41077563135E+00  0.30045828015E+02  0.00000000000E+00 0. -1.
</event>
<event>
 7    1  0.1692604E-013  0.7246153E+02  0.7816164E-02  0.1226708E+00
        -11   -1    0    0    0    0  0.00000000000E+00  0.00000000000E+00  0.45593999997E+02  0.45594000000E+02  0.51100000000E-03 0. -1.
         11   -1    0    0    0    0 -0.00000000000E+00 -0.00000000000E+00 -0.45593999997E+02  0.45594000000E+02  0.51100000000E-03 0.  1.
    9900012    2    1    2    0    0 -0.11391176304E+01  0.39479756253E+01 -0.18270100232E+02  0.72461530418E+02  0.69999948054E+02 0.  0.
         12    1    1    2    0    0  0.11391176304E+01 -0.39479756253E+01  0.18270100232E+02  0.18726469582E+02  0.00000000000E+00 0. -1.
         11    1    3    3    0    0  0.42606873932E+01  0.13317472465E+02  0.94187855038E+01  0.16858886397E+02  0.51100000000E-03 0. -1.
        -11    1    3    3    0    0  0.77899663555E+01  0.14430213498E+02 -0.22596787998E+02  0.27920054898E+02  0.51100000000E-03 0.  1.
         12    1    3    3    0    0 -0.13189771379E+02 -0.23799710338E+02 -0.50920977373E+01  0.27682589123E+02  0.00000000000E+00 0. -1.
</event>
<event>
 7    1  0.1692604E-013  0.7246162E+02  0.7816164E-02  0.1226708E+00
        -11   -1    0    0    0    0  0.00000000000E+00  0.00000000000E+00  0.45593999997E+02  0.45594000000E+02  0.51100000000E-03 0.  1.
         11   -1    0    0    0    0 -0.00000000000E+00 -0.00000000000E+00 -0.45593999997E+02  0.45594000000E+02  0.51100000000E-03 0. -1.
    9900012    2    1    2    0    0 -0.10029322805E+02 -0.14527504467E+02  0.62483329300E+01  0.72461618439E+02  0.70000062717E+02 0.  0.
         12    1    1    2    0    0  0.10029322805E+02  0.14527504467E+02 -0.62483329300E+01  0.18726381561E+02  0.00000000000E+00 0. -1.
         11    1    3    3    0    0 -0.30980319113E+00 -0.70275660135E+01  0.34089539282E+02  0.34807748431E+02  0.51100000000E-03 0. -1.
        -11    1    3    3    0    0  0.27131362283E+01 -0.18186690453E+01  0.26712389856E+01  0.42195003577E+01  0.51100000000E-03 0.  1.
        -12    1    3    3    0    0 -0.12432655842E+02 -0.56812694087E+01 -0.30512445338E+02  0.33434369650E+02  0.00000000000E+00 0.  1.
</event>
<event>
 7    1  0.1692604E-013  0.7246157E+02  0.7816164E-02  0.1226708E+00
        -11   -1    0    0    0    0  0.00000000000E+00  0.00000000000E+00  0.45593999997E+02  0.45594000000E+02  0.51100000000E-03 0. -1.
         11   -1    0    0    0    0 -0.00000000000E+00 -0.00000000000E+00 -0.45593999997E+02  0.45594000000E+02  0.51100000000E-03 0.  1.
    9900012    2    1    2    0    0  0.72618102677E+00  0.27435303312E-01 -0.18712328250E+02  0.72461566273E+02  0.69999994762E+02 0.  0.
         12    1    1    2    0    0 -0.72618102677E+00 -0.27435303312E-01  0.18712328250E+02  0.18726433727E+02  0.00000000000E+00 0. -1.
         11    1    3    3    0    0 -0.13715314331E+02  0.20685579934E+02 -0.23035757777E+02  0.33862209040E+02  0.51100000000E-03 0. -1.
        -11    1    3    3    0    0 -0.21937853915E+01  0.22556399578E+01  0.93284311741E+01  0.98448074839E+01  0.51100000000E-03 0.  1.
        -12    1    3    3    0    0  0.16635280750E+02 -0.22913784589E+02 -0.50050016474E+01  0.28754549749E+02  0.00000000000E+00 0.  1.
</event>
<event>
 7    1  0.1692604E-013  0.7246157E+02  0.7816164E-02  0.1226708E+00
        -11   -1    0    0    0    0  0.00000000000E+00  0.00000000000E+00  0.45593999997E+02  0.45594000000E+02  0.51100000000E-03 0. -1.
         11   -1    0    0    0    0 -0.00000000000E+00 -0.00000000000E+00 -0.45593999997E+02  0.45594000000E+02  0.51100000000E-03 0.  1.
    9900012    2    1    2    0    0  0.64230609587E+01  0.12861125911E+02 -0.12000617197E+02  0.72461572554E+02  0.70000002943E+02 0.  0.
         12    1    1    2    0    0 -0.64230609587E+01 -0.12861125911E+02  0.12000617197E+02  0.18726427446E+02  0.00000000000E+00 0. -1.
         11    1    3    3    0    0 -0.10336004550E+02  0.20277061801E+02 -0.12192148288E+02  0.25819386234E+02  0.51100000000E-03 0. -1.
        -11    1    3    3    0    0  0.12876110259E+02  0.13276924544E+02 -0.12252609242E+02  0.22185521726E+02  0.51100000000E-03 0.  1.
         12    1    3    3    0    0  0.38829552496E+01 -0.20692860434E+02  0.12444140333E+02  0.24456664594E+02  0.00000000000E+00 0. -1.
</event>
<event>
 7    1  0.1692604E-013  0.7246154E+02  0.7816164E-02  0.1226708E+00
        -11   -1    0    0    0    0  0.00000000000E+00  0.00000000000E+00  0.45593999997E+02  0.45594000000E+02  0.51100000000E-03 0. -1.
         11   -1    0    0    0    0 -0.00000000000E+00 -0.00000000000E+00 -0.45593999997E+02  0.45594000000E+02  0.51100000000E-03 0.  1.
    9900012    2    1    2    0    0 -0.82069300090E+01  0.72549425959E+01 -0.15188559319E+02  0.72461542075E+02  0.69999963239E+02 0.  0.
         12    1    1    2    0    0  0.82069300090E+01 -0.72549425959E+01  0.15188559319E+02  0.18726457925E+02  0.00000000000E+00 0. -1.
         11    1    3    3    0    0 -0.14001504962E+02  0.27384703313E+02 -0.14278956162E+01  0.30789657401E+02  0.51100000000E-03 0. -1.
        -11    1    3    3    0    0  0.13618076267E+02  0.33061009515E+01 -0.15115077110E+01  0.14094926766E+02  0.51100000000E-03 0.  1.
        -12    1    3    3    0    0 -0.78235013137E+01 -0.23435861669E+02 -0.12249155991E+02  0.27576957908E+02  0.00000000000E+00 0.  1.
</event>
<event>
 7    1  0.1692604E-013  0.7246177E+02  0.7816164E-02  0.1226707E+00
        -11   -1    0    0    0    0  0.00000000000E+00  0.00000000000E+00  0.45593999997E+02  0.45594000000E+02  0.51100000000E-03 0. -1.
         11   -1    0    0    0    0 -0.00000000000E+00 -0.00000000000E+00 -0.45593999997E+02  0.45594000000E+02  0.51100000000E-03 0.  1.
    9900012    2    1    2    0    0 -0.17117812450E+02 -0.48128905018E+01 -0.58726838464E+01  0.72461766166E+02  0.70000255159E+02 0.  0.
         12    1    1    2    0    0  0.17117812450E+02  0.48128905018E+01  0.58726838464E+01  0.18726233834E+02  0.00000000000E+00 0. -1.
         11    1    3    3    0    0 -0.62747726394E+01  0.54032812571E+01  0.65748612446E+01  0.10573411023E+02  0.51100000000E-03 0. -1.
        -11    1    3    3    0    0 -0.14276680328E+02 -0.26061903369E+02 -0.26963850634E+02  0.40125997180E+02  0.51100000000E-03 0.  1.
         12    1    3    3    0    0  0.34336405176E+01  0.15845731611E+02  0.14516305543E+02  0.21762357963E+02  0.00000000000E+00 0. -1.
</event>
<event>
 7    1  0.1692604E-013  0.7246162E+02  0.7816164E-02  0.1226708E+00
        -11   -1    0    0    0    0  0.00000000000E+00  0.00000000000E+00  0.45593999997E+02  0.45594000000E+02  0.51100000000E-03 0. -1.
         11   -1    0    0    0    0 -0.00000000000E+00 -0.00000000000E+00 -0.45593999997E+02  0.45594000000E+02  0.51100000000E-03 0.  1.
    9900012    2    1    2    0    0  0.73417419350E+01 -0.57833161158E+01 -0.16227424667E+02  0.72461622047E+02  0.70000067417E+02 0.  0.
         12    1    1    2    0    0 -0.73417419350E+01  0.57833161158E+01  0.16227424667E+02  0.18726377953E+02  0.00000000000E+00 0. -1.
         11    1    3    3    0    0 -0.15447837911E+02 -0.16023311793E+02 -0.42333501110E+01  0.22656201588E+02  0.51100000000E-03 0. -1.
        -11    1    3    3    0    0  0.66734747532E+01 -0.16003534211E+02 -0.21421374740E+01  0.17471036768E+02  0.51100000000E-03 0.  1.
         12    1    3    3    0    0  0.16116105093E+02  0.26243529889E+02 -0.98519370816E+01  0.32334383691E+02  0.00000000000E+00 0. -1.
</event>
<event>
 7    1  0.1692604E-013  0.7246169E+02  0.7816164E-02  0.1226708E+00
        -11   -1    0    0    0    0  0.00000000000E+00  0.00000000000E+00  0.45593999997E+02  0.45594000000E+02  0.51100000000E-03 0.  1.
         11   -1    0    0    0    0 -0.00000000000E+00 -0.00000000000E+00 -0.45593999997E+02  0.45594000000E+02  0.51100000000E-03 0. -1.
    9900012    2    1    2    0    0  0.57730565127E+01  0.17156660748E+02  0.47953773886E+01  0.72461686059E+02  0.70000150805E+02 0.  0.
         12    1    1    2    0    0 -0.57730565127E+01 -0.17156660748E+02 -0.47953773886E+01  0.18726313941E+02  0.00000000000E+00 0. -1.
         11    1    3    3    0    0 -0.20173038808E+02  0.65935673197E+00  0.11329318902E+01  0.20215582628E+02  0.51100000000E-03 0. -1.
        -11    1    3    3    0    0 -0.33428440984E+01  0.97306171933E+01 -0.14005072495E+02  0.17378192469E+02  0.51100000000E-03 0.  1.
        -12    1    3    3    0    0  0.29288939419E+02  0.67666868225E+01  0.17667517994E+02  0.34867910963E+02  0.00000000000E+00 0.  1.
</event>
<event>
 7    1  0.1692604E-013  0.7246158E+02  0.7816164E-02  0.1226708E+00
        -11   -1    0    0    0    0  0.00000000000E+00  0.00000000000E+00  0.45593999997E+02  0.45594000000E+02  0.51100000000E-03 0. -1.
         11   -1    0    0    0    0 -0.00000000000E+00 -0.00000000000E+00 -0.45593999997E+02  0.45594000000E+02  0.51100000000E-03 0.  1.
    9900012    2    1    2    0    0  0.16095158800E+02  0.67545303588E+01 -0.67823895143E+01  0.72461584842E+02  0.70000018951E+02 0.  0.
         12    1    1    2    0    0 -0.16095158800E+02 -0.67545303588E+01  0.67823895143E+01  0.18726415158E+02  0.00000000000E+00 0. -1.
         11    1    3    3    0    0  0.26365153880E+01  0.10775346368E+01  0.61643042254E+01  0.67905037463E+01  0.51100000000E-03 0. -1.
        -11    1    3    3    0    0 -0.22386801293E+01  0.32514959816E+02 -0.17991795202E+01  0.32641558599E+02  0.51100000000E-03 0.  1.
        -12    1    3    3    0    0  0.15697323541E+02 -0.26837964094E+02 -0.11147514219E+02  0.33029522496E+02  0.00000000000E+00 0.  1.
</event>
<event>
 7    1  0.1692604E-013  0.7246157E+02  0.7816164E-02  0.1226708E+00
        -11   -1    0    0    0    0  0.00000000000E+00  0.00000000000E+00  0.45593999997E+02  0.45594000000E+02  0.51100000000E-03 0.  1.
         11   -1    0    0    0    0 -0.00000000000E+00 -0.00000000000E+00 -0.45593999997E+02  0.45594000000E+02  0.51100000000E-03 0. -1.
    9900012    2    1    2    0    0  0.43906988951E+01  0.12898440504E+02  0.12846446504E+02  0.72461569694E+02  0.69999999218E+02 0.  0.
         12    1    1    2    0    0 -0.43906988951E+01 -0.12898440504E+02 -0.12846446504E+02  0.18726430306E+02  0.00000000000E+00 0. -1.
         11    1    3    3    0    0 -0.47692975566E+01  0.44885420269E+01  0.30655671228E+01  0.72312454499E+01  0.51100000000E-03 0. -1.
        -11    1    3    3    0    0  0.24850586666E+02  0.29266151301E+02  0.58210429111E+01  0.38832252194E+02  0.51100000000E-03 0.  1.
         12    1    3    3    0    0 -0.15690590215E+02 -0.20856252823E+02  0.39598364699E+01  0.26398072050E+02  0.00000000000E+00 0. -1.
</event>
<event>
 7    1  0.1692604E-013  0.7246150E+02  0.7816164E-02  0.1226708E+00
        -11   -1    0    0    0    0  0.00000000000E+00  0.00000000000E+00  0.45593999997E+02  0.45594000000E+02  0.51100000000E-03 0.  1.
         11   -1    0    0    0    0 -0.00000000000E+00 -0.00000000000E+00 -0.45593999997E+02  0.45594000000E+02  0.51100000000E-03 0. -1.
    9900012    2    1    2    0    0 -0.53114956041E+01 -0.12122697537E+02  0.13248018058E+02  0.72461501032E+02  0.69999909773E+02 0.  0.
         12    1    1    2    0    0  0.53114956041E+01  0.12122697537E+02 -0.13248018058E+02  0.18726498968E+02  0.00000000000E+00 0. -1.
         11    1    3    3    0    0  0.39099335940E+01  0.52237017287E+01  0.67101438392E+01  0.93595230148E+01  0.51100000000E-03 0. -1.
        -11    1    3    3    0    0  0.13083648563E+02  0.54083792405E+01  0.23174337190E+02  0.27156625899E+02  0.51100000000E-03 0.  1.
         12    1    3    3    0    0 -0.22305077761E+02 -0.22754778506E+02 -0.16636462971E+02  0.35945352119E+02  0.00000000000E+00 0. -1.
</event>
<event>
 7    1  0.1692604E-013  0.7246154E+02  0.7816164E-02  0.1226708E+00
        -11   -1    0    0    0    0  0.00000000000E+00  0.00000000000E+00  0.45593999997E+02  0.45594000000E+02  0.51100000000E-03 0.  1.
         11   -1    0    0    0    0 -0.00000000000E+00 -0.00000000000E+00 -0.45593999997E+02  0.45594000000E+02  0.51100000000E-03 0. -1.
    9900012    2    1    2    0    0  0.11297029143E+02 -0.52369932503E+01  0.13986825483E+02  0.72461541369E+02  0.69999962320E+02 0.  0.
         12    1    1    2    0    0 -0.11297029143E+02  0.52369932503E+01 -0.13986825483E+02  0.18726458631E+02  0.00000000000E+00 0. -1.
         11    1    3    3    0    0 -0.62367755457E+01 -0.18656608523E+02 -0.72878999098E-01  0.19671596844E+02  0.51100000000E-03 0. -1.
        -11    1    3    3    0    0 -0.89610027295E+01  0.32826073864E+01  0.21448367740E+02  0.23475680185E+02  0.51100000000E-03 0.  1.
        -12    1    3    3    0    0  0.26494807418E+02  0.10137007887E+02 -0.73886632587E+01  0.29314264340E+02  0.00000000000E+00 0.  1.
</event>
<event>
 7    1  0.1692604E-013  0.7246155E+02  0.7816164E-02  0.1226708E+00
        -11   -1    0    0    0    0  0.00000000000E+00  0.00000000000E+00  0.45593999997E+02  0.45594000000E+02  0.51100000000E-03 0. -1.
         11   -1    0    0    0    0 -0.00000000000E+00 -0.00000000000E+00 -0.45593999997E+02  0.45594000000E+02  0.51100000000E-03 0.  1.
    9900012    2    1    2    0    0 -0.69298872844E+01  0.21591548844E+01 -0.17262517002E+02  0.72461553972E+02  0.69999978738E+02 0.  0.
         12    1    1    2    0    0  0.69298872844E+01 -0.21591548844E+01  0.17262517002E+02  0.18726446028E+02  0.00000000000E+00 0. -1.
         11    1    3    3    0    0 -0.74870312070E+01  0.13329037575E+02  0.25777789412E+01  0.15503671291E+02  0.51100000000E-03 0. -1.
        -11    1    3    3    0    0  0.13518042020E+02 -0.22560669137E+02  0.49413737457E+01  0.26760762820E+02  0.51100000000E-03 0.  1.
         12    1    3    3    0    0 -0.12960898098E+02  0.11390786446E+02 -0.24781669689E+02  0.30197119861E+02  0.00000000000E+00 0. -1.
</event>
<event>
 7    1  0.1692604E-013  0.7246159E+02  0.7816164E-02  0.1226708E+00
        -11   -1    0    0    0    0  0.00000000000E+00  0.00000000000E+00  0.45593999997E+02  0.45594000000E+02  0.51100000000E-03 0.  1.
         11   -1    0    0    0    0 -0.00000000000E+00 -0.00000000000E+00 -0.45593999997E+02  0.45594000000E+02  0.51100000000E-03 0. -1.
    9900012    2    1    2    0    0 -0.96438117369E+01 -0.10374916199E+02 -0.12248933738E+02  0.72461591677E+02  0.70000027855E+02 0.  0.
         12    1    1    2    0    0  0.96438117369E+01  0.10374916199E+02  0.12248933738E+02  0.18726408323E+02  0.00000000000E+00 0. -1.
         11    1    3    3    0    0  0.21447406821E+02 -0.13475604495E+02 -0.29552876239E+01  0.25501311752E+02  0.51100000000E-03 0. -1.
        -11    1    3    3    0    0  0.13417401487E+01  0.60825518586E+01 -0.12767429310E+02  0.14205807094E+02  0.51100000000E-03 0.  1.
        -12    1    3    3    0    0 -0.32432958707E+02 -0.29818635630E+01  0.34737831961E+01  0.32754472832E+02  0.00000000000E+00 0.  1.
</event>
<event>
 7    1  0.1692604E-013  0.7246159E+02  0.7816164E-02  0.1226708E+00
        -11   -1    0    0    0    0  0.00000000000E+00  0.00000000000E+00  0.45593999997E+02  0.45594000000E+02  0.51100000000E-03 0.  1.
         11   -1    0    0    0    0 -0.00000000000E+00 -0.00000000000E+00 -0.45593999997E+02  0.45594000000E+02  0.51100000000E-03 0. -1.
    9900012    2    1    2    0    0  0.10143008971E+02  0.93008754662E-01  0.15741320344E+02  0.72461589565E+02  0.70000025104E+02 0.  0.
         12    1    1    2    0    0 -0.10143008971E+02 -0.93008754662E-01 -0.15741320344E+02  0.18726410435E+02  0.00000000000E+00 0. -1.
         11    1    3    3    0    0 -0.82049731810E+00 -0.35813043415E+01  0.37077770906E+02  0.37259361941E+02  0.51100000000E-03 0. -1.
        -11    1    3    3    0    0 -0.29342785918E+01  0.67618500837E+01  0.22023284360E+01  0.76930395950E+01  0.51100000000E-03 0.  1.
         12    1    3    3    0    0  0.13897784881E+02 -0.30875369875E+01 -0.23538778999E+02  0.27509188029E+02  0.00000000000E+00 0. -1.
</event>
<event>
 7    1  0.1692604E-013  0.7246149E+02  0.7816164E-02  0.1226708E+00
        -11   -1    0    0    0    0  0.00000000000E+00  0.00000000000E+00  0.45593999997E+02  0.45594000000E+02  0.51100000000E-03 0. -1.
         11   -1    0    0    0    0 -0.00000000000E+00 -0.00000000000E+00 -0.45593999997E+02  0.45594000000E+02  0.51100000000E-03 0.  1.
    9900012    2    1    2    0    0 -0.18059491554E+02 -0.39986152403E+01  0.29237071028E+01  0.72461488786E+02  0.69999893820E+02 0.  0.
         12    1    1    2    0    0  0.18059491554E+02  0.39986152403E+01 -0.29237071028E+01  0.18726511214E+02  0.00000000000E+00 0. -1.
         11    1    3    3    0    0  0.69875401755E+01  0.15953366382E+01  0.31585997305E+01  0.78324689091E+01  0.51100000000E-03 0. -1.
        -11    1    3    3    0    0  0.50535581502E+01 -0.18847947170E+02 -0.18601138203E+02  0.26958967065E+02  0.51100000000E-03 0.  1.
        -12    1    3    3    0    0 -0.30100589880E+02  0.13253995292E+02  0.18366245575E+02  0.37670052812E+02  0.00000000000E+00 0.  1.
</event>
<event>
 7    1  0.1692604E-013  0.7246165E+02  0.7816164E-02  0.1226708E+00
        -11   -1    0    0    0    0  0.00000000000E+00  0.00000000000E+00  0.45593999997E+02  0.45594000000E+02  0.51100000000E-03 0. -1.
         11   -1    0    0    0    0 -0.00000000000E+00 -0.00000000000E+00 -0.45593999997E+02  0.45594000000E+02  0.51100000000E-03 0.  1.
    9900012    2    1    2    0    0  0.14076255349E+02 -0.81733216324E+01 -0.92591571940E+01  0.72461651101E+02  0.70000105266E+02 0.  0.
         12    1    1    2    0    0 -0.14076255349E+02  0.81733216324E+01  0.92591571940E+01  0.18726348899E+02  0.00000000000E+00 0. -1.
         11    1    3    3    0    0  0.27969116021E+02  0.33595018895E+01  0.23879229163E+01  0.28271184625E+02  0.51100000000E-03 0. -1.
        -11    1    3    3    0    0  0.20744286568E+01  0.12785252169E+02 -0.70220846805E+01  0.14733485698E+02  0.51100000000E-03 0.  1.
        -12    1    3    3    0    0 -0.15967289330E+02 -0.24318075691E+02 -0.46249954297E+01  0.29456980778E+02  0.00000000000E+00 0.  1.
</event>
<event>
 7    1  0.1692604E-013  0.7246171E+02  0.7816164E-02  0.1226708E+00
        -11   -1    0    0    0    0  0.00000000000E+00  0.00000000000E+00  0.45593999997E+02  0.45594000000E+02  0.51100000000E-03 0. -1.
         11   -1    0    0    0    0 -0.00000000000E+00 -0.00000000000E+00 -0.45593999997E+02  0.45594000000E+02  0.51100000000E-03 0.  1.
    9900012    2    1    2    0    0  0.17184227382E+02  0.56571834941E+01  0.48345270815E+01  0.72461707043E+02  0.70000178140E+02 0.  0.
         12    1    1    2    0    0 -0.17184227382E+02 -0.56571834941E+01 -0.48345270815E+01  0.18726292957E+02  0.00000000000E+00 0. -1.
         11    1    3    3    0    0 -0.15028511960E+02  0.49842507980E+01 -0.97489723465E+01  0.18594122454E+02  0.51100000000E-03 0. -1.
        -11    1    3    3    0    0 -0.52686564499E+01 -0.10146891511E+02 -0.17650847644E+01  0.11568650423E+02  0.51100000000E-03 0.  1.
        -12    1    3    3    0    0  0.37481395793E+02  0.10819824207E+02  0.16348584192E+02  0.42298934166E+02  0.00000000000E+00 0.  1.
</event>
<event>
 7    1  0.1692604E-013  0.7246153E+02  0.7816164E-02  0.1226708E+00
        -11   -1    0    0    0    0  0.00000000000E+00  0.00000000000E+00  0.45593999997E+02  0.45594000000E+02  0.51100000000E-03 0. -1.
         11   -1    0    0    0    0 -0.00000000000E+00 -0.00000000000E+00 -0.45593999997E+02  0.45594000000E+02  0.51100000000E-03 0.  1.
    9900012    2    1    2    0    0 -0.10086249151E+02  0.72071487822E+01 -0.14035851240E+02  0.72461533822E+02  0.69999952488E+02 0.  0.
         12    1    1    2    0    0  0.10086249151E+02 -0.72071487822E+01  0.14035851240E+02  0.18726466178E+02  0.00000000000E+00 0. -1.
         11    1    3    3    0    0 -0.85651817587E+01 -0.10584840918E+02 -0.18088171967E+02  0.22640299495E+02  0.51100000000E-03 0. -1.
        -11    1    3    3    0    0 -0.87881570713E+00 -0.52701763995E+01 -0.17470693389E+02  0.18269433600E+02  0.51100000000E-03 0.  1.
         12    1    3    3    0    0 -0.64225168484E+00  0.23062166100E+02  0.21523014116E+02  0.31551800727E+02  0.00000000000E+00 0. -1.
</event>
<event>
 7    1  0.1692604E-013  0.7246172E+02  0.7816164E-02  0.1226708E+00
        -11   -1    0    0    0    0  0.00000000000E+00  0.00000000000E+00  0.45593999997E+02  0.45594000000E+02  0.51100000000E-03 0. -1.
         11   -1    0    0    0    0 -0.00000000000E+00 -0.00000000000E+00 -0.45593999997E+02  0.45594000000E+02  0.51100000000E-03 0.  1.
    9900012    2    1    2    0    0 -0.98590480499E+01 -0.17702482960E+01 -0.15822107900E+02  0.72461716175E+02  0.70000190037E+02 0.  0.
         12    1    1    2    0    0  0.98590480499E+01  0.17702482960E+01  0.15822107900E+02  0.18726283825E+02  0.00000000000E+00 0. -1.
         11    1    3    3    0    0  0.32225300133E+01  0.10715626374E+02  0.53040135181E+01  0.12383129973E+02  0.51100000000E-03 0. -1.
        -11    1    3    3    0    0 -0.41292573283E+00 -0.19292724855E+02  0.12849988297E+02  0.23184088067E+02  0.51100000000E-03 0.  1.
        -12    1    3    3    0    0 -0.12668652330E+02  0.68068501854E+01 -0.33976109715E+02  0.36894498135E+02  0.00000000000E+00 0.  1.
</event>
<event>
 7    1  0.1692604E-013  0.7246090E+02  0.7816164E-02  0.1226710E+00
        -11   -1    0    0    0    0  0.00000000000E+00  0.00000000000E+00  0.45593999997E+02  0.45594000000E+02  0.51100000000E-03 0. -1.
         11   -1    0    0    0    0 -0.00000000000E+00 -0.00000000000E+00 -0.45593999997E+02  0.45594000000E+02  0.51100000000E-03 0.  1.
    9900012    2    1    2    0    0 -0.10606243244E+02  0.10759900550E+02 -0.11065102007E+02  0.72460898302E+02  0.69999124600E+02 0.  0.
         12    1    1    2    0    0  0.10606243244E+02 -0.10759900550E+02  0.11065102007E+02  0.18727101698E+02  0.00000000000E+00 0. -1.
         11    1    3    3    0    0 -0.74861180430E+01  0.14533794531E+01 -0.20695031413E+01  0.79017161871E+01  0.51100000000E-03 0. -1.
        -11    1    3    3    0    0 -0.23089481855E+02 -0.46247874178E+01 -0.25833632593E+02  0.34955534672E+02  0.51100000000E-03 0.  1.
         12    1    3    3    0    0  0.19969356654E+02  0.13931308514E+02  0.16838033728E+02  0.29603647443E+02  0.00000000000E+00 0. -1.
</event>
<event>
 7    1  0.1692604E-013  0.7246155E+02  0.7816164E-02  0.1226708E+00
        -11   -1    0    0    0    0  0.00000000000E+00  0.00000000000E+00  0.45593999997E+02  0.45594000000E+02  0.51100000000E-03 0. -1.
         11   -1    0    0    0    0 -0.00000000000E+00 -0.00000000000E+00 -0.45593999997E+02  0.45594000000E+02  0.51100000000E-03 0.  1.
    9900012    2    1    2    0    0 -0.14012776720E+02 -0.90776912039E+01 -0.84804142440E+01  0.72461553066E+02  0.69999977558E+02 0.  0.
         12    1    1    2    0    0  0.14012776720E+02  0.90776912039E+01  0.84804142440E+01  0.18726446934E+02  0.00000000000E+00 0. -1.
         11    1    3    3    0    0  0.58240021522E+01 -0.98769201307E+01 -0.35971820857E+00  0.11471789302E+02  0.51100000000E-03 0. -1.
        -11    1    3    3    0    0 -0.18323648423E+02  0.59004388928E+01 -0.31552610804E+02  0.36961311117E+02  0.51100000000E-03 0.  1.
         12    1    3    3    0    0 -0.15131304489E+01 -0.51012099660E+01  0.23431914769E+02  0.24028452647E+02  0.00000000000E+00 0. -1.
</event>
<event>
 7    1  0.1692604E-013  0.7246161E+02  0.7816164E-02  0.1226708E+00
        -11   -1    0    0    0    0  0.00000000000E+00  0.00000000000E+00  0.45593999997E+02  0.45594000000E+02  0.51100000000E-03 0.  1.
         11   -1    0    0    0    0 -0.00000000000E+00 -0.00000000000E+00 -0.45593999997E+02  0.45594000000E+02  0.51100000000E-03 0. -1.
    9900012    2    1    2    0    0 -0.13425484833E+02 -0.70693494409E+01 -0.10975351411E+02  0.72461609982E+02  0.70000051700E+02 0.  0.
         12    1    1    2    0    0  0.13425484833E+02  0.70693494409E+01  0.10975351411E+02  0.18726390018E+02  0.00000000000E+00 0. -1.
         11    1    3    3    0    0  0.62134822499E+00 -0.14926898215E+01  0.17926070474E+01  0.24140498768E+01  0.51100000000E-03 0. -1.
        -11    1    3    3    0    0  0.22130583674E+02 -0.14108228989E+02  0.80411236079E+01  0.27449308336E+02  0.51100000000E-03 0.  1.
         12    1    3    3    0    0 -0.36177416732E+02  0.85315693700E+01 -0.20809082067E+02  0.42598251769E+02  0.00000000000E+00 0. -1.
</event>
<event>
 7    1  0.1692604E-013  0.7246160E+02  0.7816164E-02  0.1226708E+00
        -11   -1    0    0    0    0  0.00000000000E+00  0.00000000000E+00  0.45593999997E+02  0.45594000000E+02  0.51100000000E-03 0.  1.
         11   -1    0    0    0    0 -0.00000000000E+00 -0.00000000000E+00 -0.45593999997E+02  0.45594000000E+02  0.51100000000E-03 0. -1.
    9900012    2    1    2    0    0  0.26008916532E+01 -0.87402528089E+00  0.18524289867E+02  0.72461604921E+02  0.70000045108E+02 0.  0.
         12    1    1    2    0    0 -0.26008916532E+01  0.87402528089E+00 -0.18524289867E+02  0.18726395079E+02  0.00000000000E+00 0. -1.
         11    1    3    3    0    0  0.25136474235E+02 -0.12152230861E+02  0.78538554519E+01  0.29003484232E+02  0.51100000000E-03 0. -1.
        -11    1    3    3    0    0  0.77683109301E+01  0.22458183046E+01  0.85461385248E+01  0.11765493552E+02  0.51100000000E-03 0.  1.
        -12    1    3    3    0    0 -0.30303893512E+02  0.90323872751E+01  0.21242958899E+01  0.31692627138E+02  0.00000000000E+00 0.  1.
</event>
<event>
 7    1  0.1692604E-013  0.7246145E+02  0.7816164E-02  0.1226708E+00
        -11   -1    0    0    0    0  0.00000000000E+00  0.00000000000E+00  0.45593999997E+02  0.45594000000E+02  0.51100000000E-03 0. -1.
         11   -1    0    0    0    0 -0.00000000000E+00 -0.00000000000E+00 -0.45593999997E+02  0.45594000000E+02  0.51100000000E-03 0.  1.
    9900012    2    1    2    0    0 -0.48143001380E+01 -0.13721995890E+02 -0.11798863996E+02  0.72461445362E+02  0.69999837252E+02 0.  0.
         12    1    1    2    0    0  0.48143001380E+01  0.13721995890E+02  0.11798863996E+02  0.18726554638E+02  0.00000000000E+00 0. -1.
         11    1    3    3    0    0 -0.60339473755E+00 -0.12082722249E+02 -0.47341189272E+01  0.12991079418E+02  0.51100000000E-03 0. -1.
        -11    1    3    3    0    0  0.15268514383E+02  0.43369702148E+01 -0.26772016558E+02  0.31123587727E+02  0.51100000000E-03 0.  1.
        -12    1    3    3    0    0 -0.19479419784E+02 -0.59762438554E+01  0.19707271490E+02  0.28346778217E+02  0.00000000000E+00 0.  1.
</event>
<event>
 7    1  0.1692604E-013  0.7246162E+02  0.7816164E-02  0.1226708E+00
        -11   -1    0    0    0    0  0.00000000000E+00  0.00000000000E+00  0.45593999997E+02  0.45594000000E+02  0.51100000000E-03 0. -1.
         11   -1    0    0    0    0 -0.00000000000E+00 -0.00000000000E+00 -0.45593999997E+02  0.45594000000E+02  0.51100000000E-03 0.  1.
    9900012    2    1    2    0    0 -0.99580060514E+01  0.15208099065E+02 -0.44976968039E+01  0.72461616520E+02  0.70000060218E+02 0.  0.
         12    1    1    2    0    0  0.99580060514E+01 -0.15208099065E+02  0.44976968039E+01  0.18726383480E+02  0.00000000000E+00 0. -1.
         11    1    3    3    0    0 -0.72251894371E+01  0.58903617169E+01  0.12454486216E+02  0.15556797573E+02  0.51100000000E-03 0. -1.
        -11    1    3    3    0    0 -0.60101164680E+01  0.15147985945E+02  0.16262847977E+02  0.23023101501E+02  0.51100000000E-03 0.  1.
        -12    1    3    3    0    0  0.32772998537E+01 -0.58302485969E+01 -0.33215030997E+02  0.33881717447E+02  0.00000000000E+00 0.  1.
</event>
<event>
 7    1  0.1692604E-013  0.7246159E+02  0.7816164E-02  0.1226708E+00
        -11   -1    0    0    0    0  0.00000000000E+00  0.00000000000E+00  0.45593999997E+02  0.45594000000E+02  0.51100000000E-03 0. -1.
         11   -1    0    0    0    0 -0.00000000000E+00 -0.00000000000E+00 -0.45593999997E+02  0.45594000000E+02  0.51100000000E-03 0.  1.
    9900012    2    1    2    0    0 -0.10498421046E+02  0.66125240117E+01 -0.14026267003E+02  0.72461588590E+02  0.70000023833E+02 0.  0.
         12    1    1    2    0    0  0.10498421046E+02 -0.66125240117E+01  0.14026267003E+02  0.18726411410E+02  0.00000000000E+00 0. -1.
         11    1    3    3    0    0 -0.29292199292E+02 -0.17196639868E+02 -0.11585092733E+02  0.35888323115E+02  0.51100000000E-03 0. -1.
        -11    1    3    3    0    0 -0.21535325675E+00 -0.32245201274E+01 -0.13639990868E+01  0.35077629406E+01  0.51100000000E-03 0.  1.
        -12    1    3    3    0    0  0.19009131503E+02  0.27033684007E+02 -0.10771751827E+01  0.33065502534E+02  0.00000000000E+00 0.  1.
</event>
<event>
 7    1  0.1692604E-013  0.7246153E+02  0.7816164E-02  0.1226708E+00
        -11   -1    0    0    0    0  0.00000000000E+00  0.00000000000E+00  0.45593999997E+02  0.45594000000E+02  0.51100000000E-03 0.  1.
         11   -1    0    0    0    0 -0.00000000000E+00 -0.00000000000E+00 -0.45593999997E+02  0.45594000000E+02  0.51100000000E-03 0. -1.
    9900012    2    1    2    0    0 -0.96208338291E+01  0.42286796348E+01  0.15499625769E+02  0.72461532794E+02  0.69999951149E+02 0.  0.
         12    1    1    2    0    0  0.96208338291E+01 -0.42286796348E+01 -0.15499625769E+02  0.18726467206E+02  0.00000000000E+00 0. -1.
         11    1    3    3    0    0  0.42826085319E+01 -0.25867739196E+00  0.14945263549E+01  0.45432652484E+01  0.51100000000E-03 0. -1.
        -11    1    3    3    0    0  0.22619488972E+02  0.59318405275E+00  0.20601255381E+02  0.30600733197E+02  0.51100000000E-03 0.  1.
         12    1    3    3    0    0 -0.36522931333E+02  0.38941729740E+01 -0.65961559661E+01  0.37317534349E+02  0.00000000000E+00 0. -1.
</event>
<event>
 7    1  0.1692604E-013  0.7246157E+02  0.7816164E-02  0.1226708E+00
        -11   -1    0    0    0    0  0.00000000000E+00  0.00000000000E+00  0.45593999997E+02  0.45594000000E+02  0.51100000000E-03 0.  1.
         11   -1    0    0    0    0 -0.00000000000E+00 -0.00000000000E+00 -0.45593999997E+02  0.45594000000E+02  0.51100000000E-03 0. -1.
    9900012    2    1    2    0    0  0.14960835846E+02  0.10706427726E+02  0.34964067375E+01  0.72461573114E+02  0.70000003673E+02 0.  0.
         12    1    1    2    0    0 -0.14960835846E+02 -0.10706427726E+02 -0.34964067375E+01  0.18726426886E+02  0.00000000000E+00 0. -1.
         11    1    3    3    0    0  0.72529241489E+00  0.27032261014E+02 -0.15058654819E+02  0.30952096373E+02  0.51100000000E-03 0. -1.
        -11    1    3    3    0    0 -0.83416226728E+01 -0.60373761157E+00  0.69177550181E-01  0.83637284577E+01  0.51100000000E-03 0.  1.
        -12    1    3    3    0    0  0.22577166104E+02 -0.15722095677E+02  0.18485884007E+02  0.33145748283E+02  0.00000000000E+00 0.  1.
</event>
<event>
 7    1  0.1692604E-013  0.7246158E+02  0.7816164E-02  0.1226708E+00
        -11   -1    0    0    0    0  0.00000000000E+00  0.00000000000E+00  0.45593999997E+02  0.45594000000E+02  0.51100000000E-03 0.  1.
         11   -1    0    0    0    0 -0.00000000000E+00 -0.00000000000E+00 -0.45593999997E+02  0.45594000000E+02  0.51100000000E-03 0. -1.
    9900012    2    1    2    0    0 -0.90753208086E+00  0.76478132620E+01  0.17069452799E+02  0.72461577997E+02  0.70000010034E+02 0.  0.
         12    1    1    2    0    0  0.90753208086E+00 -0.76478132620E+01 -0.17069452799E+02  0.18726422003E+02  0.00000000000E+00 0. -1.
         11    1    3    3    0    0  0.24721438182E+01  0.12631427978E+02 -0.50148433323E+00  0.12880836720E+02  0.51100000000E-03 0. -1.
        -11    1    3    3    0    0  0.21423356159E+02 -0.13332844034E+02 -0.41475847892E+01  0.25572003812E+02  0.51100000000E-03 0.  1.
         12    1    3    3    0    0 -0.24803032058E+02  0.83492293177E+01  0.21718521921E+02  0.34008737464E+02  0.00000000000E+00 0. -1.
</event>
<event>
 7    1  0.1692604E-013  0.7246158E+02  0.7816164E-02  0.1226708E+00
        -11   -1    0    0    0    0  0.00000000000E+00  0.00000000000E+00  0.45593999997E+02  0.45594000000E+02  0.51100000000E-03 0.  1.
         11   -1    0    0    0    0 -0.00000000000E+00 -0.00000000000E+00 -0.45593999997E+02  0.45594000000E+02  0.51100000000E-03 0. -1.
    9900012    2    1    2    0    0 -0.87557380684E+01  0.10688189798E+02  0.12640350401E+02  0.72461579933E+02  0.70000012556E+02 0.  0.
         12    1    1    2    0    0  0.87557380684E+01 -0.10688189798E+02 -0.12640350401E+02  0.18726420067E+02  0.00000000000E+00 0. -1.
         11    1    3    3    0    0  0.22830461691E+02 -0.31447910428E+01  0.68269889553E+00  0.23056143861E+02  0.51100000000E-03 0. -1.
        -11    1    3    3    0    0 -0.44956798772E+01 -0.36671695547E+01  0.15889244674E+02  0.16915299781E+02  0.51100000000E-03 0.  1.
         12    1    3    3    0    0 -0.27090519882E+02  0.17500150395E+02 -0.39315931686E+01  0.32490136290E+02  0.00000000000E+00 0. -1.
</event>
<event>
 7    1  0.1692604E-013  0.7246154E+02  0.7816164E-02  0.1226708E+00
        -11   -1    0    0    0    0  0.00000000000E+00  0.00000000000E+00  0.45593999997E+02  0.45594000000E+02  0.51100000000E-03 0.  1.
         11   -1    0    0    0    0 -0.00000000000E+00 -0.00000000000E+00 -0.45593999997E+02  0.45594000000E+02  0.51100000000E-03 0. -1.
    9900012    2    1    2    0    0 -0.75016849740E+00 -0.11241591192E+02  0.14958076316E+02  0.72461543517E+02  0.69999965118E+02 0.  0.
         12    1    1    2    0    0  0.75016849740E+00  0.11241591192E+02 -0.14958076316E+02  0.18726456483E+02  0.00000000000E+00 0. -1.
         11    1    3    3    0    0  0.53201372697E+01  0.22441299809E+01 -0.31737148089E+01  0.65888121759E+01  0.51100000000E-03 0. -1.
        -11    1    3    3    0    0  0.97095206492E+01 -0.29696541208E+02 -0.70419788259E+01  0.32027313609E+02  0.51100000000E-03 0.  1.
         12    1    3    3    0    0 -0.15779826416E+02  0.16210820035E+02  0.25173769951E+02  0.33845417732E+02  0.00000000000E+00 0. -1.
</event>
<event>
 7    1  0.1692604E-013  0.7246156E+02  0.7816164E-02  0.1226708E+00
        -11   -1    0    0    0    0  0.00000000000E+00  0.00000000000E+00  0.45593999997E+02  0.45594000000E+02  0.51100000000E-03 0.  1.
         11   -1    0    0    0    0 -0.00000000000E+00 -0.00000000000E+00 -0.45593999997E+02  0.45594000000E+02  0.51100000000E-03 0. -1.
    9900012    2    1    2    0    0  0.87462659867E+00 -0.11912946399E+02  0.14422076507E+02  0.72461560019E+02  0.69999986614E+02 0.  0.
         12    1    1    2    0    0 -0.87462659867E+00  0.11912946399E+02 -0.14422076507E+02  0.18726439981E+02  0.00000000000E+00 0. -1.
         11    1    3    3    0    0 -0.16031670611E+02  0.84215655978E+01  0.17315967598E+01  0.18191637016E+02  0.51100000000E-03 0. -1.
        -11    1    3    3    0    0 -0.66959251842E+01 -0.26256836346E+02  0.61399491616E+00  0.27104129925E+02  0.51100000000E-03 0.  1.
         12    1    3    3    0    0  0.23602222394E+02  0.59223243496E+01  0.12076484832E+02  0.27165793078E+02  0.00000000000E+00 0. -1.
</event>
<event>
 7    1  0.1692604E-013  0.7246159E+02  0.7816164E-02  0.1226708E+00
        -11   -1    0    0    0    0  0.00000000000E+00  0.00000000000E+00  0.45593999997E+02  0.45594000000E+02  0.51100000000E-03 0.  1.
         11   -1    0    0    0    0 -0.00000000000E+00 -0.00000000000E+00 -0.45593999997E+02  0.45594000000E+02  0.51100000000E-03 0. -1.
    9900012    2    1    2    0    0 -0.75622214526E+00 -0.83777614736E+01  0.16730798973E+02  0.72461591013E+02  0.70000026991E+02 0.  0.
         12    1    1    2    0    0  0.75622214526E+00  0.83777614736E+01 -0.16730798973E+02  0.18726408987E+02  0.00000000000E+00 0. -1.
         11    1    3    3    0    0  0.55721273974E+01  0.67201761884E+01 -0.18464293167E+02  0.20423993100E+02  0.51100000000E-03 0. -1.
        -11    1    3    3    0    0  0.85406848935E+00 -0.11569161641E+02 -0.38175644300E+01  0.12212646417E+02  0.51100000000E-03 0.  1.
        -12    1    3    3    0    0 -0.71824180320E+01 -0.35287760207E+01  0.39012656571E+02  0.39824951496E+02  0.00000000000E+00 0.  1.
</event>
<event>
 7    1  0.1692604E-013  0.7246156E+02  0.7816164E-02  0.1226708E+00
        -11   -1    0    0    0    0  0.00000000000E+00  0.00000000000E+00  0.45593999997E+02  0.45594000000E+02  0.51100000000E-03 0.  1.
         11   -1    0    0    0    0 -0.00000000000E+00 -0.00000000000E+00 -0.45593999997E+02  0.45594000000E+02  0.51100000000E-03 0. -1.
    9900012    2    1    2    0    0 -0.18054909951E+01 -0.36831192010E+01  0.18271681712E+02  0.72461561007E+02  0.69999987901E+02 0.  0.
         12    1    1    2    0    0  0.18054909951E+01  0.36831192010E+01 -0.18271681712E+02  0.18726438993E+02  0.00000000000E+00 0. -1.
         11    1    3    3    0    0  0.82367956144E+00 -0.19212825578E+01 -0.93603297015E+01  0.95909096060E+01  0.51100000000E-03 0. -1.
        -11    1    3    3    0    0 -0.27384999705E+02 -0.10783870316E+02  0.19461694962E+02  0.35284382365E+02  0.51100000000E-03 0.  1.
         12    1    3    3    0    0  0.24755829148E+02  0.90220336726E+01  0.81703164517E+01  0.27586269036E+02  0.00000000000E+00 0. -1.
</event>
<event>
 7    1  0.1692604E-013  0.7246154E+02  0.7816164E-02  0.1226708E+00
        -11   -1    0    0    0    0  0.00000000000E+00  0.00000000000E+00  0.45593999997E+02  0.45594000000E+02  0.51100000000E-03 0. -1.
         11   -1    0    0    0    0 -0.00000000000E+00 -0.00000000000E+00 -0.45593999997E+02  0.45594000000E+02  0.51100000000E-03 0.  1.
    9900012    2    1    2    0    0 -0.15528052185E+01 -0.38025565395E+01 -0.18270455596E+02  0.72461543102E+02  0.69999964576E+02 0.  0.
         12    1    1    2    0    0  0.15528052185E+01  0.38025565395E+01  0.18270455596E+02  0.18726456898E+02  0.00000000000E+00 0. -1.
         11    1    3    3    0    0  0.17290690262E+02 -0.24679159666E+01  0.47132243661E+01  0.18090689957E+02  0.51100000000E-03 0.  1.
        -11    1    3    3    0    0 -0.24146312041E+02  0.16589387594E+01 -0.34028809782E+02  0.41758308855E+02  0.51100000000E-03 0. -1.
         12    1    3    3    0    0  0.53028165607E+01 -0.29935793323E+01  0.11045129820E+02  0.12612544289E+02  0.00000000000E+00 0. -1.
</event>
<event>
 7    1  0.1692604E-013  0.7246161E+02  0.7816164E-02  0.1226708E+00
        -11   -1    0    0    0    0  0.00000000000E+00  0.00000000000E+00  0.45593999997E+02  0.45594000000E+02  0.51100000000E-03 0.  1.
         11   -1    0    0    0    0 -0.00000000000E+00 -0.00000000000E+00 -0.45593999997E+02  0.45594000000E+02  0.51100000000E-03 0. -1.
    9900012    2    1    2    0    0 -0.43090769499E+01  0.17153973153E+02  0.61522878867E+01  0.72461612593E+02  0.70000055101E+02 0.  0.
         12    1    1    2    0    0  0.43090769499E+01 -0.17153973153E+02 -0.61522878867E+01  0.18726387407E+02  0.00000000000E+00 0. -1.
         11    1    3    3    0    0  0.84706565414E+01 -0.35994759487E+01 -0.82132102499E+01  0.12335520752E+02  0.51100000000E-03 0. -1.
        -11    1    3    3    0    0  0.14744338391E+02  0.60077020614E+01  0.22775037612E+02  0.27788312960E+02  0.51100000000E-03 0.  1.
         12    1    3    3    0    0 -0.27524071883E+02  0.14745747040E+02 -0.84095394756E+01  0.32337778881E+02  0.00000000000E+00 0. -1.
</event>
<event>
 7    1  0.1692604E-013  0.7246160E+02  0.7816164E-02  0.1226708E+00
        -11   -1    0    0    0    0  0.00000000000E+00  0.00000000000E+00  0.45593999997E+02  0.45594000000E+02  0.51100000000E-03 0.  1.
         11   -1    0    0    0    0 -0.00000000000E+00 -0.00000000000E+00 -0.45593999997E+02  0.45594000000E+02  0.51100000000E-03 0. -1.
    9900012    2    1    2    0    0  0.10362903856E+02  0.15526048670E+02 -0.14933907458E+01  0.72461596726E+02  0.70000034433E+02 0.  0.
         12    1    1    2    0    0 -0.10362903856E+02 -0.15526048670E+02  0.14933907458E+01  0.18726403274E+02  0.00000000000E+00 0. -1.
         11    1    3    3    0    0 -0.54159345148E+01  0.22877433924E+02 -0.93079057876E+01  0.25285300868E+02  0.51100000000E-03 0. -1.
        -11    1    3    3    0    0 -0.61583807269E+00  0.80311633700E+01  0.20031245388E+02  0.21590035518E+02  0.51100000000E-03 0.  1.
         12    1    3    3    0    0  0.16394676443E+02 -0.15382548623E+02 -0.12216730346E+02  0.25586260340E+02  0.00000000000E+00 0. -1.
</event>
<event>
 7    1  0.1692604E-013  0.7246156E+02  0.7816164E-02  0.1226708E+00
        -11   -1    0    0    0    0  0.00000000000E+00  0.00000000000E+00  0.45593999997E+02  0.45594000000E+02  0.51100000000E-03 0.  1.
         11   -1    0    0    0    0 -0.00000000000E+00 -0.00000000000E+00 -0.45593999997E+02  0.45594000000E+02  0.51100000000E-03 0. -1.
    9900012    2    1    2    0    0  0.18459594932E+01 -0.15426201213E+02  0.10454868008E+02  0.72461561060E+02  0.69999987971E+02 0.  0.
         12    1    1    2    0    0 -0.18459594932E+01  0.15426201213E+02 -0.10454868008E+02  0.18726438940E+02  0.00000000000E+00 0. -1.
         11    1    3    3    0    0  0.17475911343E+01 -0.30645377952E+01 -0.55420970476E+01  0.65696504182E+01  0.51100000000E-03 0. -1.
        -11    1    3    3    0    0 -0.24173092061E+02  0.11111404941E+02 -0.36075448829E+01  0.26848018175E+02  0.51100000000E-03 0.  1.
         12    1    3    3    0    0  0.24271460420E+02 -0.23473068358E+02  0.19604509938E+02  0.39043892467E+02  0.00000000000E+00 0. -1.
</event>
<event>
 7    1  0.1692604E-013  0.7246166E+02  0.7816164E-02  0.1226708E+00
        -11   -1    0    0    0    0  0.00000000000E+00  0.00000000000E+00  0.45593999997E+02  0.45594000000E+02  0.51100000000E-03 0.  1.
         11   -1    0    0    0    0 -0.00000000000E+00 -0.00000000000E+00 -0.45593999997E+02  0.45594000000E+02  0.51100000000E-03 0. -1.
    9900012    2    1    2    0    0 -0.11628768965E+02  0.12697055362E+02 -0.73642483237E+01  0.72461664644E+02  0.70000122907E+02 0.  0.
         12    1    1    2    0    0  0.11628768965E+02 -0.12697055362E+02  0.73642483237E+01  0.18726335356E+02  0.00000000000E+00 0. -1.
         11    1    3    3    0    0  0.52025703235E+01 -0.12227417287E+02 -0.13923853097E+02  0.19247081774E+02  0.51100000000E-03 0. -1.
        -11    1    3    3    0    0 -0.16621245411E+02 -0.68184684938E+01 -0.61961630045E+01  0.19003940324E+02  0.51100000000E-03 0.  1.
        -12    1    3    3    0    0 -0.21009387818E+00  0.31742941142E+02  0.12755767777E+02  0.34210642546E+02  0.00000000000E+00 0.  1.
</event>
<event>
 7    1  0.1692604E-013  0.7246169E+02  0.7816164E-02  0.1226708E+00
        -11   -1    0    0    0    0  0.00000000000E+00  0.00000000000E+00  0.45593999997E+02  0.45594000000E+02  0.51100000000E-03 0.  1.
         11   -1    0    0    0    0 -0.00000000000E+00 -0.00000000000E+00 -0.45593999997E+02  0.45594000000E+02  0.51100000000E-03 0. -1.
    9900012    2    1    2    0    0  0.15415587319E+00 -0.15227828720E+02  0.10897891584E+02  0.72461693036E+02  0.70000159893E+02 0.  0.
         12    1    1    2    0    0 -0.15415587319E+00  0.15227828720E+02 -0.10897891584E+02  0.18726306964E+02  0.00000000000E+00 0. -1.
         11    1    3    3    0    0  0.95969348896E+01 -0.18379689640E+02 -0.59858406526E+01  0.21581113019E+02  0.51100000000E-03 0.  1.
        -11    1    3    3    0    0  0.11042489329E+02  0.32171374827E+01  0.26021157101E+02  0.28449730426E+02  0.51100000000E-03 0. -1.
         12    1    3    3    0    0 -0.20485268346E+02 -0.65276562160E-01 -0.91374248645E+01  0.22430849591E+02  0.00000000000E+00 0. -1.
</event>
<event>
 7    1  0.1692604E-013  0.7246212E+02  0.7816164E-02  0.1226707E+00
        -11   -1    0    0    0    0  0.00000000000E+00  0.00000000000E+00  0.45593999997E+02  0.45594000000E+02  0.51100000000E-03 0. -1.
         11   -1    0    0    0    0 -0.00000000000E+00 -0.00000000000E+00 -0.45593999997E+02  0.45594000000E+02  0.51100000000E-03 0.  1.
    9900012    2    1    2    0    0 -0.71595597122E+01  0.13294823827E+02 -0.11074602297E+02  0.72462123468E+02  0.70000720608E+02 0.  0.
         12    1    1    2    0    0  0.71595597122E+01 -0.13294823827E+02  0.11074602297E+02  0.18725876532E+02  0.00000000000E+00 0. -1.
         11    1    3    3    0    0 -0.13033225864E+02 -0.72957698480E+01  0.43198584856E+01  0.15548453675E+02  0.51100000000E-03 0. -1.
        -11    1    3    3    0    0  0.56713648741E+01 -0.16015788763E+02  0.51717067110E+00  0.16998156812E+02  0.51100000000E-03 0.  1.
        -12    1    3    3    0    0  0.20230127768E+00  0.36606382438E+02 -0.15911631453E+02  0.39915512981E+02  0.00000000000E+00 0.  1.
</event>
<event>
 7    1  0.1692604E-013  0.7246161E+02  0.7816164E-02  0.1226708E+00
        -11   -1    0    0    0    0  0.00000000000E+00  0.00000000000E+00  0.45593999997E+02  0.45594000000E+02  0.51100000000E-03 0.  1.
         11   -1    0    0    0    0 -0.00000000000E+00 -0.00000000000E+00 -0.45593999997E+02  0.45594000000E+02  0.51100000000E-03 0. -1.
    9900012    2    1    2    0    0  0.45941765766E+01  0.15936157611E+01  0.18084016385E+02  0.72461609045E+02  0.70000050479E+02 0.  0.
         12    1    1    2    0    0 -0.45941765766E+01 -0.15936157611E+01 -0.18084016385E+02  0.18726390955E+02  0.00000000000E+00 0. -1.
         11    1    3    3    0    0 -0.18554102432E+02  0.38723477695E+01  0.22137367151E+01  0.19082725823E+02  0.51100000000E-03 0. -1.
        -11    1    3    3    0    0 -0.10433156902E+02  0.10016568871E+02  0.87852562627E+01  0.16922267660E+02  0.51100000000E-03 0.  1.
         12    1    3    3    0    0  0.33581435911E+02 -0.12295300879E+02  0.70850234070E+01  0.36456615562E+02  0.00000000000E+00 0. -1.
</event>
<event>
 7    1  0.1692604E-013  0.7246154E+02  0.7816164E-02  0.1226708E+00
        -11   -1    0    0    0    0  0.00000000000E+00  0.00000000000E+00  0.45593999997E+02  0.45594000000E+02  0.51100000000E-03 0. -1.
         11   -1    0    0    0    0 -0.00000000000E+00 -0.00000000000E+00 -0.45593999997E+02  0.45594000000E+02  0.51100000000E-03 0.  1.
    9900012    2    1    2    0    0  0.16613427534E+02 -0.21958199151E+01 -0.83577971605E+01  0.72461538163E+02  0.69999958143E+02 0.  0.
         12    1    1    2    0    0 -0.16613427534E+02  0.21958199151E+01  0.83577971605E+01  0.18726461837E+02  0.00000000000E+00 0. -1.
         11    1    3    3    0    0 -0.38496429883E+01 -0.10322669720E+01  0.62529972108E+01  0.74152073887E+01  0.51100000000E-03 0. -1.
        -11    1    3    3    0    0 -0.19306456916E+02 -0.11191661069E+02 -0.38692529718E+01  0.22648701396E+02  0.51100000000E-03 0.  1.
        -12    1    3    3    0    0  0.39769527439E+02  0.10028108125E+02 -0.10741541399E+02  0.42397629378E+02  0.00000000000E+00 0.  1.
</event>
<event>
 7    1  0.1692604E-013  0.7246157E+02  0.7816164E-02  0.1226708E+00
        -11   -1    0    0    0    0  0.00000000000E+00  0.00000000000E+00  0.45593999997E+02  0.45594000000E+02  0.51100000000E-03 0.  1.
         11   -1    0    0    0    0 -0.00000000000E+00 -0.00000000000E+00 -0.45593999997E+02  0.45594000000E+02  0.51100000000E-03 0. -1.
    9900012    2    1    2    0    0  0.12551366861E+01 -0.17003647388E+02  0.77446589697E+01  0.72461571212E+02  0.70000001195E+02 0.  0.
         12    1    1    2    0    0 -0.12551366861E+01  0.17003647388E+02 -0.77446589697E+01  0.18726428788E+02  0.00000000000E+00 0. -1.
         11    1    3    3    0    0 -0.21497127439E+01  0.53821563675E+01 -0.62422589333E+01  0.85179028462E+01  0.51100000000E-03 0. -1.
        -11    1    3    3    0    0 -0.80591257152E+01 -0.25186840436E+02  0.32555267750E+02  0.41942483201E+02  0.51100000000E-03 0.  1.
         12    1    3    3    0    0  0.11463975145E+02  0.28010366808E+01 -0.18568349847E+02  0.22001185165E+02  0.00000000000E+00 0. -1.
</event>
<event>
 7    1  0.1692604E-013  0.7246168E+02  0.7816164E-02  0.1226708E+00
        -11   -1    0    0    0    0  0.00000000000E+00  0.00000000000E+00  0.45593999997E+02  0.45594000000E+02  0.51100000000E-03 0. -1.
         11   -1    0    0    0    0 -0.00000000000E+00 -0.00000000000E+00 -0.45593999997E+02  0.45594000000E+02  0.51100000000E-03 0.  1.
    9900012    2    1    2    0    0  0.14188982726E+02  0.79546186890E+01 -0.92774962827E+01  0.72461678242E+02  0.70000140622E+02 0.  0.
         12    1    1    2    0    0 -0.14188982726E+02 -0.79546186890E+01  0.92774962827E+01  0.18726321758E+02  0.00000000000E+00 0. -1.
         11    1    3    3    0    0  0.32763004748E+02 -0.40643675717E+01  0.41234411611E+01  0.33270652700E+02  0.51100000000E-03 0. -1.
        -11    1    3    3    0    0 -0.27342727554E+00 -0.84602913458E+01  0.35868565115E+00  0.84723047507E+01  0.51100000000E-03 0.  1.
        -12    1    3    3    0    0 -0.18300594746E+02  0.20479277607E+02 -0.13759623095E+02  0.30718720791E+02  0.00000000000E+00 0.  1.
</event>
<event>
 7    1  0.1692604E-013  0.7246159E+02  0.7816164E-02  0.1226708E+00
        -11   -1    0    0    0    0  0.00000000000E+00  0.00000000000E+00  0.45593999997E+02  0.45594000000E+02  0.51100000000E-03 0.  1.
         11   -1    0    0    0    0 -0.00000000000E+00 -0.00000000000E+00 -0.45593999997E+02  0.45594000000E+02  0.51100000000E-03 0. -1.
    9900012    2    1    2    0    0  0.12695257667E+02  0.32752386008E+00  0.13762327196E+02  0.72461588465E+02  0.70000023671E+02 0.  0.
         12    1    1    2    0    0 -0.12695257667E+02 -0.32752386008E+00 -0.13762327196E+02  0.18726411535E+02  0.00000000000E+00 0. -1.
         11    1    3    3    0    0  0.93624502727E+01 -0.18986202960E+02  0.27354090933E+01  0.21345112816E+02  0.51100000000E-03 0. -1.
        -11    1    3    3    0    0 -0.69901420275E+01 -0.60520379659E+01  0.20216000509E+02  0.22230068060E+02  0.51100000000E-03 0.  1.
         12    1    3    3    0    0  0.10322949422E+02  0.25365764786E+02 -0.91890824068E+01  0.28886407590E+02  0.00000000000E+00 0. -1.
</event>
<event>
 7    1  0.1692604E-013  0.7246159E+02  0.7816164E-02  0.1226708E+00
        -11   -1    0    0    0    0  0.00000000000E+00  0.00000000000E+00  0.45593999997E+02  0.45594000000E+02  0.51100000000E-03 0.  1.
         11   -1    0    0    0    0 -0.00000000000E+00 -0.00000000000E+00 -0.45593999997E+02  0.45594000000E+02  0.51100000000E-03 0. -1.
    9900012    2    1    2    0    0  0.10249977678E+02  0.13093628402E+02  0.86123939569E+01  0.72461588791E+02  0.70000024095E+02 0.  0.
         12    1    1    2    0    0 -0.10249977678E+02 -0.13093628402E+02 -0.86123939569E+01  0.18726411209E+02  0.00000000000E+00 0. -1.
         11    1    3    3    0    0  0.27811459404E+01  0.26236702727E+01 -0.24718981232E+02  0.25012925695E+02  0.51100000000E-03 0. -1.
        -11    1    3    3    0    0  0.11678519529E+02  0.14901531955E+02  0.66351146487E+01  0.20061610594E+02  0.51100000000E-03 0.  1.
        -12    1    3    3    0    0 -0.42096877915E+01 -0.44315738255E+01  0.26696260540E+02  0.27387052501E+02  0.00000000000E+00 0.  1.
</event>
<event>
 7    1  0.1692604E-013  0.7246147E+02  0.7816164E-02  0.1226708E+00
        -11   -1    0    0    0    0  0.00000000000E+00  0.00000000000E+00  0.45593999997E+02  0.45594000000E+02  0.51100000000E-03 0. -1.
         11   -1    0    0    0    0 -0.00000000000E+00 -0.00000000000E+00 -0.45593999997E+02  0.45594000000E+02  0.51100000000E-03 0.  1.
    9900012    2    1    2    0    0  0.42089649224E+01  0.15372217487E+02  0.98317156020E+01  0.72461465674E+02  0.69999863712E+02 0.  0.
         12    1    1    2    0    0 -0.42089649224E+01 -0.15372217487E+02 -0.98317156020E+01  0.18726534326E+02  0.00000000000E+00 0. -1.
         11    1    3    3    0    0  0.36235559605E+01  0.15068862843E+02 -0.12601707232E+02  0.19975079740E+02  0.51100000000E-03 0.  1.
        -11    1    3    3    0    0 -0.10799909947E+02  0.13087089554E+02 -0.70654650525E+01  0.18380173136E+02  0.51100000000E-03 0. -1.
         12    1    3    3    0    0  0.11385318909E+02 -0.12783734910E+02  0.29498887886E+02  0.34106212798E+02  0.00000000000E+00 0. -1.
</event>
<event>
 7    1  0.1692604E-013  0.7246176E+02  0.7816164E-02  0.1226707E+00
        -11   -1    0    0    0    0  0.00000000000E+00  0.00000000000E+00  0.45593999997E+02  0.45594000000E+02  0.51100000000E-03 0.  1.
         11   -1    0    0    0    0 -0.00000000000E+00 -0.00000000000E+00 -0.45593999997E+02  0.45594000000E+02  0.51100000000E-03 0. -1.
    9900012    2    1    2    0    0  0.12462970930E+02 -0.13432831578E+02 -0.38607385750E+01  0.72461764101E+02  0.70000252468E+02 0.  0.
         12    1    1    2    0    0 -0.12462970930E+02  0.13432831578E+02  0.38607385750E+01  0.18726235899E+02  0.00000000000E+00 0. -1.
         11    1    3    3    0    0  0.25839142075E+01 -0.28935070288E+02  0.66519822446E+00  0.29057828449E+02  0.51100000000E-03 0. -1.
        -11    1    3    3    0    0 -0.41277290476E+01 -0.28964530428E+01  0.13289050103E+02  0.14213600537E+02  0.51100000000E-03 0.  1.
         12    1    3    3    0    0  0.14006785770E+02  0.18398691753E+02 -0.17814986902E+02  0.29190335115E+02  0.00000000000E+00 0. -1.
</event>
<event>
 7    1  0.1692604E-013  0.7246154E+02  0.7816164E-02  0.1226708E+00
        -11   -1    0    0    0    0  0.00000000000E+00  0.00000000000E+00  0.45593999997E+02  0.45594000000E+02  0.51100000000E-03 0. -1.
         11   -1    0    0    0    0 -0.00000000000E+00 -0.00000000000E+00 -0.45593999997E+02  0.45594000000E+02  0.51100000000E-03 0.  1.
    9900012    2    1    2    0    0 -0.13626470433E+02 -0.24635006218E+01 -0.12606771940E+02  0.72461541965E+02  0.69999963096E+02 0.  0.
         12    1    1    2    0    0  0.13626470433E+02  0.24635006218E+01  0.12606771940E+02  0.18726458035E+02  0.00000000000E+00 0. -1.
         11    1    3    3    0    0  0.36868814036E+01 -0.16845588215E+02  0.80619700927E+01  0.19035816211E+02  0.51100000000E-03 0. -1.
        -11    1    3    3    0    0  0.12232152942E+02 -0.49288653769E+01 -0.10004732454E+02  0.16553366764E+02  0.51100000000E-03 0.  1.
         12    1    3    3    0    0 -0.29545504778E+02  0.19310952970E+02 -0.10664009579E+02  0.36872358990E+02  0.00000000000E+00 0. -1.
</event>
<event>
 7    1  0.1692604E-013  0.7246132E+02  0.7816164E-02  0.1226709E+00
        -11   -1    0    0    0    0  0.00000000000E+00  0.00000000000E+00  0.45593999997E+02  0.45594000000E+02  0.51100000000E-03 0. -1.
         11   -1    0    0    0    0 -0.00000000000E+00 -0.00000000000E+00 -0.45593999997E+02  0.45594000000E+02  0.51100000000E-03 0.  1.
    9900012    2    1    2    0    0  0.67121971850E+01 -0.17460982983E+02 -0.86555424558E+00  0.72461315778E+02  0.69999668445E+02 0.  0.
         12    1    1    2    0    0 -0.67121971850E+01  0.17460982983E+02  0.86555424558E+00  0.18726684222E+02  0.00000000000E+00 0. -1.
         11    1    3    3    0    0  0.17228305737E+02  0.23618470262E+01  0.14345066241E+02  0.22542709812E+02  0.51100000000E-03 0. -1.
        -11    1    3    3    0    0 -0.17696931170E+02  0.65043900481E+00  0.68400697274E+01  0.18983966863E+02  0.51100000000E-03 0.  1.
         12    1    3    3    0    0  0.71808226174E+01 -0.20473269014E+02 -0.22050690214E+02  0.30934639104E+02  0.00000000000E+00 0. -1.
</event>
<event>
 7    1  0.1692604E-013  0.7246172E+02  0.7816164E-02  0.1226708E+00
        -11   -1    0    0    0    0  0.00000000000E+00  0.00000000000E+00  0.45593999997E+02  0.45594000000E+02  0.51100000000E-03 0. -1.
         11   -1    0    0    0    0 -0.00000000000E+00 -0.00000000000E+00 -0.45593999997E+02  0.45594000000E+02  0.51100000000E-03 0.  1.
    9900012    2    1    2    0    0  0.11033347160E+02 -0.54148361257E+01 -0.14128634072E+02  0.72461721657E+02  0.70000197178E+02 0.  0.
         12    1    1    2    0    0 -0.11033347160E+02  0.54148361257E+01  0.14128634072E+02  0.18726278343E+02  0.00000000000E+00 0. -1.
         11    1    3    3    0    0 -0.10463296333E+01 -0.14677077649E+02  0.39143617426E+01  0.15226084267E+02  0.51100000000E-03 0. -1.
        -11    1    3    3    0    0 -0.10652319250E+02  0.55722201580E+01 -0.29249910098E+02  0.31624022260E+02  0.51100000000E-03 0.  1.
         12    1    3    3    0    0  0.22731996044E+02  0.36900213649E+01  0.11206914283E+02  0.25611615130E+02  0.00000000000E+00 0. -1.
</event>
<event>
 7    1  0.1692604E-013  0.7246169E+02  0.7816164E-02  0.1226708E+00
        -11   -1    0    0    0    0  0.00000000000E+00  0.00000000000E+00  0.45593999997E+02  0.45594000000E+02  0.51100000000E-03 0. -1.
         11   -1    0    0    0    0 -0.00000000000E+00 -0.00000000000E+00 -0.45593999997E+02  0.45594000000E+02  0.51100000000E-03 0.  1.
    9900012    2    1    2    0    0 -0.19280208639E+00 -0.15806502477E+02 -0.10039524717E+02  0.72461688304E+02  0.70000153730E+02 0.  0.
         12    1    1    2    0    0  0.19280208639E+00  0.15806502477E+02  0.10039524717E+02  0.18726311696E+02  0.00000000000E+00 0. -1.
         11    1    3    3    0    0  0.70888724334E+01 -0.13063638398E+02  0.61438846228E+01  0.16082850465E+02  0.51100000000E-03 0. -1.
        -11    1    3    3    0    0  0.58651125455E+01  0.30052082637E+01  0.18073957070E+02  0.19237950678E+02  0.51100000000E-03 0.  1.
        -12    1    3    3    0    0 -0.13146787065E+02 -0.57480723422E+01 -0.34257366409E+02  0.37140887161E+02  0.00000000000E+00 0.  1.
</event>
<event>
 7    1  0.1692604E-013  0.7246158E+02  0.7816164E-02  0.1226708E+00
        -11   -1    0    0    0    0  0.00000000000E+00  0.00000000000E+00  0.45593999997E+02  0.45594000000E+02  0.51100000000E-03 0.  1.
         11   -1    0    0    0    0 -0.00000000000E+00 -0.00000000000E+00 -0.45593999997E+02  0.45594000000E+02  0.51100000000E-03 0. -1.
    9900012    2    1    2    0    0  0.88234272815E+01 -0.33212541993E+01  0.16180086959E+02  0.72461579828E+02  0.70000012419E+02 0.  0.
         12    1    1    2    0    0 -0.88234272815E+01  0.33212541993E+01 -0.16180086959E+02  0.18726420172E+02  0.00000000000E+00 0. -1.
         11    1    3    3    0    0  0.59157988543E+01 -0.10379704880E+02 -0.15663574654E+02  0.19699810168E+02  0.51100000000E-03 0. -1.
        -11    1    3    3    0    0 -0.50521700068E+01 -0.14019132840E+02  0.25192893137E+02  0.29270161807E+02  0.51100000000E-03 0.  1.
        -12    1    3    3    0    0  0.79597984340E+01  0.21077583520E+02  0.66507684763E+01  0.23491607852E+02  0.00000000000E+00 0.  1.
</event>
<event>
 7    1  0.1692604E-013  0.7246156E+02  0.7816164E-02  0.1226708E+00
        -11   -1    0    0    0    0  0.00000000000E+00  0.00000000000E+00  0.45593999997E+02  0.45594000000E+02  0.51100000000E-03 0.  1.
         11   -1    0    0    0    0 -0.00000000000E+00 -0.00000000000E+00 -0.45593999997E+02  0.45594000000E+02  0.51100000000E-03 0. -1.
    9900012    2    1    2    0    0  0.10800875472E+02  0.12179644014E+01  0.15249171216E+02  0.72461559575E+02  0.69999986035E+02 0.  0.
         12    1    1    2    0    0 -0.10800875472E+02 -0.12179644014E+01 -0.15249171216E+02  0.18726440425E+02  0.00000000000E+00 0. -1.
         11    1    3    3    0    0  0.17459362838E+02 -0.38772526686E+01 -0.20917068353E+02  0.27520650205E+02  0.51100000000E-03 0. -1.
        -11    1    3    3    0    0  0.62410447253E+01 -0.51828999128E+01  0.46013861394E+01  0.93266202578E+01  0.51100000000E-03 0.  1.
        -12    1    3    3    0    0 -0.12899532091E+02  0.10278116983E+02  0.31564853429E+02  0.35614289111E+02  0.00000000000E+00 0.  1.
</event>
<event>
 7    1  0.1692604E-013  0.7246157E+02  0.7816164E-02  0.1226708E+00
        -11   -1    0    0    0    0  0.00000000000E+00  0.00000000000E+00  0.45593999997E+02  0.45594000000E+02  0.51100000000E-03 0. -1.
         11   -1    0    0    0    0 -0.00000000000E+00 -0.00000000000E+00 -0.45593999997E+02  0.45594000000E+02  0.51100000000E-03 0.  1.
    9900012    2    1    2    0    0  0.18329332462E+02 -0.33410297535E+01  0.18847763503E+01  0.72461567072E+02  0.69999995803E+02 0.  0.
         12    1    1    2    0    0 -0.18329332462E+02  0.33410297535E+01 -0.18847763503E+01  0.18726432928E+02  0.00000000000E+00 0. -1.
         11    1    3    3    0    0  0.17902588281E+01 -0.82275200085E+01 -0.40855355956E+00  0.84299483055E+01  0.51100000000E-03 0. -1.
        -11    1    3    3    0    0  0.11275597308E+02  0.15939092584E+02 -0.26400389796E+02  0.32835565302E+02  0.51100000000E-03 0.  1.
         12    1    3    3    0    0  0.52634763251E+01 -0.11052602329E+02  0.28693719705E+02  0.31196053465E+02  0.00000000000E+00 0. -1.
</event>
<event>
 7    1  0.1692604E-013  0.7246156E+02  0.7816164E-02  0.1226708E+00
        -11   -1    0    0    0    0  0.00000000000E+00  0.00000000000E+00  0.45593999997E+02  0.45594000000E+02  0.51100000000E-03 0.  1.
         11   -1    0    0    0    0 -0.00000000000E+00 -0.00000000000E+00 -0.45593999997E+02  0.45594000000E+02  0.51100000000E-03 0. -1.
    9900012    2    1    2    0    0  0.68806084119E+01  0.45733841449E+01  0.16805387782E+02  0.72461556847E+02  0.69999982482E+02 0.  0.
         12    1    1    2    0    0 -0.68806084119E+01 -0.45733841449E+01 -0.16805387782E+02  0.18726443153E+02  0.00000000000E+00 0. -1.
         11    1    3    3    0    0 -0.42177666750E+01 -0.64119794345E+01  0.10048640037E+02  0.12644295269E+02  0.51100000000E-03 0. -1.
        -11    1    3    3    0    0  0.15918359412E+02 -0.88673412144E+01  0.26001662321E+02  0.31750753539E+02  0.51100000000E-03 0.  1.
         12    1    3    3    0    0 -0.48199843251E+01  0.19852704794E+02 -0.19244914575E+02  0.28066508039E+02  0.00000000000E+00 0. -1.
</event>
<event>
 7    1  0.1692604E-013  0.7246158E+02  0.7816164E-02  0.1226708E+00
        -11   -1    0    0    0    0  0.00000000000E+00  0.00000000000E+00  0.45593999997E+02  0.45594000000E+02  0.51100000000E-03 0. -1.
         11   -1    0    0    0    0 -0.00000000000E+00 -0.00000000000E+00 -0.45593999997E+02  0.45594000000E+02  0.51100000000E-03 0.  1.
    9900012    2    1    2    0    0 -0.12568024741E+02 -0.13842755990E+02  0.10496655465E+01  0.72461576501E+02  0.70000008085E+02 0.  0.
         12    1    1    2    0    0  0.12568024741E+02  0.13842755990E+02 -0.10496655465E+01  0.18726423499E+02  0.00000000000E+00 0. -1.
         11    1    3    3    0    0  0.12082296864E+02 -0.12480337217E+02 -0.20719341446E+02  0.27037600204E+02  0.51100000000E-03 0. -1.
        -11    1    3    3    0    0 -0.85290591438E+01  0.44988814948E+01 -0.70092478946E+01  0.11921171960E+02  0.51100000000E-03 0.  1.
        -12    1    3    3    0    0 -0.16121262461E+02 -0.58613002678E+01  0.28778254887E+02  0.33502804338E+02  0.00000000000E+00 0.  1.
</event>
<event>
 7    1  0.1692604E-013  0.7246172E+02  0.7816164E-02  0.1226708E+00
        -11   -1    0    0    0    0  0.00000000000E+00  0.00000000000E+00  0.45593999997E+02  0.45594000000E+02  0.51100000000E-03 0. -1.
         11   -1    0    0    0    0 -0.00000000000E+00 -0.00000000000E+00 -0.45593999997E+02  0.45594000000E+02  0.51100000000E-03 0.  1.
    9900012    2    1    2    0    0  0.97076191165E+01  0.10339806968E+02 -0.12228001200E+02  0.72461721929E+02  0.70000197532E+02 0.  0.
         12    1    1    2    0    0 -0.97076191165E+01 -0.10339806968E+02  0.12228001200E+02  0.18726278071E+02  0.00000000000E+00 0. -1.
         11    1    3    3    0    0 -0.13103566562E+02  0.12036115602E+02  0.98971487947E+00  0.17819962717E+02  0.51100000000E-03 0. -1.
        -11    1    3    3    0    0  0.10907068805E+02  0.16614977388E+02 -0.23266914715E+02  0.30600178825E+02  0.51100000000E-03 0.  1.
         12    1    3    3    0    0  0.11904116873E+02 -0.18311286022E+02  0.10049198635E+02  0.24041580387E+02  0.00000000000E+00 0. -1.
</event>
<event>
 7    1  0.1692604E-013  0.7246155E+02  0.7816164E-02  0.1226708E+00
        -11   -1    0    0    0    0  0.00000000000E+00  0.00000000000E+00  0.45593999997E+02  0.45594000000E+02  0.51100000000E-03 0. -1.
         11   -1    0    0    0    0 -0.00000000000E+00 -0.00000000000E+00 -0.45593999997E+02  0.45594000000E+02  0.51100000000E-03 0.  1.
    9900012    2    1    2    0    0  0.53240329979E+01  0.17751182490E+02  0.26888890693E+01  0.72461549947E+02  0.69999973493E+02 0.  0.
         12    1    1    2    0    0 -0.53240329979E+01 -0.17751182490E+02 -0.26888890693E+01  0.18726450053E+02  0.00000000000E+00 0. -1.
         11    1    3    3    0    0  0.11200165706E+02 -0.71893279427E-01 -0.22782221471E+01  0.11429749643E+02  0.51100000000E-03 0. -1.
        -11    1    3    3    0    0 -0.14794186278E+01 -0.18917302945E+02 -0.95998033101E+01  0.21265212297E+02  0.51100000000E-03 0.  1.
         12    1    3    3    0    0 -0.43967140806E+01  0.36740378715E+02  0.14566914526E+02  0.39766588006E+02  0.00000000000E+00 0. -1.
</event>
<event>
 7    1  0.1692604E-013  0.7246170E+02  0.7816164E-02  0.1226708E+00
        -11   -1    0    0    0    0  0.00000000000E+00  0.00000000000E+00  0.45593999997E+02  0.45594000000E+02  0.51100000000E-03 0. -1.
         11   -1    0    0    0    0 -0.00000000000E+00 -0.00000000000E+00 -0.45593999997E+02  0.45594000000E+02  0.51100000000E-03 0.  1.
    9900012    2    1    2    0    0 -0.63172685463E+01 -0.17621192635E+02 -0.50998233549E+00  0.72461697809E+02  0.70000166111E+02 0.  0.
         12    1    1    2    0    0  0.63172685463E+01  0.17621192635E+02  0.50998233549E+00  0.18726302191E+02  0.00000000000E+00 0. -1.
         11    1    3    3    0    0 -0.90196902390E+00 -0.28342048954E+01  0.59327538770E+01  0.66365528955E+01  0.51100000000E-03 0. -1.
        -11    1    3    3    0    0 -0.30612186012E+02  0.78486070364E+01 -0.41947852297E+01  0.31879504203E+02  0.51100000000E-03 0.  1.
         12    1    3    3    0    0  0.25196886489E+02 -0.22635594776E+02 -0.22479509827E+01  0.33945640711E+02  0.00000000000E+00 0. -1.
</event>
<event>
 7    1  0.1692604E-013  0.7246107E+02  0.7816164E-02  0.1226709E+00
        -11   -1    0    0    0    0  0.00000000000E+00  0.00000000000E+00  0.45593999997E+02  0.45594000000E+02  0.51100000000E-03 0.  1.
         11   -1    0    0    0    0 -0.00000000000E+00 -0.00000000000E+00 -0.45593999997E+02  0.45594000000E+02  0.51100000000E-03 0. -1.
    9900012    2    1    2    0    0  0.10551562613E+02  0.85913602109E+01  0.12866667973E+02  0.72461065158E+02  0.69999341963E+02 0.  0.
         12    1    1    2    0    0 -0.10551562613E+02 -0.85913602109E+01 -0.12866667973E+02  0.18726934842E+02  0.00000000000E+00 0. -1.
         11    1    3    3    0    0 -0.13780191452E+02  0.64553633144E+01 -0.50081025404E+01  0.16020189865E+02  0.51100000000E-03 0. -1.
        -11    1    3    3    0    0 -0.54095418112E+01  0.18635239917E+02  0.46890073440E+01  0.19963018297E+02  0.51100000000E-03 0.  1.
        -12    1    3    3    0    0  0.29741295877E+02 -0.16499243021E+02  0.13185763169E+02  0.36477856996E+02  0.00000000000E+00 0.  1.
</event>
<event>
 7    1  0.1692604E-013  0.7246179E+02  0.7816164E-02  0.1226707E+00
        -11   -1    0    0    0    0  0.00000000000E+00  0.00000000000E+00  0.45593999997E+02  0.45594000000E+02  0.51100000000E-03 0.  1.
         11   -1    0    0    0    0 -0.00000000000E+00 -0.00000000000E+00 -0.45593999997E+02  0.45594000000E+02  0.51100000000E-03 0. -1.
    9900012    2    1    2    0    0  0.69907339751E+01 -0.81059525315E+01  0.15365356808E+02  0.72461787949E+02  0.70000283535E+02 0.  0.
         12    1    1    2    0    0 -0.69907339751E+01  0.81059525315E+01 -0.15365356808E+02  0.18726212051E+02  0.00000000000E+00 0. -1.
         11    1    3    3    0    0 -0.37030362287E+01  0.15083374936E+02  0.11476895204E+02  0.19311649348E+02  0.51100000000E-03 0.  1.
        -11    1    3    3    0    0  0.14337000999E+02  0.10719403604E+02  0.62591047711E+01  0.18963955390E+02  0.51100000000E-03 0. -1.
        -12    1    3    3    0    0 -0.36432307949E+01 -0.33908731071E+02 -0.23706431681E+01  0.34186183210E+02  0.00000000000E+00 0.  1.
</event>
<event>
 7    1  0.1692604E-013  0.7246158E+02  0.7816164E-02  0.1226708E+00
        -11   -1    0    0    0    0  0.00000000000E+00  0.00000000000E+00  0.45593999997E+02  0.45594000000E+02  0.51100000000E-03 0.  1.
         11   -1    0    0    0    0 -0.00000000000E+00 -0.00000000000E+00 -0.45593999997E+02  0.45594000000E+02  0.51100000000E-03 0. -1.
    9900012    2    1    2    0    0  0.57783514564E+01 -0.41052842628E+00  0.17807894533E+02  0.72461575172E+02  0.70000006354E+02 0.  0.
         12    1    1    2    0    0 -0.57783514564E+01  0.41052842628E+00 -0.17807894533E+02  0.18726424828E+02  0.00000000000E+00 0. -1.
         11    1    3    3    0    0 -0.58999677722E+00 -0.58377028107E+01 -0.38196506913E+01  0.70011857544E+01  0.51100000000E-03 0. -1.
        -11    1    3    3    0    0  0.28562618534E+02 -0.12077636023E+02  0.20493672002E+02  0.37170997589E+02  0.51100000000E-03 0.  1.
         12    1    3    3    0    0 -0.22194270300E+02  0.17504810407E+02  0.11338732229E+01  0.28289391828E+02  0.00000000000E+00 0. -1.
</event>
<event>
 7    1  0.1692604E-013  0.7246157E+02  0.7816164E-02  0.1226708E+00
        -11   -1    0    0    0    0  0.00000000000E+00  0.00000000000E+00  0.45593999997E+02  0.45594000000E+02  0.51100000000E-03 0. -1.
         11   -1    0    0    0    0 -0.00000000000E+00 -0.00000000000E+00 -0.45593999997E+02  0.45594000000E+02  0.51100000000E-03 0.  1.
    9900012    2    1    2    0    0  0.35317091424E+01  0.78343618806E+01 -0.16638177794E+02  0.72461570660E+02  0.70000000476E+02 0.  0.
         12    1    1    2    0    0 -0.35317091424E+01 -0.78343618806E+01  0.16638177794E+02  0.18726429340E+02  0.00000000000E+00 0. -1.
         11    1    3    3    0    0 -0.16596983106E+02 -0.12681261764E+02  0.20418365002E+01  0.20986742117E+02  0.51100000000E-03 0. -1.
        -11    1    3    3    0    0  0.10381266160E+02 -0.55170544800E+01  0.69565166829E+01  0.13660223345E+02  0.51100000000E-03 0.  1.
        -12    1    3    3    0    0  0.97474260887E+01  0.26032678125E+02 -0.25636530977E+02  0.37814605197E+02  0.00000000000E+00 0.  1.
</event>
<event>
 7    1  0.1692604E-013  0.7246159E+02  0.7816164E-02  0.1226708E+00
        -11   -1    0    0    0    0  0.00000000000E+00  0.00000000000E+00  0.45593999997E+02  0.45594000000E+02  0.51100000000E-03 0.  1.
         11   -1    0    0    0    0 -0.00000000000E+00 -0.00000000000E+00 -0.45593999997E+02  0.45594000000E+02  0.51100000000E-03 0. -1.
    9900012    2    1    2    0    0 -0.16324016511E+02 -0.78517128792E+01  0.47492781542E+01  0.72461586751E+02  0.70000021438E+02 0.  0.
         12    1    1    2    0    0  0.16324016511E+02  0.78517128792E+01 -0.47492781542E+01  0.18726413249E+02  0.00000000000E+00 0. -1.
         11    1    3    3    0    0  0.19050348212E+02 -0.99102767930E+01 -0.30836640090E+01  0.21694200541E+02  0.51100000000E-03 0. -1.
        -11    1    3    3    0    0  0.33567503306E+01 -0.88646616180E+01 -0.11100160328E+01  0.95436960470E+01  0.51100000000E-03 0.  1.
        -12    1    3    3    0    0 -0.38731115054E+02  0.10923225532E+02  0.89429581960E+01  0.41223690163E+02  0.00000000000E+00 0.  1.
</event>
<event>
 7    1  0.1692604E-013  0.7246147E+02  0.7816164E-02  0.1226708E+00
        -11   -1    0    0    0    0  0.00000000000E+00  0.00000000000E+00  0.45593999997E+02  0.45594000000E+02  0.51100000000E-03 0. -1.
         11   -1    0    0    0    0 -0.00000000000E+00 -0.00000000000E+00 -0.45593999997E+02  0.45594000000E+02  0.51100000000E-03 0.  1.
    9900012    2    1    2    0    0  0.10476504685E+02  0.14095502973E+01 -0.15457648312E+02  0.72461471390E+02  0.69999871158E+02 0.  0.
         12    1    1    2    0    0 -0.10476504685E+02 -0.14095502973E+01  0.15457648312E+02  0.18726528610E+02  0.00000000000E+00 0. -1.
         11    1    3    3    0    0 -0.20458531582E+01  0.12644347822E+02 -0.38122623989E+01  0.13364070931E+02  0.51100000000E-03 0. -1.
        -11    1    3    3    0    0  0.30148336790E+02  0.72233302509E+01 -0.12821262636E+02  0.33548226286E+02  0.51100000000E-03 0.  1.
         12    1    3    3    0    0 -0.17625978947E+02 -0.18458127776E+02  0.11758767224E+01  0.25549174172E+02  0.00000000000E+00 0. -1.
</event>
<event>
 7    1  0.1692604E-013  0.7246157E+02  0.7816164E-02  0.1226708E+00
        -11   -1    0    0    0    0  0.00000000000E+00  0.00000000000E+00  0.45593999997E+02  0.45594000000E+02  0.51100000000E-03 0.  1.
         11   -1    0    0    0    0 -0.00000000000E+00 -0.00000000000E+00 -0.45593999997E+02  0.45594000000E+02  0.51100000000E-03 0. -1.
    9900012    2    1    2    0    0 -0.23518006810E+01 -0.89246684697E+01  0.16294124962E+02  0.72461569960E+02  0.69999999565E+02 0.  0.
         12    1    1    2    0    0  0.23518006810E+01  0.89246684697E+01 -0.16294124962E+02  0.18726430040E+02  0.00000000000E+00 0. -1.
         11    1    3    3    0    0 -0.14417522651E+02  0.16208325628E-01 -0.53418455728E+01  0.15375322322E+02  0.51100000000E-03 0. -1.
        -11    1    3    3    0    0 -0.24154373303E+01  0.17021101864E+02  0.21279763410E+02  0.27356545418E+02  0.51100000000E-03 0.  1.
         12    1    3    3    0    0  0.14481159301E+02 -0.25961978660E+02  0.35620712549E+00  0.29729702221E+02  0.00000000000E+00 0. -1.
</event>
<event>
 7    1  0.1692604E-013  0.7246155E+02  0.7816164E-02  0.1226708E+00
        -11   -1    0    0    0    0  0.00000000000E+00  0.00000000000E+00  0.45593999997E+02  0.45594000000E+02  0.51100000000E-03 0.  1.
         11   -1    0    0    0    0 -0.00000000000E+00 -0.00000000000E+00 -0.45593999997E+02  0.45594000000E+02  0.51100000000E-03 0. -1.
    9900012    2    1    2    0    0  0.11545977451E+02  0.18689172137E+01  0.14624550936E+02  0.72461549804E+02  0.69999973308E+02 0.  0.
         12    1    1    2    0    0 -0.11545977451E+02 -0.18689172137E+01 -0.14624550936E+02  0.18726450196E+02  0.00000000000E+00 0. -1.
         11    1    3    3    0    0  0.16786294301E+02 -0.29099003891E+02 -0.30507246829E+01  0.33731863648E+02  0.51100000000E-03 0. -1.
        -11    1    3    3    0    0  0.11892000367E+01  0.66881360025E+01  0.10679590846E+02  0.12656975184E+02  0.51100000000E-03 0.  1.
        -12    1    3    3    0    0 -0.64295168867E+01  0.24279785102E+02  0.69956847732E+01  0.26072710972E+02  0.00000000000E+00 0.  1.
</event>
<event>
 7    1  0.1692604E-013  0.7246155E+02  0.7816164E-02  0.1226708E+00
        -11   -1    0    0    0    0  0.00000000000E+00  0.00000000000E+00  0.45593999997E+02  0.45594000000E+02  0.51100000000E-03 0. -1.
         11   -1    0    0    0    0 -0.00000000000E+00 -0.00000000000E+00 -0.45593999997E+02  0.45594000000E+02  0.51100000000E-03 0.  1.
    9900012    2    1    2    0    0 -0.98480239321E+01  0.15673064662E+02 -0.28374749683E+01  0.72461553582E+02  0.69999978229E+02 0.  0.
         12    1    1    2    0    0  0.98480239321E+01 -0.15673064662E+02  0.28374749683E+01  0.18726446418E+02  0.00000000000E+00 0. -1.
         11    1    3    3    0    0 -0.10089181461E+02  0.22309457611E+02  0.22184196386E+02  0.33040006825E+02  0.51100000000E-03 0. -1.
        -11    1    3    3    0    0  0.11085547360E+02 -0.54724153149E+01 -0.26131231719E+00  0.12365475084E+02  0.51100000000E-03 0.  1.
        -12    1    3    3    0    0 -0.10844389831E+02 -0.11639776343E+01 -0.24760359037E+02  0.27056071673E+02  0.00000000000E+00 0.  1.
</event>
<event>
 7    1  0.1692604E-013  0.7246156E+02  0.7816164E-02  0.1226708E+00
        -11   -1    0    0    0    0  0.00000000000E+00  0.00000000000E+00  0.45593999997E+02  0.45594000000E+02  0.51100000000E-03 0. -1.
         11   -1    0    0    0    0 -0.00000000000E+00 -0.00000000000E+00 -0.45593999997E+02  0.45594000000E+02  0.51100000000E-03 0.  1.
    9900012    2    1    2    0    0 -0.10486399581E+02 -0.40236914344E+01 -0.14984154631E+02  0.72461559897E+02  0.69999986455E+02 0.  0.
         12    1    1    2    0    0  0.10486399581E+02  0.40236914344E+01  0.14984154631E+02  0.18726440103E+02  0.00000000000E+00 0. -1.
         11    1    3    3    0    0 -0.68722303967E+01  0.92246151738E+01 -0.12336623569E+02  0.16867523739E+02  0.51100000000E-03 0. -1.
        -11    1    3    3    0    0 -0.28170966591E+00 -0.32126774083E+02 -0.11959464521E+02  0.34281740989E+02  0.51100000000E-03 0.  1.
         12    1    3    3    0    0 -0.33324595184E+01  0.18878467475E+02  0.93119334586E+01  0.21312295169E+02  0.00000000000E+00 0. -1.
</event>
<event>
 7    1  0.1692604E-013  0.7246161E+02  0.7816164E-02  0.1226708E+00
        -11   -1    0    0    0    0  0.00000000000E+00  0.00000000000E+00  0.45593999997E+02  0.45594000000E+02  0.51100000000E-03 0.  1.
         11   -1    0    0    0    0 -0.00000000000E+00 -0.00000000000E+00 -0.45593999997E+02  0.45594000000E+02  0.51100000000E-03 0. -1.
    9900012    2    1    2    0    0  0.15853508947E+02 -0.60401895039E+01  0.79284404831E+01  0.72461606763E+02  0.70000047507E+02 0.  0.
         12    1    1    2    0    0 -0.15853508947E+02  0.60401895039E+01 -0.79284404831E+01  0.18726393237E+02  0.00000000000E+00 0. -1.
         11    1    3    3    0    0 -0.66342769129E+01 -0.48245904442E+01  0.18784613457E+01  0.84153978159E+01  0.51100000000E-03 0. -1.
        -11    1    3    3    0    0 -0.14409360405E+02 -0.18039581585E+02  0.30898860240E+00  0.23090076770E+02  0.51100000000E-03 0.  1.
        -12    1    3    3    0    0  0.36897146265E+02  0.16823982525E+02  0.57409905350E+01  0.40956132176E+02  0.00000000000E+00 0.  1.
</event>
<event>
 7    1  0.1692604E-013  0.7246158E+02  0.7816164E-02  0.1226708E+00
        -11   -1    0    0    0    0  0.00000000000E+00  0.00000000000E+00  0.45593999997E+02  0.45594000000E+02  0.51100000000E-03 0.  1.
         11   -1    0    0    0    0 -0.00000000000E+00 -0.00000000000E+00 -0.45593999997E+02  0.45594000000E+02  0.51100000000E-03 0. -1.
    9900012    2    1    2    0    0  0.55806801661E+01  0.11401264925E+02  0.13767566868E+02  0.72461582017E+02  0.70000015272E+02 0.  0.
         12    1    1    2    0    0 -0.55806801661E+01 -0.11401264925E+02 -0.13767566868E+02  0.18726417983E+02  0.00000000000E+00 0. -1.
         11    1    3    3    0    0  0.17383438373E+02 -0.21799673193E+02  0.15781391078E+02  0.32038445430E+02  0.51100000000E-03 0. -1.
        -11    1    3    3    0    0  0.64565152545E-01  0.47460005040E+01  0.68591536469E+01  0.83412636006E+01  0.51100000000E-03 0.  1.
        -12    1    3    3    0    0 -0.11867323359E+02  0.28454937613E+02 -0.88729778570E+01  0.32081872987E+02  0.00000000000E+00 0.  1.
</event>
<event>
 7    1  0.1692604E-013  0.7246157E+02  0.7816164E-02  0.1226708E+00
        -11   -1    0    0    0    0  0.00000000000E+00  0.00000000000E+00  0.45593999997E+02  0.45594000000E+02  0.51100000000E-03 0. -1.
         11   -1    0    0    0    0 -0.00000000000E+00 -0.00000000000E+00 -0.45593999997E+02  0.45594000000E+02  0.51100000000E-03 0.  1.
    9900012    2    1    2    0    0  0.14668048385E+02 -0.11415047916E+01 -0.11585537942E+02  0.72461565048E+02  0.69999993166E+02 0.  0.
         12    1    1    2    0    0 -0.14668048385E+02  0.11415047916E+01  0.11585537942E+02  0.18726434952E+02  0.00000000000E+00 0. -1.
         11    1    3    3    0    0  0.13635850866E+02  0.36961579429E+01  0.32993642461E+01  0.14508060417E+02  0.51100000000E-03 0. -1.
        -11    1    3    3    0    0  0.24033775442E+02 -0.41012451392E+01 -0.23032817973E+02  0.33540323161E+02  0.51100000000E-03 0.  1.
         12    1    3    3    0    0 -0.23001577923E+02 -0.73641759522E+00  0.81479157854E+01  0.24413181470E+02  0.00000000000E+00 0. -1.
</event>
<event>
 7    1  0.1692604E-013  0.7246158E+02  0.7816164E-02  0.1226708E+00
        -11   -1    0    0    0    0  0.00000000000E+00  0.00000000000E+00  0.45593999997E+02  0.45594000000E+02  0.51100000000E-03 0.  1.
         11   -1    0    0    0    0 -0.00000000000E+00 -0.00000000000E+00 -0.45593999997E+02  0.45594000000E+02  0.51100000000E-03 0. -1.
    9900012    2    1    2    0    0 -0.57048226216E+01 -0.11960292104E+02  0.13231980016E+02  0.72461577931E+02  0.70000009948E+02 0.  0.
         12    1    1    2    0    0  0.57048226216E+01  0.11960292104E+02 -0.13231980016E+02  0.18726422069E+02  0.00000000000E+00 0. -1.
         11    1    3    3    0    0  0.97768588265E+01 -0.50208403943E+01 -0.94507006773E-01  0.10991120899E+02  0.51100000000E-03 0. -1.
        -11    1    3    3    0    0  0.11073041739E+02  0.14783555309E+02  0.19223693903E+02  0.26659260464E+02  0.51100000000E-03 0.  1.
         12    1    3    3    0    0 -0.26554723188E+02 -0.21723007019E+02 -0.58972068801E+01  0.34811196568E+02  0.00000000000E+00 0. -1.
</event>
<event>
 7    1  0.1692604E-013  0.7246158E+02  0.7816164E-02  0.1226708E+00
        -11   -1    0    0    0    0  0.00000000000E+00  0.00000000000E+00  0.45593999997E+02  0.45594000000E+02  0.51100000000E-03 0.  1.
         11   -1    0    0    0    0 -0.00000000000E+00 -0.00000000000E+00 -0.45593999997E+02  0.45594000000E+02  0.51100000000E-03 0. -1.
    9900012    2    1    2    0    0 -0.78089286496E+01  0.14737783112E+02 -0.85145194541E+01  0.72461583919E+02  0.70000017748E+02 0.  0.
         12    1    1    2    0    0  0.78089286496E+01 -0.14737783112E+02  0.85145194541E+01  0.18726416081E+02  0.00000000000E+00 0. -1.
         11    1    3    3    0    0  0.14366564514E+01  0.30142817518E+02 -0.12960180887E+02  0.32842346423E+02  0.51100000000E-03 0. -1.
        -11    1    3    3    0    0 -0.10500353617E+02  0.75513942487E+01  0.95392757013E+01  0.16071053554E+02  0.51100000000E-03 0.  1.
         12    1    3    3    0    0  0.12547685157E+01 -0.22956428655E+02 -0.50936142687E+01  0.23548183942E+02  0.00000000000E+00 0. -1.
</event>
<event>
 7    1  0.1692604E-013  0.7246129E+02  0.7816164E-02  0.1226709E+00
        -11   -1    0    0    0    0  0.00000000000E+00  0.00000000000E+00  0.45593999997E+02  0.45594000000E+02  0.51100000000E-03 0. -1.
         11   -1    0    0    0    0 -0.00000000000E+00 -0.00000000000E+00 -0.45593999997E+02  0.45594000000E+02  0.51100000000E-03 0.  1.
    9900012    2    1    2    0    0  0.84716597840E+01  0.90380818605E+00 -0.16676443362E+02  0.72461290413E+02  0.69999635402E+02 0.  0.
         12    1    1    2    0    0 -0.84716597840E+01 -0.90380818605E+00  0.16676443362E+02  0.18726709587E+02  0.00000000000E+00 0. -1.
         11    1    3    3    0    0 -0.19850705492E+01  0.79169600136E+01 -0.40087885217E+01  0.90933572797E+01  0.51100000000E-03 0. -1.
        -11    1    3    3    0    0  0.87825017800E+01 -0.14328710251E+02 -0.35530592908E+02  0.39304800059E+02  0.51100000000E-03 0.  1.
         12    1    3    3    0    0  0.16742285533E+01  0.73155584229E+01  0.22862938068E+02  0.24063133075E+02  0.00000000000E+00 0. -1.
</event>
<event>
 7    1  0.1692604E-013  0.7246160E+02  0.7816164E-02  0.1226708E+00
        -11   -1    0    0    0    0  0.00000000000E+00  0.00000000000E+00  0.45593999997E+02  0.45594000000E+02  0.51100000000E-03 0.  1.
         11   -1    0    0    0    0 -0.00000000000E+00 -0.00000000000E+00 -0.45593999997E+02  0.45594000000E+02  0.51100000000E-03 0. -1.
    9900012    2    1    2    0    0  0.17757328675E+02 -0.58137036140E+01  0.12474950831E+01  0.72461598440E+02  0.70000036666E+02 0.  0.
         12    1    1    2    0    0 -0.17757328675E+02  0.58137036140E+01 -0.12474950831E+01  0.18726401560E+02  0.00000000000E+00 0. -1.
         11    1    3    3    0    0 -0.18028191907E+02  0.12882266650E+01 -0.13014378073E+02  0.22272163529E+02  0.51100000000E-03 0. -1.
        -11    1    3    3    0    0 -0.15962862075E+01  0.76596064228E+01  0.11163206264E+01  0.79034088981E+01  0.51100000000E-03 0.  1.
        -12    1    3    3    0    0  0.37381806790E+02 -0.14761536702E+02  0.13145552529E+02  0.42286026013E+02  0.00000000000E+00 0.  1.
</event>
<event>
 7    1  0.1692604E-013  0.7246154E+02  0.7816164E-02  0.1226708E+00
        -11   -1    0    0    0    0  0.00000000000E+00  0.00000000000E+00  0.45593999997E+02  0.45594000000E+02  0.51100000000E-03 0. -1.
         11   -1    0    0    0    0 -0.00000000000E+00 -0.00000000000E+00 -0.45593999997E+02  0.45594000000E+02  0.51100000000E-03 0.  1.
    9900012    2    1    2    0    0  0.48277822253E+01 -0.17492322510E+02  0.46250927530E+01  0.72461539817E+02  0.69999960298E+02 0.  0.
         12    1    1    2    0    0 -0.48277822253E+01  0.17492322510E+02 -0.46250927530E+01  0.18726460183E+02  0.00000000000E+00 0. -1.
         11    1    3    3    0    0 -0.76715665577E+01  0.14352364920E+02  0.22483274801E+02  0.27755016813E+02  0.51100000000E-03 0. -1.
        -11    1    3    3    0    0 -0.53923128342E+01 -0.56293234955E+01  0.88679431291E+00  0.78455544822E+01  0.51100000000E-03 0.  1.
        -12    1    3    3    0    0  0.17891661617E+02 -0.26215363934E+02 -0.18744976361E+02  0.36860968522E+02  0.00000000000E+00 0.  1.
</event>
<event>
 7    1  0.1692604E-013  0.7246157E+02  0.7816164E-02  0.1226708E+00
        -11   -1    0    0    0    0  0.00000000000E+00  0.00000000000E+00  0.45593999997E+02  0.45594000000E+02  0.51100000000E-03 0. -1.
         11   -1    0    0    0    0 -0.00000000000E+00 -0.00000000000E+00 -0.45593999997E+02  0.45594000000E+02  0.51100000000E-03 0.  1.
    9900012    2    1    2    0    0  0.11621596211E+02  0.12480190299E+02 -0.77370800270E+01  0.72461573333E+02  0.70000003958E+02 0.  0.
         12    1    1    2    0    0 -0.11621596211E+02 -0.12480190299E+02  0.77370800270E+01  0.18726426667E+02  0.00000000000E+00 0. -1.
         11    1    3    3    0    0 -0.20854089954E+00  0.25324240035E+02 -0.10859141580E+02  0.27555064485E+02  0.51100000000E-03 0. -1.
        -11    1    3    3    0    0  0.17894548015E+01 -0.24073455512E+01 -0.18577435709E+02  0.18818038657E+02  0.51100000000E-03 0.  1.
         12    1    3    3    0    0  0.10040682309E+02 -0.10436704186E+02  0.21699497262E+02  0.26088470191E+02  0.00000000000E+00 0. -1.
</event>
<event>
 7    1  0.1692604E-013  0.7246157E+02  0.7816164E-02  0.1226708E+00
        -11   -1    0    0    0    0  0.00000000000E+00  0.00000000000E+00  0.45593999997E+02  0.45594000000E+02  0.51100000000E-03 0. -1.
         11   -1    0    0    0    0 -0.00000000000E+00 -0.00000000000E+00 -0.45593999997E+02  0.45594000000E+02  0.51100000000E-03 0.  1.
    9900012    2    1    2    0    0 -0.97137970622E+00 -0.33818790994E+00 -0.18698157853E+02  0.72461573307E+02  0.70000003925E+02 0.  0.
         12    1    1    2    0    0  0.97137970622E+00  0.33818790994E+00  0.18698157853E+02  0.18726426693E+02  0.00000000000E+00 0. -1.
         11    1    3    3    0    0 -0.11437541864E+02 -0.96056999722E+01 -0.31788639303E+02  0.35122705260E+02  0.51100000000E-03 0.  1.
        -11    1    3    3    0    0  0.15922067672E+02  0.17815942192E+02  0.51101182164E+01  0.24434265767E+02  0.51100000000E-03 0. -1.
        -12    1    3    3    0    0 -0.54559055143E+01 -0.85484301296E+01  0.79803632337E+01  0.12904602280E+02  0.00000000000E+00 0.  1.
</event>
<event>
 7    1  0.1692604E-013  0.7246156E+02  0.7816164E-02  0.1226708E+00
        -11   -1    0    0    0    0  0.00000000000E+00  0.00000000000E+00  0.45593999997E+02  0.45594000000E+02  0.51100000000E-03 0. -1.
         11   -1    0    0    0    0 -0.00000000000E+00 -0.00000000000E+00 -0.45593999997E+02  0.45594000000E+02  0.51100000000E-03 0.  1.
    9900012    2    1    2    0    0 -0.28853224674E+01  0.18502268515E+02 -0.14314066391E+00  0.72461561065E+02  0.69999987977E+02 0.  0.
         12    1    1    2    0    0  0.28853224674E+01 -0.18502268515E+02  0.14314066391E+00  0.18726438935E+02  0.00000000000E+00 0. -1.
         11    1    3    3    0    0 -0.14203028938E+02 -0.19095800022E+01  0.81424482440E+01  0.16482475253E+02  0.51100000000E-03 0. -1.
        -11    1    3    3    0    0 -0.99789024140E+01  0.30277951200E+02 -0.53377138983E+01  0.32323737596E+02  0.51100000000E-03 0.  1.
        -12    1    3    3    0    0  0.21296608884E+02 -0.98661026828E+01 -0.29478750096E+01  0.23655348216E+02  0.00000000000E+00 0.  1.
</event>
<event>
 7    1  0.1692604E-013  0.7246159E+02  0.7816164E-02  0.1226708E+00
        -11   -1    0    0    0    0  0.00000000000E+00  0.00000000000E+00  0.45593999997E+02  0.45594000000E+02  0.51100000000E-03 0.  1.
         11   -1    0    0    0    0 -0.00000000000E+00 -0.00000000000E+00 -0.45593999997E+02  0.45594000000E+02  0.51100000000E-03 0. -1.
    9900012    2    1    2    0    0  0.18394999922E+02 -0.33329900289E+01 -0.10925843104E+01  0.72461585898E+02  0.70000020326E+02 0.  0.
         12    1    1    2    0    0 -0.18394999922E+02  0.33329900289E+01  0.10925843104E+01  0.18726414102E+02  0.00000000000E+00 0. -1.
         11    1    3    3    0    0  0.20335612026E+01  0.12556210157E+02 -0.11304688838E+02  0.17017337473E+02  0.51100000000E-03 0. -1.
        -11    1    3    3    0    0  0.20896064695E+02  0.90578569103E+01 -0.80944908276E+01  0.24170458696E+02  0.51100000000E-03 0.  1.
        -12    1    3    3    0    0 -0.45346259760E+01 -0.24947057097E+02  0.18306595355E+02  0.31273789729E+02  0.00000000000E+00 0.  1.
</event>
<event>
 7    1  0.1692604E-013  0.7246159E+02  0.7816164E-02  0.1226708E+00
        -11   -1    0    0    0    0  0.00000000000E+00  0.00000000000E+00  0.45593999997E+02  0.45594000000E+02  0.51100000000E-03 0. -1.
         11   -1    0    0    0    0 -0.00000000000E+00 -0.00000000000E+00 -0.45593999997E+02  0.45594000000E+02  0.51100000000E-03 0.  1.
    9900012    2    1    2    0    0 -0.13537613622E+02  0.10650541802E+02 -0.73469314360E+01  0.72461590179E+02  0.70000025904E+02 0.  0.
         12    1    1    2    0    0  0.13537613622E+02 -0.10650541802E+02  0.73469314360E+01  0.18726409821E+02  0.00000000000E+00 0. -1.
         11    1    3    3    0    0  0.14926128187E+02 -0.10784533611E+02 -0.10386940747E+02  0.21141996269E+02  0.51100000000E-03 0. -1.
        -11    1    3    3    0    0  0.78428449147E+01 -0.63916569235E+00 -0.29608635500E+01  0.84074646809E+01  0.51100000000E-03 0.  1.
        -12    1    3    3    0    0 -0.36306586724E+02  0.22074241106E+02  0.60008728610E+01  0.42912129230E+02  0.00000000000E+00 0.  1.
</event>
<event>
 7    1  0.1692604E-013  0.7246150E+02  0.7816164E-02  0.1226708E+00
        -11   -1    0    0    0    0  0.00000000000E+00  0.00000000000E+00  0.45593999997E+02  0.45594000000E+02  0.51100000000E-03 0.  1.
         11   -1    0    0    0    0 -0.00000000000E+00 -0.00000000000E+00 -0.45593999997E+02  0.45594000000E+02  0.51100000000E-03 0. -1.
    9900012    2    1    2    0    0  0.33065269360E+00  0.17187037835E+02  0.74281947821E+01  0.72461503305E+02  0.69999912735E+02 0.  0.
         12    1    1    2    0    0 -0.33065269360E+00 -0.17187037835E+02 -0.74281947821E+01  0.18726496695E+02  0.00000000000E+00 0. -1.
         11    1    3    3    0    0  0.14107855942E+02 -0.61183465191E+01  0.19124391321E+02  0.24539928832E+02  0.51100000000E-03 0. -1.
        -11    1    3    3    0    0 -0.11314387255E+02 -0.84412734694E+01 -0.35714092193E+00  0.14120835905E+02  0.51100000000E-03 0.  1.
         12    1    3    3    0    0 -0.24628159933E+01  0.31746657823E+02 -0.11339055617E+02  0.33800738569E+02  0.00000000000E+00 0. -1.
</event>
<event>
 7    1  0.1692604E-013  0.7246150E+02  0.7816164E-02  0.1226708E+00
        -11   -1    0    0    0    0  0.00000000000E+00  0.00000000000E+00  0.45593999997E+02  0.45594000000E+02  0.51100000000E-03 0. -1.
         11   -1    0    0    0    0 -0.00000000000E+00 -0.00000000000E+00 -0.45593999997E+02  0.45594000000E+02  0.51100000000E-03 0.  1.
    9900012    2    1    2    0    0 -0.18373650726E+02  0.31984932326E+00 -0.36039277791E+01  0.72461504332E+02  0.69999914071E+02 0.  0.
         12    1    1    2    0    0  0.18373650726E+02 -0.31984932326E+00  0.36039277791E+01  0.18726495668E+02  0.00000000000E+00 0. -1.
         11    1    3    3    0    0 -0.20273508100E+02 -0.27055704684E+02  0.36380167989E+01  0.34003844681E+02  0.51100000000E-03 0. -1.
        -11    1    3    3    0    0 -0.78155917379E+01 -0.80699840625E+00 -0.37102317056E+00  0.78658997639E+01  0.51100000000E-03 0.  1.
        -12    1    3    3    0    0  0.97154491120E+01  0.28182552413E+02 -0.68709214074E+01  0.30591759887E+02  0.00000000000E+00 0.  1.
</event>
<event>
 7    1  0.1692604E-013  0.7246150E+02  0.7816164E-02  0.1226708E+00
        -11   -1    0    0    0    0  0.00000000000E+00  0.00000000000E+00  0.45593999997E+02  0.45594000000E+02  0.51100000000E-03 0.  1.
         11   -1    0    0    0    0 -0.00000000000E+00 -0.00000000000E+00 -0.45593999997E+02  0.45594000000E+02  0.51100000000E-03 0. -1.
    9900012    2    1    2    0    0 -0.18654912994E+02 -0.12092165955E+01  0.11017492136E+01  0.72461499127E+02  0.69999907292E+02 0.  0.
         12    1    1    2    0    0  0.18654912994E+02  0.12092165955E+01 -0.11017492136E+01  0.18726500873E+02  0.00000000000E+00 0. -1.
         11    1    3    3    0    0 -0.13143089074E+02  0.57814110112E+01 -0.25309587862E+02  0.29098809970E+02  0.51100000000E-03 0. -1.
        -11    1    3    3    0    0 -0.21380137604E+01  0.85786851509E+01 -0.34718782642E+01  0.94983620009E+01  0.51100000000E-03 0.  1.
        -12    1    3    3    0    0 -0.33738101599E+01 -0.15569312758E+02  0.29883215339E+02  0.33864327156E+02  0.00000000000E+00 0.  1.
</event>
<event>
 7    1  0.1692604E-013  0.7246157E+02  0.7816164E-02  0.1226708E+00
        -11   -1    0    0    0    0  0.00000000000E+00  0.00000000000E+00  0.45593999997E+02  0.45594000000E+02  0.51100000000E-03 0.  1.
         11   -1    0    0    0    0 -0.00000000000E+00 -0.00000000000E+00 -0.45593999997E+02  0.45594000000E+02  0.51100000000E-03 0. -1.
    9900012    2    1    2    0    0  0.40452583852E+01  0.39280788435E+01  0.17857355513E+02  0.72461573092E+02  0.70000003645E+02 0.  0.
         12    1    1    2    0    0 -0.40452583852E+01 -0.39280788435E+01 -0.17857355513E+02  0.18726426908E+02  0.00000000000E+00 0. -1.
         11    1    3    3    0    0  0.12698918671E+02 -0.10154624577E+02  0.43334868242E+01  0.16827300557E+02  0.51100000000E-03 0. -1.
        -11    1    3    3    0    0  0.14900393788E+02  0.82663993451E+01  0.23812566564E+02  0.29281281047E+02  0.51100000000E-03 0.  1.
         12    1    3    3    0    0 -0.23554054074E+02  0.58163040751E+01 -0.10288697874E+02  0.26352991488E+02  0.00000000000E+00 0. -1.
</event>
<event>
 7    1  0.1692604E-013  0.7246157E+02  0.7816164E-02  0.1226708E+00
        -11   -1    0    0    0    0  0.00000000000E+00  0.00000000000E+00  0.45593999997E+02  0.45594000000E+02  0.51100000000E-03 0. -1.
         11   -1    0    0    0    0 -0.00000000000E+00 -0.00000000000E+00 -0.45593999997E+02  0.45594000000E+02  0.51100000000E-03 0.  1.
    9900012    2    1    2    0    0  0.13808585395E+02  0.54074755352E+01 -0.11435090852E+02  0.72461571481E+02  0.70000001546E+02 0.  0.
         12    1    1    2    0    0 -0.13808585395E+02 -0.54074755352E+01  0.11435090852E+02  0.18726428519E+02  0.00000000000E+00 0. -1.
         11    1    3    3    0    0  0.69981019139E+01 -0.25083997061E+02 -0.24338718637E+00  0.26043033167E+02  0.51100000000E-03 0. -1.
        -11    1    3    3    0    0 -0.36111224721E+01 -0.36263443908E+01 -0.93960486241E+01  0.10699360222E+02  0.51100000000E-03 0.  1.
        -12    1    3    3    0    0  0.10421605953E+02  0.34117816987E+02 -0.17956550418E+01  0.35719178093E+02  0.00000000000E+00 0.  1.
</event>
<event>
 7    1  0.1692604E-013  0.7246188E+02  0.7816164E-02  0.1226707E+00
        -11   -1    0    0    0    0  0.00000000000E+00  0.00000000000E+00  0.45593999997E+02  0.45594000000E+02  0.51100000000E-03 0. -1.
         11   -1    0    0    0    0 -0.00000000000E+00 -0.00000000000E+00 -0.45593999997E+02  0.45594000000E+02  0.51100000000E-03 0.  1.
    9900012    2    1    2    0    0  0.50137394040E+01  0.93514610482E+01 -0.15429850263E+02  0.72461876918E+02  0.70000399433E+02 0.  0.
         12    1    1    2    0    0 -0.50137394040E+01 -0.93514610482E+01  0.15429850263E+02  0.18726123082E+02  0.00000000000E+00 0. -1.
         11    1    3    3    0    0 -0.38503363701E+01  0.12224579776E+02 -0.13794565706E+02  0.18829643760E+02  0.51100000000E-03 0. -1.
        -11    1    3    3    0    0 -0.14109907829E+01  0.19612123978E+02 -0.15724902714E+02  0.25177348303E+02  0.51100000000E-03 0.  1.
         12    1    3    3    0    0  0.10275066557E+02 -0.22485242706E+02  0.14089618158E+02  0.28454884855E+02  0.00000000000E+00 0. -1.
</event>
<event>
 7    1  0.1692604E-013  0.7246154E+02  0.7816164E-02  0.1226708E+00
        -11   -1    0    0    0    0  0.00000000000E+00  0.00000000000E+00  0.45593999997E+02  0.45594000000E+02  0.51100000000E-03 0. -1.
         11   -1    0    0    0    0 -0.00000000000E+00 -0.00000000000E+00 -0.45593999997E+02  0.45594000000E+02  0.51100000000E-03 0.  1.
    9900012    2    1    2    0    0  0.78313084500E+01 -0.16588980031E+02 -0.37625142458E+01  0.72461543743E+02  0.69999965412E+02 0.  0.
         12    1    1    2    0    0 -0.78313084500E+01  0.16588980031E+02  0.37625142458E+01  0.18726456257E+02  0.00000000000E+00 0. -1.
         11    1    3    3    0    0  0.19515331464E+01 -0.29849554584E+02 -0.67726287405E+00  0.29920947106E+02  0.51100000000E-03 0. -1.
        -11    1    3    3    0    0 -0.13526937316E+02 -0.61981775498E+01  0.57083684802E-01  0.14879472333E+02  0.51100000000E-03 0.  1.
        -12    1    3    3    0    0  0.19406712620E+02  0.19458752103E+02 -0.31423350566E+01  0.27661124303E+02  0.00000000000E+00 0.  1.
</event>
<event>
 7    1  0.1692604E-013  0.7246156E+02  0.7816164E-02  0.1226708E+00
        -11   -1    0    0    0    0  0.00000000000E+00  0.00000000000E+00  0.45593999997E+02  0.45594000000E+02  0.51100000000E-03 0.  1.
         11   -1    0    0    0    0 -0.00000000000E+00 -0.00000000000E+00 -0.45593999997E+02  0.45594000000E+02  0.51100000000E-03 0. -1.
    9900012    2    1    2    0    0  0.49260015389E+01  0.11310385061E+02  0.14088624217E+02  0.72461557900E+02  0.69999983854E+02 0.  0.
         12    1    1    2    0    0 -0.49260015389E+01 -0.11310385061E+02 -0.14088624217E+02  0.18726442100E+02  0.00000000000E+00 0. -1.
         11    1    3    3    0    0  0.11376588515E+02 -0.29017288234E+01  0.57003850221E+01  0.13051482140E+02  0.51100000000E-03 0. -1.
        -11    1    3    3    0    0 -0.22733651661E+02  0.98214982955E-01  0.23803324837E+02  0.32915449831E+02  0.51100000000E-03 0.  1.
         12    1    3    3    0    0  0.16283064685E+02  0.14113898902E+02 -0.15415085642E+02  0.26494625928E+02  0.00000000000E+00 0. -1.
</event>
<event>
 7    1  0.1692604E-013  0.7246160E+02  0.7816164E-02  0.1226708E+00
        -11   -1    0    0    0    0  0.00000000000E+00  0.00000000000E+00  0.45593999997E+02  0.45594000000E+02  0.51100000000E-03 0. -1.
         11   -1    0    0    0    0 -0.00000000000E+00 -0.00000000000E+00 -0.45593999997E+02  0.45594000000E+02  0.51100000000E-03 0.  1.
    9900012    2    1    2    0    0  0.16528753266E+02 -0.44539490343E+01 -0.75921379794E+01  0.72461604041E+02  0.70000043961E+02 0.  0.
         12    1    1    2    0    0 -0.16528753266E+02  0.44539490343E+01  0.75921379794E+01  0.18726395959E+02  0.00000000000E+00 0. -1.
         11    1    3    3    0    0  0.59905091321E+01  0.13754221656E+02  0.14464758178E+01  0.15071732003E+02  0.51100000000E-03 0. -1.
        -11    1    3    3    0    0 -0.54938681476E+01  0.16346230875E+02 -0.86564654368E+01  0.19295498055E+02  0.51100000000E-03 0.  1.
         12    1    3    3    0    0  0.16032112281E+02 -0.34554401566E+02 -0.38214836033E+00  0.38094373983E+02  0.00000000000E+00 0. -1.
</event>
<event>
 7    1  0.1692604E-013  0.7246156E+02  0.7816164E-02  0.1226708E+00
        -11   -1    0    0    0    0  0.00000000000E+00  0.00000000000E+00  0.45593999997E+02  0.45594000000E+02  0.51100000000E-03 0.  1.
         11   -1    0    0    0    0 -0.00000000000E+00 -0.00000000000E+00 -0.45593999997E+02  0.45594000000E+02  0.51100000000E-03 0. -1.
    9900012    2    1    2    0    0 -0.18207279139E+02 -0.41985368977E+01  0.12436529919E+01  0.72461564180E+02  0.69999992036E+02 0.  0.
         12    1    1    2    0    0  0.18207279139E+02  0.41985368977E+01 -0.12436529919E+01  0.18726435820E+02  0.00000000000E+00 0. -1.
         11    1    3    3    0    0  0.87778667370E+01  0.13921944924E+01 -0.16311958700E+02  0.18576036899E+02  0.51100000000E-03 0. -1.
        -11    1    3    3    0    0  0.19236621060E+01  0.75484360112E+01  0.20562799973E+02  0.21988817729E+02  0.51100000000E-03 0.  1.
         12    1    3    3    0    0 -0.28908807982E+02 -0.13139167401E+02 -0.30071882808E+01  0.31896709553E+02  0.00000000000E+00 0. -1.
</event>
<event>
 7    1  0.1692604E-013  0.7246158E+02  0.7816164E-02  0.1226708E+00
        -11   -1    0    0    0    0  0.00000000000E+00  0.00000000000E+00  0.45593999997E+02  0.45594000000E+02  0.51100000000E-03 0.  1.
         11   -1    0    0    0    0 -0.00000000000E+00 -0.00000000000E+00 -0.45593999997E+02  0.45594000000E+02  0.51100000000E-03 0. -1.
    9900012    2    1    2    0    0 -0.23962265995E+01 -0.86768289953E+01  0.16421011889E+02  0.72461577630E+02  0.70000009555E+02 0.  0.
         12    1    1    2    0    0  0.23962265995E+01  0.86768289953E+01 -0.16421011889E+02  0.18726422370E+02  0.00000000000E+00 0. -1.
         11    1    3    3    0    0  0.63715721294E+01 -0.25006281568E+02 -0.11061282037E+02  0.28076021973E+02  0.51100000000E-03 0. -1.
        -11    1    3    3    0    0  0.82190525870E+01 -0.20225899634E+01  0.20304918137E+01  0.87044007751E+01  0.51100000000E-03 0.  1.
        -12    1    3    3    0    0 -0.16986851316E+02  0.18352042536E+02  0.25451802113E+02  0.35681154881E+02  0.00000000000E+00 0.  1.
</event>
<event>
 7    1  0.1692604E-013  0.7246143E+02  0.7816164E-02  0.1226708E+00
        -11   -1    0    0    0    0  0.00000000000E+00  0.00000000000E+00  0.45593999997E+02  0.45594000000E+02  0.51100000000E-03 0.  1.
         11   -1    0    0    0    0 -0.00000000000E+00 -0.00000000000E+00 -0.45593999997E+02  0.45594000000E+02  0.51100000000E-03 0. -1.
    9900012    2    1    2    0    0 -0.14360088855E+02  0.50162641489E+01  0.10922874192E+02  0.72461434950E+02  0.69999823689E+02 0.  0.
         12    1    1    2    0    0  0.14360088855E+02 -0.50162641489E+01 -0.10922874192E+02  0.18726565050E+02  0.00000000000E+00 0. -1.
         11    1    3    3    0    0 -0.53148907420E+00  0.12058716498E+01  0.49445221621E+01  0.51171189887E+01  0.51100000000E-03 0. -1.
        -11    1    3    3    0    0 -0.13546182512E+02  0.26340185910E+02  0.24293636713E+02  0.38307769961E+02  0.51100000000E-03 0.  1.
         12    1    3    3    0    0 -0.28241726876E+00 -0.22529793411E+02 -0.18315284682E+02  0.29036546000E+02  0.00000000000E+00 0. -1.
</event>
<event>
 7    1  0.1692604E-013  0.7246157E+02  0.7816164E-02  0.1226708E+00
        -11   -1    0    0    0    0  0.00000000000E+00  0.00000000000E+00  0.45593999997E+02  0.45594000000E+02  0.51100000000E-03 0.  1.
         11   -1    0    0    0    0 -0.00000000000E+00 -0.00000000000E+00 -0.45593999997E+02  0.45594000000E+02  0.51100000000E-03 0. -1.
    9900012    2    1    2    0    0 -0.11533873150E+02 -0.12880969775E+02 -0.71923253643E+01  0.72461570646E+02  0.70000000459E+02 0.  0.
         12    1    1    2    0    0  0.11533873150E+02  0.12880969775E+02  0.71923253643E+01  0.18726429354E+02  0.00000000000E+00 0. -1.
         11    1    3    3    0    0  0.57712780983E+01 -0.46710170565E+01 -0.66623176012E+01  0.99755965892E+01  0.51100000000E-03 0. -1.
        -11    1    3    3    0    0 -0.48992481186E+00  0.33393524928E+01  0.27562374735E+02  0.27768251704E+02  0.51100000000E-03 0.  1.
         12    1    3    3    0    0 -0.16815226436E+02 -0.11549305212E+02 -0.28092382498E+02  0.34717722353E+02  0.00000000000E+00 0. -1.
</event>
<event>
 7    1  0.1692604E-013  0.7246160E+02  0.7816164E-02  0.1226708E+00
        -11   -1    0    0    0    0  0.00000000000E+00  0.00000000000E+00  0.45593999997E+02  0.45594000000E+02  0.51100000000E-03 0. -1.
         11   -1    0    0    0    0 -0.00000000000E+00 -0.00000000000E+00 -0.45593999997E+02  0.45594000000E+02  0.51100000000E-03 0.  1.
    9900012    2    1    2    0    0 -0.98812835838E+01 -0.21356919978E+01 -0.15763156711E+02  0.72461600050E+02  0.70000038762E+02 0.  0.
         12    1    1    2    0    0  0.98812835838E+01  0.21356919978E+01  0.15763156711E+02  0.18726399950E+02  0.00000000000E+00 0. -1.
         11    1    3    3    0    0  0.35160141386E+01 -0.20966592706E+02 -0.31723076635E+02  0.38187877089E+02  0.51100000000E-03 0. -1.
        -11    1    3    3    0    0  0.27021713710E+01 -0.24076762503E+01  0.26388195848E+01  0.44790628603E+01  0.51100000000E-03 0.  1.
        -12    1    3    3    0    0 -0.16099469093E+02  0.21238576958E+02  0.13321100339E+02  0.29794660101E+02  0.00000000000E+00 0.  1.
</event>
<event>
 7    1  0.1692604E-013  0.7246153E+02  0.7816164E-02  0.1226708E+00
        -11   -1    0    0    0    0  0.00000000000E+00  0.00000000000E+00  0.45593999997E+02  0.45594000000E+02  0.51100000000E-03 0.  1.
         11   -1    0    0    0    0 -0.00000000000E+00 -0.00000000000E+00 -0.45593999997E+02  0.45594000000E+02  0.51100000000E-03 0. -1.
    9900012    2    1    2    0    0  0.22104921411E+01 -0.18547025057E+02  0.13424204137E+01  0.72461534596E+02  0.69999953496E+02 0.  0.
         12    1    1    2    0    0 -0.22104921411E+01  0.18547025057E+02 -0.13424204137E+01  0.18726465404E+02  0.00000000000E+00 0. -1.
         11    1    3    3    0    0 -0.99180559997E+01  0.54120538479E+01 -0.10082096779E+02  0.15142880749E+02  0.51100000000E-03 0. -1.
        -11    1    3    3    0    0 -0.19187724275E+01 -0.24840128946E+01 -0.18002674544E+02  0.18274252343E+02  0.51100000000E-03 0.  1.
        -12    1    3    3    0    0  0.14047320568E+02 -0.21475066010E+02  0.29427191737E+02  0.39044401504E+02  0.00000000000E+00 0.  1.
</event>
<event>
 7    1  0.1692604E-013  0.7246163E+02  0.7816164E-02  0.1226708E+00
        -11   -1    0    0    0    0  0.00000000000E+00  0.00000000000E+00  0.45593999997E+02  0.45594000000E+02  0.51100000000E-03 0.  1.
         11   -1    0    0    0    0 -0.00000000000E+00 -0.00000000000E+00 -0.45593999997E+02  0.45594000000E+02  0.51100000000E-03 0. -1.
    9900012    2    1    2    0    0  0.17258899020E+02  0.72435339364E+01  0.58201374052E+00  0.72461625036E+02  0.70000071312E+02 0.  0.
         12    1    1    2    0    0 -0.17258899020E+02 -0.72435339364E+01 -0.58201374052E+00  0.18726374964E+02  0.00000000000E+00 0. -1.
         11    1    3    3    0    0  0.61351398861E+01 -0.12703213880E+02  0.34153428617E+01  0.14514687438E+02  0.51100000000E-03 0. -1.
        -11    1    3    3    0    0  0.80498035363E+01 -0.17513496823E+02 -0.61050803140E+01  0.20218652622E+02  0.51100000000E-03 0.  1.
        -12    1    3    3    0    0  0.30739555979E+01  0.37460244639E+02  0.32717511928E+01  0.37728284977E+02  0.00000000000E+00 0.  1.
</event>
<event>
 7    1  0.1692604E-013  0.7246157E+02  0.7816164E-02  0.1226708E+00
        -11   -1    0    0    0    0  0.00000000000E+00  0.00000000000E+00  0.45593999997E+02  0.45594000000E+02  0.51100000000E-03 0.  1.
         11   -1    0    0    0    0 -0.00000000000E+00 -0.00000000000E+00 -0.45593999997E+02  0.45594000000E+02  0.51100000000E-03 0. -1.
    9900012    2    1    2    0    0 -0.67041908305E+01 -0.15527075143E+02  0.80400939196E+01  0.72461565545E+02  0.69999993813E+02 0.  0.
         12    1    1    2    0    0  0.67041908305E+01  0.15527075143E+02 -0.80400939196E+01  0.18726434455E+02  0.00000000000E+00 0. -1.
         11    1    3    3    0    0  0.80517126804E+01 -0.14661825799E+02  0.29983245928E+01  0.16993797795E+02  0.51100000000E-03 0. -1.
        -11    1    3    3    0    0 -0.34403830744E+02  0.23395609249E+01  0.78432950285E+01  0.35364026812E+02  0.51100000000E-03 0.  1.
         12    1    3    3    0    0  0.19647927233E+02 -0.32048102681E+01 -0.28015257017E+01  0.20103740938E+02  0.00000000000E+00 0. -1.
</event>
<event>
 7    1  0.1692604E-013  0.7246156E+02  0.7816164E-02  0.1226708E+00
        -11   -1    0    0    0    0  0.00000000000E+00  0.00000000000E+00  0.45593999997E+02  0.45594000000E+02  0.51100000000E-03 0.  1.
         11   -1    0    0    0    0 -0.00000000000E+00 -0.00000000000E+00 -0.45593999997E+02  0.45594000000E+02  0.51100000000E-03 0. -1.
    9900012    2    1    2    0    0  0.49141710788E+01  0.16284823846E+02  0.78316578445E+01  0.72461563348E+02  0.69999990952E+02 0.  0.
         12    1    1    2    0    0 -0.49141710788E+01 -0.16284823846E+02 -0.78316578445E+01  0.18726436652E+02  0.00000000000E+00 0. -1.
         11    1    3    3    0    0 -0.33531484167E+01 -0.10647111352E+01 -0.48876888961E+00  0.35519162989E+01  0.51100000000E-03 0. -1.
        -11    1    3    3    0    0 -0.12694608861E+02 -0.19675057984E+02 -0.57247209900E+01  0.24104635062E+02  0.51100000000E-03 0.  1.
         12    1    3    3    0    0  0.20961928356E+02  0.37024592965E+02  0.14045147724E+02  0.44805011988E+02  0.00000000000E+00 0. -1.
</event>
<event>
 7    1  0.1692604E-013  0.7246155E+02  0.7816164E-02  0.1226708E+00
        -11   -1    0    0    0    0  0.00000000000E+00  0.00000000000E+00  0.45593999997E+02  0.45594000000E+02  0.51100000000E-03 0. -1.
         11   -1    0    0    0    0 -0.00000000000E+00 -0.00000000000E+00 -0.45593999997E+02  0.45594000000E+02  0.51100000000E-03 0.  1.
    9900012    2    1    2    0    0  0.14191006486E+02  0.12201290068E+02  0.65109634534E+00  0.72461546229E+02  0.69999968650E+02 0.  0.
         12    1    1    2    0    0 -0.14191006486E+02 -0.12201290068E+02 -0.65109634534E+00  0.18726453771E+02  0.00000000000E+00 0. -1.
         11    1    3    3    0    0  0.16369232381E+02 -0.66347858383E+01  0.82722534701E+01  0.19503905496E+02  0.51100000000E-03 0. -1.
        -11    1    3    3    0    0  0.13734241186E+02  0.13234173058E+01  0.14888545064E+02  0.20299004623E+02  0.51100000000E-03 0.  1.
        -12    1    3    3    0    0 -0.15912467082E+02  0.17512658601E+02 -0.22509702189E+02  0.32658636109E+02  0.00000000000E+00 0.  1.
</event>
<event>
 7    1  0.1692604E-013  0.7246157E+02  0.7816164E-02  0.1226708E+00
        -11   -1    0    0    0    0  0.00000000000E+00  0.00000000000E+00  0.45593999997E+02  0.45594000000E+02  0.51100000000E-03 0.  1.
         11   -1    0    0    0    0 -0.00000000000E+00 -0.00000000000E+00 -0.45593999997E+02  0.45594000000E+02  0.51100000000E-03 0. -1.
    9900012    2    1    2    0    0  0.14912854630E+01 -0.12243510337E+02  0.14090840789E+02  0.72461567562E+02  0.69999996441E+02 0.  0.
         12    1    1    2    0    0 -0.14912854630E+01  0.12243510337E+02 -0.14090840789E+02  0.18726432438E+02  0.00000000000E+00 0. -1.
         11    1    3    3    0    0  0.66726359893E+01  0.13186694502E+02 -0.38849638525E+01  0.15280900737E+02  0.51100000000E-03 0. -1.
        -11    1    3    3    0    0  0.27219149083E+00  0.13898728853E+02  0.87229631835E+01  0.16411545902E+02  0.51100000000E-03 0.  1.
        -12    1    3    3    0    0 -0.54535420171E+01 -0.39328933691E+02  0.92528414581E+01  0.40769120924E+02  0.00000000000E+00 0.  1.
</event>
<event>
 7    1  0.1692604E-013  0.7246164E+02  0.7816164E-02  0.1226708E+00
        -11   -1    0    0    0    0  0.00000000000E+00  0.00000000000E+00  0.45593999997E+02  0.45594000000E+02  0.51100000000E-03 0.  1.
         11   -1    0    0    0    0 -0.00000000000E+00 -0.00000000000E+00 -0.45593999997E+02  0.45594000000E+02  0.51100000000E-03 0. -1.
    9900012    2    1    2    0    0  0.29648753824E+01 -0.14064312486E+02  0.12003379474E+02  0.72461641824E+02  0.70000093181E+02 0.  0.
         12    1    1    2    0    0 -0.29648753824E+01  0.14064312486E+02 -0.12003379474E+02  0.18726358176E+02  0.00000000000E+00 0. -1.
         11    1    3    3    0    0 -0.27722193235E+02 -0.18967530562E+01 -0.10582722857E+01  0.27807150346E+02  0.51100000000E-03 0. -1.
        -11    1    3    3    0    0  0.10949347388E+02  0.14006586716E+01 -0.72863732726E+01  0.13226537289E+02  0.51100000000E-03 0.  1.
         12    1    3    3    0    0  0.19737721229E+02 -0.13568218101E+02  0.20348025032E+02  0.31427954188E+02  0.00000000000E+00 0. -1.
</event>
<event>
 7    1  0.1692604E-013  0.7246159E+02  0.7816164E-02  0.1226708E+00
        -11   -1    0    0    0    0  0.00000000000E+00  0.00000000000E+00  0.45593999997E+02  0.45594000000E+02  0.51100000000E-03 0.  1.
         11   -1    0    0    0    0 -0.00000000000E+00 -0.00000000000E+00 -0.45593999997E+02  0.45594000000E+02  0.51100000000E-03 0. -1.
    9900012    2    1    2    0    0  0.49633333929E+01  0.15765046351E+02 -0.88038073024E+01  0.72461591165E+02  0.70000027188E+02 0.  0.
         12    1    1    2    0    0 -0.49633333929E+01 -0.15765046351E+02  0.88038073024E+01  0.18726408835E+02  0.00000000000E+00 0. -1.
         11    1    3    3    0    0  0.13855594523E+02  0.17079639001E+01 -0.30051580754E+02  0.33135964545E+02  0.51100000000E-03 0. -1.
        -11    1    3    3    0    0  0.71452549494E+01 -0.24502751021E+01  0.12695796338E+02  0.14773007862E+02  0.51100000000E-03 0.  1.
        -12    1    3    3    0    0 -0.16037516079E+02  0.16507357553E+02  0.85519771130E+01  0.24552618759E+02  0.00000000000E+00 0.  1.
</event>
<event>
 7    1  0.1692604E-013  0.7246147E+02  0.7816164E-02  0.1226708E+00
        -11   -1    0    0    0    0  0.00000000000E+00  0.00000000000E+00  0.45593999997E+02  0.45594000000E+02  0.51100000000E-03 0.  1.
         11   -1    0    0    0    0 -0.00000000000E+00 -0.00000000000E+00 -0.45593999997E+02  0.45594000000E+02  0.51100000000E-03 0. -1.
    9900012    2    1    2    0    0 -0.11801723810E+02  0.25723727808E+01  0.14310312321E+02  0.72461472684E+02  0.69999872844E+02 0.  0.
         12    1    1    2    0    0  0.11801723810E+02 -0.25723727808E+01 -0.14310312321E+02  0.18726527316E+02  0.00000000000E+00 0. -1.
         11    1    3    3    0    0 -0.55209866392E+01 -0.27386721241E+01  0.78591025001E+01  0.99873475379E+01  0.51100000000E-03 0. -1.
        -11    1    3    3    0    0 -0.19104539774E+01 -0.26647152979E+02 -0.68561169104E+01  0.27581278717E+02  0.51100000000E-03 0.  1.
        -12    1    3    3    0    0 -0.43702831929E+01  0.31958197884E+02  0.13307326731E+02  0.34892846429E+02  0.00000000000E+00 0.  1.
</event>
<event>
 7    1  0.1692604E-013  0.7246166E+02  0.7816164E-02  0.1226708E+00
        -11   -1    0    0    0    0  0.00000000000E+00  0.00000000000E+00  0.45593999997E+02  0.45594000000E+02  0.51100000000E-03 0. -1.
         11   -1    0    0    0    0 -0.00000000000E+00 -0.00000000000E+00 -0.45593999997E+02  0.45594000000E+02  0.51100000000E-03 0.  1.
    9900012    2    1    2    0    0 -0.16018309995E+02 -0.94252674843E+01  0.22921609226E+01  0.72461656952E+02  0.70000112888E+02 0.  0.
         12    1    1    2    0    0  0.16018309995E+02  0.94252674843E+01 -0.22921609226E+01  0.18726343048E+02  0.00000000000E+00 0. -1.
         11    1    3    3    0    0 -0.12494611048E+02 -0.22189241401E+01  0.22452126283E+02  0.25790248243E+02  0.51100000000E-03 0. -1.
        -11    1    3    3    0    0 -0.85439950742E+01  0.14187106922E+02  0.41730650612E+00  0.16566472154E+02  0.51100000000E-03 0.  1.
        -12    1    3    3    0    0  0.50202961274E+01 -0.21393450266E+02 -0.20577271866E+02  0.30104936555E+02  0.00000000000E+00 0.  1.
</event>
<event>
 7    1  0.1692604E-013  0.7246156E+02  0.7816164E-02  0.1226708E+00
        -11   -1    0    0    0    0  0.00000000000E+00  0.00000000000E+00  0.45593999997E+02  0.45594000000E+02  0.51100000000E-03 0. -1.
         11   -1    0    0    0    0 -0.00000000000E+00 -0.00000000000E+00 -0.45593999997E+02  0.45594000000E+02  0.51100000000E-03 0.  1.
    9900012    2    1    2    0    0 -0.13945489594E+02  0.11549587894E+02 -0.47759598345E+01  0.72461562729E+02  0.69999990145E+02 0.  0.
         12    1    1    2    0    0  0.13945489594E+02 -0.11549587894E+02  0.47759598345E+01  0.18726437271E+02  0.00000000000E+00 0. -1.
         11    1    3    3    0    0 -0.46202286443E+01 -0.31058332053E+01 -0.19146457370E+00  0.55704013832E+01  0.51100000000E-03 0. -1.
        -11    1    3    3    0    0 -0.10917607520E+02 -0.24221849746E+02 -0.82217099114E+01  0.27811664338E+02  0.51100000000E-03 0.  1.
         12    1    3    3    0    0  0.15923465700E+01  0.38877270846E+02  0.36372146506E+01  0.39079497008E+02  0.00000000000E+00 0. -1.
</event>
<event>
 7    1  0.1692604E-013  0.7246156E+02  0.7816164E-02  0.1226708E+00
        -11   -1    0    0    0    0  0.00000000000E+00  0.00000000000E+00  0.45593999997E+02  0.45594000000E+02  0.51100000000E-03 0.  1.
         11   -1    0    0    0    0 -0.00000000000E+00 -0.00000000000E+00 -0.45593999997E+02  0.45594000000E+02  0.51100000000E-03 0. -1.
    9900012    2    1    2    0    0  0.77706385156E+01 -0.17028905862E+02 -0.55942455092E+00  0.72461563777E+02  0.69999991509E+02 0.  0.
         12    1    1    2    0    0 -0.77706385156E+01  0.17028905862E+02  0.55942455092E+00  0.18726436223E+02  0.00000000000E+00 0. -1.
         11    1    3    3    0    0  0.64241650496E+01 -0.17642690718E+02 -0.65492937242E+01  0.19885363484E+02  0.51100000000E-03 0. -1.
        -11    1    3    3    0    0  0.21857057210E+02 -0.10421679069E+02  0.13970907527E+02  0.27955833057E+02  0.51100000000E-03 0.  1.
         12    1    3    3    0    0 -0.20510583744E+02  0.11035463925E+02 -0.79810383541E+01  0.24620367235E+02  0.00000000000E+00 0. -1.
</event>
<event>
 7    1  0.1692604E-013  0.7246155E+02  0.7816164E-02  0.1226708E+00
        -11   -1    0    0    0    0  0.00000000000E+00  0.00000000000E+00  0.45593999997E+02  0.45594000000E+02  0.51100000000E-03 0. -1.
         11   -1    0    0    0    0 -0.00000000000E+00 -0.00000000000E+00 -0.45593999997E+02  0.45594000000E+02  0.51100000000E-03 0.  1.
    9900012    2    1    2    0    0 -0.11943560207E+02  0.12646435908E+02 -0.69353393861E+01  0.72461550684E+02  0.69999974454E+02 0.  0.
         12    1    1    2    0    0  0.11943560207E+02 -0.12646435908E+02  0.69353393861E+01  0.18726449316E+02  0.00000000000E+00 0. -1.
         11    1    3    3    0    0  0.28701899293E+01 -0.75993841060E+01 -0.23505822804E+01  0.84565871567E+01  0.51100000000E-03 0. -1.
        -11    1    3    3    0    0  0.14689065974E+02  0.22254457935E+02 -0.17332437903E+02  0.31803191053E+02  0.51100000000E-03 0.  1.
         12    1    3    3    0    0 -0.29502816111E+02 -0.20086379219E+01  0.12747680798E+02  0.32201772474E+02  0.00000000000E+00 0. -1.
</event>
<event>
 7    1  0.1692604E-013  0.7246158E+02  0.7816164E-02  0.1226708E+00
        -11   -1    0    0    0    0  0.00000000000E+00  0.00000000000E+00  0.45593999997E+02  0.45594000000E+02  0.51100000000E-03 0.  1.
         11   -1    0    0    0    0 -0.00000000000E+00 -0.00000000000E+00 -0.45593999997E+02  0.45594000000E+02  0.51100000000E-03 0. -1.
    9900012    2    1    2    0    0  0.10344502124E+02  0.13590918824E+02  0.76783450547E+01  0.72461580656E+02  0.70000013498E+02 0.  0.
         12    1    1    2    0    0 -0.10344502124E+02 -0.13590918824E+02 -0.76783450547E+01  0.18726419344E+02  0.00000000000E+00 0. -1.
         11    1    3    3    0    0 -0.94148267836E+01 -0.17443591742E+01  0.74463392119E+01  0.12129704045E+02  0.51100000000E-03 0. -1.
        -11    1    3    3    0    0 -0.15346836040E+02  0.19604660840E+02 -0.13292725916E+01  0.24932610553E+02  0.51100000000E-03 0.  1.
        -12    1    3    3    0    0  0.35106164947E+02 -0.42693828421E+01  0.15612784344E+01  0.35399266059E+02  0.00000000000E+00 0.  1.
</event>
<event>
 7    1  0.1692604E-013  0.7246145E+02  0.7816164E-02  0.1226708E+00
        -11   -1    0    0    0    0  0.00000000000E+00  0.00000000000E+00  0.45593999997E+02  0.45594000000E+02  0.51100000000E-03 0. -1.
         11   -1    0    0    0    0 -0.00000000000E+00 -0.00000000000E+00 -0.45593999997E+02  0.45594000000E+02  0.51100000000E-03 0.  1.
    9900012    2    1    2    0    0  0.66693480487E+01  0.33862792080E+01 -0.17167893733E+02  0.72461450251E+02  0.69999843621E+02 0.  0.
         12    1    1    2    0    0 -0.66693480487E+01 -0.33862792080E+01  0.17167893733E+02  0.18726549749E+02  0.00000000000E+00 0. -1.
         11    1    3    3    0    0  0.22957003929E+02  0.11047328373E+02  0.12889172300E+00  0.25477129095E+02  0.51100000000E-03 0. -1.
        -11    1    3    3    0    0  0.12908129940E+02 -0.61373871190E+01 -0.75659030878E+01  0.16171896271E+02  0.51100000000E-03 0.  1.
        -12    1    3    3    0    0 -0.29195785820E+02 -0.15236620464E+01 -0.97308823680E+01  0.30812424886E+02  0.00000000000E+00 0.  1.
</event>
<event>
 7    1  0.1692604E-013  0.7246159E+02  0.7816164E-02  0.1226708E+00
        -11   -1    0    0    0    0  0.00000000000E+00  0.00000000000E+00  0.45593999997E+02  0.45594000000E+02  0.51100000000E-03 0.  1.
         11   -1    0    0    0    0 -0.00000000000E+00 -0.00000000000E+00 -0.45593999997E+02  0.45594000000E+02  0.51100000000E-03 0. -1.
    9900012    2    1    2    0    0 -0.77054786180E+01 -0.16856028354E+02  0.26792455589E+01  0.72461589522E+02  0.70000025048E+02 0.  0.
         12    1    1    2    0    0  0.77054786180E+01  0.16856028354E+02 -0.26792455589E+01  0.18726410478E+02  0.00000000000E+00 0. -1.
         11    1    3    3    0    0 -0.21683718507E+01  0.14412306724E+01  0.40809534671E+01  0.48407813208E+01  0.51100000000E-03 0. -1.
        -11    1    3    3    0    0  0.33181429545E+01  0.21778271619E+02  0.11165550886E+02  0.24697625680E+02  0.51100000000E-03 0.  1.
         12    1    3    3    0    0 -0.88552497217E+01 -0.40075530646E+02 -0.12567258795E+02  0.42923182521E+02  0.00000000000E+00 0. -1.
</event>
<event>
 7    1  0.1692604E-013  0.7246159E+02  0.7816164E-02  0.1226708E+00
        -11   -1    0    0    0    0  0.00000000000E+00  0.00000000000E+00  0.45593999997E+02  0.45594000000E+02  0.51100000000E-03 0. -1.
         11   -1    0    0    0    0 -0.00000000000E+00 -0.00000000000E+00 -0.45593999997E+02  0.45594000000E+02  0.51100000000E-03 0.  1.
    9900012    2    1    2    0    0  0.12134918875E+02 -0.25212626197E+01 -0.14037998755E+02  0.72461590030E+02  0.70000025710E+02 0.  0.
         12    1    1    2    0    0 -0.12134918875E+02  0.25212626197E+01  0.14037998755E+02  0.18726409970E+02  0.00000000000E+00 0. -1.
         11    1    3    3    0    0  0.17481766517E+01 -0.51041481802E+00 -0.25819996907E+01  0.31596467454E+01  0.51100000000E-03 0. -1.
        -11    1    3    3    0    0  0.32551991913E+02 -0.16190610537E+02 -0.20179202204E+02  0.41580863976E+02  0.51100000000E-03 0.  1.
         12    1    3    3    0    0 -0.22165249690E+02  0.14179762736E+02  0.87232031394E+01  0.27721079309E+02  0.00000000000E+00 0. -1.
</event>
<event>
 7    1  0.1692604E-013  0.7246135E+02  0.7816164E-02  0.1226709E+00
        -11   -1    0    0    0    0  0.00000000000E+00  0.00000000000E+00  0.45593999997E+02  0.45594000000E+02  0.51100000000E-03 0. -1.
         11   -1    0    0    0    0 -0.00000000000E+00 -0.00000000000E+00 -0.45593999997E+02  0.45594000000E+02  0.51100000000E-03 0.  1.
    9900012    2    1    2    0    0  0.18663487020E+02  0.47854674220E+00 -0.14604103586E+01  0.72461346451E+02  0.69999708402E+02 0.  0.
         12    1    1    2    0    0 -0.18663487020E+02 -0.47854674220E+00  0.14604103586E+01  0.18726653549E+02  0.00000000000E+00 0. -1.
         11    1    3    3    0    0  0.13639073413E+02  0.25174273182E+01  0.42053321176E+01  0.14492983901E+02  0.51100000000E-03 0. -1.
        -11    1    3    3    0    0  0.16681982351E+00 -0.26094048003E+02  0.10984572650E+02  0.28312329587E+02  0.51100000000E-03 0.  1.
         12    1    3    3    0    0  0.48575937832E+01  0.24055167428E+02 -0.16650315127E+02  0.29656032964E+02  0.00000000000E+00 0. -1.
</event>
<event>
 7    1  0.1692604E-013  0.7246171E+02  0.7816164E-02  0.1226708E+00
        -11   -1    0    0    0    0  0.00000000000E+00  0.00000000000E+00  0.45593999997E+02  0.45594000000E+02  0.51100000000E-03 0.  1.
         11   -1    0    0    0    0 -0.00000000000E+00 -0.00000000000E+00 -0.45593999997E+02  0.45594000000E+02  0.51100000000E-03 0. -1.
    9900012    2    1    2    0    0  0.10170200750E+02  0.31139290771E+01  0.15412480886E+02  0.72461705529E+02  0.70000176168E+02 0.  0.
         12    1    1    2    0    0 -0.10170200750E+02 -0.31139290771E+01 -0.15412480886E+02  0.18726294471E+02  0.00000000000E+00 0. -1.
         11    1    3    3    0    0 -0.67204736256E+01 -0.23615872668E+02 -0.66234089339E+01  0.25431157146E+02  0.51100000000E-03 0.  1.
        -11    1    3    3    0    0 -0.40935513471E+01  0.85623390438E+01  0.16035285883E+02  0.18633335883E+02  0.51100000000E-03 0. -1.
        -12    1    3    3    0    0  0.20984225722E+02  0.18167462701E+02  0.60006039365E+01  0.28397212500E+02  0.00000000000E+00 0.  1.
</event>
<event>
 7    1  0.1692604E-013  0.7246154E+02  0.7816164E-02  0.1226708E+00
        -11   -1    0    0    0    0  0.00000000000E+00  0.00000000000E+00  0.45593999997E+02  0.45594000000E+02  0.51100000000E-03 0.  1.
         11   -1    0    0    0    0 -0.00000000000E+00 -0.00000000000E+00 -0.45593999997E+02  0.45594000000E+02  0.51100000000E-03 0. -1.
    9900012    2    1    2    0    0 -0.14031074700E+01 -0.56344957888E+01  0.17803480014E+02  0.72461544009E+02  0.69999965758E+02 0.  0.
         12    1    1    2    0    0  0.14031074700E+01  0.56344957888E+01 -0.17803480014E+02  0.18726455991E+02  0.00000000000E+00 0. -1.
         11    1    3    3    0    0  0.69895883701E+01 -0.71239548500E+00 -0.15486149392E+02  0.17005371980E+02  0.51100000000E-03 0. -1.
        -11    1    3    3    0    0 -0.16104038929E+02 -0.17040416619E+02  0.53621757531E+01  0.24051378285E+02  0.51100000000E-03 0.  1.
         12    1    3    3    0    0  0.77113430888E+01  0.12118316315E+02  0.27927453653E+02  0.31404793744E+02  0.00000000000E+00 0. -1.
</event>
<event>
 7    1  0.1692604E-013  0.7246119E+02  0.7816164E-02  0.1226709E+00
        -11   -1    0    0    0    0  0.00000000000E+00  0.00000000000E+00  0.45593999997E+02  0.45594000000E+02  0.51100000000E-03 0. -1.
         11   -1    0    0    0    0 -0.00000000000E+00 -0.00000000000E+00 -0.45593999997E+02  0.45594000000E+02  0.51100000000E-03 0.  1.
    9900012    2    1    2    0    0 -0.14175498404E+02 -0.12067166790E+02 -0.20327281625E+01  0.72461194263E+02  0.69999510147E+02 0.  0.
         12    1    1    2    0    0  0.14175498404E+02  0.12067166790E+02  0.20327281625E+01  0.18726805737E+02  0.00000000000E+00 0. -1.
         11    1    3    3    0    0 -0.31873747281E+01  0.42766765471E+01 -0.14934305885E+01  0.55389218382E+01  0.51100000000E-03 0. -1.
        -11    1    3    3    0    0 -0.31677283279E+01  0.24745683226E+02  0.19312828971E+01  0.25022253995E+02  0.51100000000E-03 0.  1.
        -12    1    3    3    0    0 -0.78203953482E+01 -0.41089526563E+02 -0.24705804711E+01  0.41900018430E+02  0.00000000000E+00 0.  1.
</event>
<event>
 7    1  0.1692604E-013  0.7246153E+02  0.7816164E-02  0.1226708E+00
        -11   -1    0    0    0    0  0.00000000000E+00  0.00000000000E+00  0.45593999997E+02  0.45594000000E+02  0.51100000000E-03 0. -1.
         11   -1    0    0    0    0 -0.00000000000E+00 -0.00000000000E+00 -0.45593999997E+02  0.45594000000E+02  0.51100000000E-03 0.  1.
    9900012    2    1    2    0    0 -0.45495688029E+01 -0.52803991324E+01 -0.17381004673E+02  0.72461534377E+02  0.69999953211E+02 0.  0.
         12    1    1    2    0    0  0.45495688029E+01  0.52803991324E+01  0.17381004673E+02  0.18726465623E+02  0.00000000000E+00 0. -1.
         11    1    3    3    0    0  0.77217311603E+01  0.11032667167E+02  0.16945874294E+02  0.21645034829E+02  0.51100000000E-03 0. -1.
        -11    1    3    3    0    0 -0.10790826105E+02  0.36241624565E+01 -0.34313131935E+00  0.11388337056E+02  0.51100000000E-03 0.  1.
        -12    1    3    3    0    0 -0.14804738586E+01 -0.19937228756E+02 -0.33983747647E+02  0.39428162492E+02  0.00000000000E+00 0.  1.
</event>
<event>
 7    1  0.1937822E-013  0.7246157E+02  0.7816164E-02  0.1226708E+00
        -11   -1    0    0    0    0  0.00000000000E+00  0.00000000000E+00  0.45593999997E+02  0.45594000000E+02  0.51100000000E-03 0. -1.
         11   -1    0    0    0    0 -0.00000000000E+00 -0.00000000000E+00 -0.45593999997E+02  0.45594000000E+02  0.51100000000E-03 0.  1.
    9900012    2    1    2    0    0 -0.10624756914E+02 -0.13540013948E+02 -0.73798101565E+01  0.72461573882E+02  0.70000004674E+02 0.  0.
         12    1    1    2    0    0  0.10624756914E+02  0.13540013948E+02  0.73798101565E+01  0.18726426118E+02  0.00000000000E+00 0. -1.
         11    1    3    3    0    0  0.46053260338E-01 -0.75916496732E+01  0.27156610621E+02  0.28197814921E+02  0.51100000000E-03 0. -1.
        -11    1    3    3    0    0  0.81044543391E+01 -0.57762881406E+00 -0.11143938936E+02  0.13791418000E+02  0.51100000000E-03 0.  1.
        -12    1    3    3    0    0 -0.18775264513E+02 -0.53707354609E+01 -0.23392481841E+02  0.30472340961E+02  0.00000000000E+00 0.  1.
</event>
<event>
 7    1  0.1692604E-013  0.7246157E+02  0.7816164E-02  0.1226708E+00
        -11   -1    0    0    0    0  0.00000000000E+00  0.00000000000E+00  0.45593999997E+02  0.45594000000E+02  0.51100000000E-03 0. -1.
         11   -1    0    0    0    0 -0.00000000000E+00 -0.00000000000E+00 -0.45593999997E+02  0.45594000000E+02  0.51100000000E-03 0.  1.
    9900012    2    1    2    0    0 -0.10725278288E+02  0.11417025646E+02  0.10261538146E+02  0.72461568571E+02  0.69999997755E+02 0.  0.
         12    1    1    2    0    0  0.10725278288E+02 -0.11417025646E+02 -0.10261538146E+02  0.18726431429E+02  0.00000000000E+00 0. -1.
         11    1    3    3    0    0  0.41508395183E+01  0.12018413222E+01  0.10192707536E+02  0.11070915881E+02  0.51100000000E-03 0. -1.
        -11    1    3    3    0    0  0.19663526339E+02  0.16104179562E+02  0.53028263625E+01  0.25963798550E+02  0.51100000000E-03 0.  1.
         12    1    3    3    0    0 -0.34539644146E+02 -0.58889952388E+01 -0.52339957528E+01  0.35426854139E+02  0.00000000000E+00 0. -1.
</event>
<event>
 7    1  0.1692604E-013  0.7246152E+02  0.7816164E-02  0.1226708E+00
        -11   -1    0    0    0    0  0.00000000000E+00  0.00000000000E+00  0.45593999997E+02  0.45594000000E+02  0.51100000000E-03 0. -1.
         11   -1    0    0    0    0 -0.00000000000E+00 -0.00000000000E+00 -0.45593999997E+02  0.45594000000E+02  0.51100000000E-03 0.  1.
    9900012    2    1    2    0    0 -0.22639708512E+01 -0.11360573946E+02  0.14713698048E+02  0.72461518359E+02  0.69999932344E+02 0.  0.
         12    1    1    2    0    0  0.22639708512E+01  0.11360573946E+02 -0.14713698048E+02  0.18726481641E+02  0.00000000000E+00 0. -1.
         11    1    3    3    0    0  0.16853139188E+02 -0.10833321428E+02  0.18575700955E+02  0.27321160662E+02  0.51100000000E-03 0. -1.
        -11    1    3    3    0    0 -0.10455267895E+02 -0.20165180529E+02 -0.62123873311E+01  0.23548691877E+02  0.51100000000E-03 0.  1.
         12    1    3    3    0    0 -0.86618421449E+01  0.19637928011E+02  0.23503844243E+01  0.21591665820E+02  0.00000000000E+00 0. -1.
</event>
<event>
 7    1  0.1692604E-013  0.7246159E+02  0.7816164E-02  0.1226708E+00
        -11   -1    0    0    0    0  0.00000000000E+00  0.00000000000E+00  0.45593999997E+02  0.45594000000E+02  0.51100000000E-03 0. -1.
         11   -1    0    0    0    0 -0.00000000000E+00 -0.00000000000E+00 -0.45593999997E+02  0.45594000000E+02  0.51100000000E-03 0.  1.
    9900012    2    1    2    0    0 -0.32255318108E+01 -0.20945169564E+00 -0.18445335497E+02  0.72461592788E+02  0.70000029302E+02 0.  0.
         12    1    1    2    0    0  0.32255318108E+01  0.20945169564E+00  0.18445335497E+02  0.18726407212E+02  0.00000000000E+00 0. -1.
         11    1    3    3    0    0 -0.26455288387E+01 -0.41297813733E+01 -0.16712742908E+01  0.51814163164E+01  0.51100000000E-03 0. -1.
        -11    1    3    3    0    0 -0.90127141339E+01 -0.28207799922E+02 -0.16835378445E+02  0.34063748475E+02  0.51100000000E-03 0.  1.
         12    1    3    3    0    0  0.84327111618E+01  0.32128129599E+02  0.61317239165E-01  0.33216427997E+02  0.00000000000E+00 0. -1.
</event>
<event>
 7    1  0.1692604E-013  0.7246159E+02  0.7816164E-02  0.1226708E+00
        -11   -1    0    0    0    0  0.00000000000E+00  0.00000000000E+00  0.45593999997E+02  0.45594000000E+02  0.51100000000E-03 0. -1.
         11   -1    0    0    0    0 -0.00000000000E+00 -0.00000000000E+00 -0.45593999997E+02  0.45594000000E+02  0.51100000000E-03 0.  1.
    9900012    2    1    2    0    0 -0.97018808874E+01  0.13684173941E+02  0.83243719662E+01  0.72461594103E+02  0.70000031015E+02 0.  0.
         12    1    1    2    0    0  0.97018808874E+01 -0.13684173941E+02 -0.83243719662E+01  0.18726405897E+02  0.00000000000E+00 0. -1.
         11    1    3    3    0    0 -0.25290824442E+01 -0.60825358317E+00 -0.49946718676E+01  0.56314276837E+01  0.51100000000E-03 0. -1.
        -11    1    3    3    0    0 -0.29560048416E+02 -0.11125225929E+02  0.75060552385E+01  0.32463948926E+02  0.51100000000E-03 0.  1.
         12    1    3    3    0    0  0.22387249973E+02  0.25417653453E+02  0.58129885953E+01  0.34366217494E+02  0.00000000000E+00 0. -1.
</event>
<event>
 7    1  0.1692604E-013  0.7246155E+02  0.7816164E-02  0.1226708E+00
        -11   -1    0    0    0    0  0.00000000000E+00  0.00000000000E+00  0.45593999997E+02  0.45594000000E+02  0.51100000000E-03 0.  1.
         11   -1    0    0    0    0 -0.00000000000E+00 -0.00000000000E+00 -0.45593999997E+02  0.45594000000E+02  0.51100000000E-03 0. -1.
    9900012    2    1    2    0    0 -0.14073084926E+02  0.69150790775E+00  0.12334905271E+02  0.72461553713E+02  0.69999978399E+02 0.  0.
         12    1    1    2    0    0  0.14073084926E+02 -0.69150790775E+00 -0.12334905271E+02  0.18726446287E+02  0.00000000000E+00 0. -1.
         11    1    3    3    0    0 -0.53317361054E+01  0.11288947911E+02 -0.14871781412E+02  0.19417457029E+02  0.51100000000E-03 0. -1.
        -11    1    3    3    0    0  0.74502209816E+01  0.10941179086E+02  0.21886583750E+02  0.25578071486E+02  0.51100000000E-03 0.  1.
         12    1    3    3    0    0 -0.16191569802E+02 -0.21538619089E+02  0.53201029329E+01  0.27466025197E+02  0.00000000000E+00 0. -1.
</event>
<event>
 7    1  0.1692604E-013  0.7246164E+02  0.7816164E-02  0.1226708E+00
        -11   -1    0    0    0    0  0.00000000000E+00  0.00000000000E+00  0.45593999997E+02  0.45594000000E+02  0.51100000000E-03 0.  1.
         11   -1    0    0    0    0 -0.00000000000E+00 -0.00000000000E+00 -0.45593999997E+02  0.45594000000E+02  0.51100000000E-03 0. -1.
    9900012    2    1    2    0    0  0.10159016510E+02 -0.59177404647E+01  0.14575706365E+02  0.72461641979E+02  0.70000093383E+02 0.  0.
         12    1    1    2    0    0 -0.10159016510E+02  0.59177404647E+01 -0.14575706365E+02  0.18726358021E+02  0.00000000000E+00 0. -1.
         11    1    3    3    0    0  0.25388794756E+02  0.14498680320E+02 -0.63429909199E+01  0.29917155016E+02  0.51100000000E-03 0. -1.
        -11    1    3    3    0    0 -0.33961714657E+01  0.64239849328E+01  0.69498395262E+01  0.10054940713E+02  0.51100000000E-03 0.  1.
         12    1    3    3    0    0 -0.11833606780E+02 -0.26840405717E+02  0.13968857759E+02  0.32489546251E+02  0.00000000000E+00 0. -1.
</event>
<event>
 7    1  0.1692604E-013  0.7246156E+02  0.7816164E-02  0.1226708E+00
        -11   -1    0    0    0    0  0.00000000000E+00  0.00000000000E+00  0.45593999997E+02  0.45594000000E+02  0.51100000000E-03 0. -1.
         11   -1    0    0    0    0 -0.00000000000E+00 -0.00000000000E+00 -0.45593999997E+02  0.45594000000E+02  0.51100000000E-03 0.  1.
    9900012    2    1    2    0    0 -0.20323852579E+01  0.18568932024E+02 -0.13204514269E+01  0.72461563652E+02  0.69999991347E+02 0.  0.
         12    1    1    2    0    0  0.20323852579E+01 -0.18568932024E+02  0.13204514269E+01  0.18726436348E+02  0.00000000000E+00 0. -1.
         11    1    3    3    0    0  0.64571839852E+01  0.11719275579E+02 -0.98506099128E+01  0.16615389283E+02  0.51100000000E-03 0. -1.
        -11    1    3    3    0    0  0.18414349580E+01  0.29432877981E+02  0.95298341608E+01  0.30991981679E+02  0.51100000000E-03 0.  1.
         12    1    3    3    0    0 -0.10331004201E+02 -0.22583221537E+02 -0.99967567493E+00  0.24854192690E+02  0.00000000000E+00 0. -1.
</event>
<event>
 7    1  0.1692604E-013  0.7246154E+02  0.7816164E-02  0.1226708E+00
        -11   -1    0    0    0    0  0.00000000000E+00  0.00000000000E+00  0.45593999997E+02  0.45594000000E+02  0.51100000000E-03 0. -1.
         11   -1    0    0    0    0 -0.00000000000E+00 -0.00000000000E+00 -0.45593999997E+02  0.45594000000E+02  0.51100000000E-03 0.  1.
    9900012    2    1    2    0    0  0.58994268047E+01 -0.15906997993E+01 -0.17701598625E+02  0.72461543946E+02  0.69999965676E+02 0.  0.
         12    1    1    2    0    0 -0.58994268047E+01  0.15906997993E+01  0.17701598625E+02  0.18726456054E+02  0.00000000000E+00 0. -1.
         11    1    3    3    0    0 -0.28456498840E+02 -0.29694438449E+01 -0.11956618702E+02  0.31008880244E+02  0.51100000000E-03 0. -1.
        -11    1    3    3    0    0  0.28839309576E+01  0.61905584991E+01  0.42971108262E+01  0.80687814453E+01  0.51100000000E-03 0.  1.
        -12    1    3    3    0    0  0.31471994687E+02 -0.48118144535E+01 -0.10042090749E+02  0.33383882256E+02  0.00000000000E+00 0.  1.
</event>
<event>
 7    1  0.1692604E-013  0.7246155E+02  0.7816164E-02  0.1226708E+00
        -11   -1    0    0    0    0  0.00000000000E+00  0.00000000000E+00  0.45593999997E+02  0.45594000000E+02  0.51100000000E-03 0.  1.
         11   -1    0    0    0    0 -0.00000000000E+00 -0.00000000000E+00 -0.45593999997E+02  0.45594000000E+02  0.51100000000E-03 0. -1.
    9900012    2    1    2    0    0  0.21672465587E+01  0.16683228447E+02 -0.82251348656E+01  0.72461550453E+02  0.69999974153E+02 0.  0.
         12    1    1    2    0    0 -0.21672465587E+01 -0.16683228447E+02  0.82251348656E+01  0.18726449547E+02  0.00000000000E+00 0. -1.
         11    1    3    3    0    0 -0.25431577119E+02  0.10491921638E+02 -0.13328713393E+02  0.30569594949E+02  0.51100000000E-03 0. -1.
        -11    1    3    3    0    0  0.62314274245E+00 -0.30292115925E+01 -0.94078254342E+01  0.99031110976E+01  0.51100000000E-03 0.  1.
        -12    1    3    3    0    0  0.26975680935E+02  0.92205184022E+01  0.14511403961E+02  0.31988844406E+02  0.00000000000E+00 0.  1.
</event>
<event>
 7    1  0.1692604E-013  0.7246159E+02  0.7816164E-02  0.1226708E+00
        -11   -1    0    0    0    0  0.00000000000E+00  0.00000000000E+00  0.45593999997E+02  0.45594000000E+02  0.51100000000E-03 0. -1.
         11   -1    0    0    0    0 -0.00000000000E+00 -0.00000000000E+00 -0.45593999997E+02  0.45594000000E+02  0.51100000000E-03 0.  1.
    9900012    2    1    2    0    0  0.93129466340E+01  0.17935677128E+01 -0.16147151797E+02  0.72461591607E+02  0.70000027764E+02 0.  0.
         12    1    1    2    0    0 -0.93129466340E+01 -0.17935677128E+01  0.16147151797E+02  0.18726408393E+02  0.00000000000E+00 0. -1.
         11    1    3    3    0    0  0.25464860788E+01  0.12932360634E+01  0.16975882558E+01  0.33224775413E+01  0.51100000000E-03 0. -1.
        -11    1    3    3    0    0 -0.86770004780E+00  0.18932459189E+02 -0.36943050950E+02  0.41520837275E+02  0.51100000000E-03 0.  1.
         12    1    3    3    0    0  0.76341606029E+01 -0.18432127539E+02  0.19098310897E+02  0.27618276790E+02  0.00000000000E+00 0. -1.
</event>
<event>
 7    1  0.1692604E-013  0.7246159E+02  0.7816164E-02  0.1226708E+00
        -11   -1    0    0    0    0  0.00000000000E+00  0.00000000000E+00  0.45593999997E+02  0.45594000000E+02  0.51100000000E-03 0. -1.
         11   -1    0    0    0    0 -0.00000000000E+00 -0.00000000000E+00 -0.45593999997E+02  0.45594000000E+02  0.51100000000E-03 0.  1.
    9900012    2    1    2    0    0  0.79008883224E+01 -0.10062594805E+02 -0.13674749127E+02  0.72461585122E+02  0.70000019315E+02 0.  0.
         12    1    1    2    0    0 -0.79008883224E+01  0.10062594805E+02  0.13674749127E+02  0.18726414878E+02  0.00000000000E+00 0. -1.
         11    1    3    3    0    0  0.15769452701E+02 -0.22744499176E+02  0.12096139894E+02  0.30204378521E+02  0.51100000000E-03 0. -1.
        -11    1    3    3    0    0  0.74737521282E+01 -0.55819137531E+01 -0.47707541058E+01  0.10477348282E+02  0.51100000000E-03 0.  1.
        -12    1    3    3    0    0 -0.15342316507E+02  0.18263818124E+02 -0.21000134915E+02  0.31779858318E+02  0.00000000000E+00 0.  1.
</event>
<event>
 7    1  0.1692604E-013  0.7246157E+02  0.7816164E-02  0.1226708E+00
        -11   -1    0    0    0    0  0.00000000000E+00  0.00000000000E+00  0.45593999997E+02  0.45594000000E+02  0.51100000000E-03 0.  1.
         11   -1    0    0    0    0 -0.00000000000E+00 -0.00000000000E+00 -0.45593999997E+02  0.45594000000E+02  0.51100000000E-03 0. -1.
    9900012    2    1    2    0    0  0.13114876540E+02 -0.10005726515E+01  0.13329593126E+02  0.72461569876E+02  0.69999999455E+02 0.  0.
         12    1    1    2    0    0 -0.13114876540E+02  0.10005726515E+01 -0.13329593126E+02  0.18726430124E+02  0.00000000000E+00 0. -1.
         11    1    3    3    0    0  0.14993797386E+01  0.19558350562E+01  0.62973223351E+01  0.67623737859E+01  0.51100000000E-03 0. -1.
        -11    1    3    3    0    0 -0.10197227493E+02  0.11650486241E+02  0.28070639005E+02  0.32057418059E+02  0.51100000000E-03 0.  1.
         12    1    3    3    0    0  0.21812724294E+02 -0.14606893949E+02 -0.21038368214E+02  0.33641778031E+02  0.00000000000E+00 0. -1.
</event>
<event>
 7    1  0.1692604E-013  0.7246115E+02  0.7816164E-02  0.1226709E+00
        -11   -1    0    0    0    0  0.00000000000E+00  0.00000000000E+00  0.45593999997E+02  0.45594000000E+02  0.51100000000E-03 0.  1.
         11   -1    0    0    0    0 -0.00000000000E+00 -0.00000000000E+00 -0.45593999997E+02  0.45594000000E+02  0.51100000000E-03 0. -1.
    9900012    2    1    2    0    0  0.16910784420E+02 -0.26388424300E+01  0.75997946123E+01  0.72461147696E+02  0.69999449485E+02 0.  0.
         12    1    1    2    0    0 -0.16910784420E+02  0.26388424300E+01 -0.75997946123E+01  0.18726852304E+02  0.00000000000E+00 0. -1.
         11    1    3    3    0    0  0.40783870146E+01  0.14795479023E+02 -0.11863210651E+02  0.19397814500E+02  0.51100000000E-03 0. -1.
        -11    1    3    3    0    0  0.21661844874E+02  0.95067615997E+00  0.23816966105E+02  0.32208495513E+02  0.51100000000E-03 0.  1.
        -12    1    3    3    0    0 -0.88294474683E+01 -0.18384997613E+02 -0.43539608412E+01  0.20854837684E+02  0.00000000000E+00 0.  1.
</event>
<event>
 7    1  0.1692604E-013  0.7246156E+02  0.7816164E-02  0.1226708E+00
        -11   -1    0    0    0    0  0.00000000000E+00  0.00000000000E+00  0.45593999997E+02  0.45594000000E+02  0.51100000000E-03 0. -1.
         11   -1    0    0    0    0 -0.00000000000E+00 -0.00000000000E+00 -0.45593999997E+02  0.45594000000E+02  0.51100000000E-03 0.  1.
    9900012    2    1    2    0    0  0.99743620242E+01 -0.14971655596E+01 -0.15778155885E+02  0.72461558650E+02  0.69999984831E+02 0.  0.
         12    1    1    2    0    0 -0.99743620242E+01  0.14971655596E+01  0.15778155885E+02  0.18726441350E+02  0.00000000000E+00 0. -1.
         11    1    3    3    0    0  0.20026046599E+01  0.76307820720E+01 -0.18719523222E+02  0.20314029890E+02  0.51100000000E-03 0. -1.
        -11    1    3    3    0    0  0.26992455825E+01  0.16452026369E+02 -0.13356086185E+02  0.21362119202E+02  0.51100000000E-03 0.  1.
         12    1    3    3    0    0  0.52725117818E+01 -0.25579974000E+02  0.16297453522E+02  0.30785409558E+02  0.00000000000E+00 0. -1.
</event>
<event>
 7    1  0.1692604E-013  0.7246160E+02  0.7816164E-02  0.1226708E+00
        -11   -1    0    0    0    0  0.00000000000E+00  0.00000000000E+00  0.45593999997E+02  0.45594000000E+02  0.51100000000E-03 0.  1.
         11   -1    0    0    0    0 -0.00000000000E+00 -0.00000000000E+00 -0.45593999997E+02  0.45594000000E+02  0.51100000000E-03 0. -1.
    9900012    2    1    2    0    0 -0.10576049586E+02 -0.15104622297E+02  0.32673690787E+01  0.72461597775E+02  0.70000035799E+02 0.  0.
         12    1    1    2    0    0  0.10576049586E+02  0.15104622297E+02 -0.32673690787E+01  0.18726402225E+02  0.00000000000E+00 0. -1.
         11    1    3    3    0    0 -0.31928197270E+02  0.71670431057E+01  0.33070038952E+01  0.32889398943E+02  0.51100000000E-03 0. -1.
        -11    1    3    3    0    0 -0.36513675284E+01  0.21358417605E+01 -0.17755632424E+01  0.45876933139E+01  0.51100000000E-03 0.  1.
         12    1    3    3    0    0  0.25003515212E+02 -0.24407507163E+02  0.17359284260E+01  0.34984505518E+02  0.00000000000E+00 0. -1.
</event>
<event>
 7    1  0.1692604E-013  0.7246153E+02  0.7816164E-02  0.1226708E+00
        -11   -1    0    0    0    0  0.00000000000E+00  0.00000000000E+00  0.45593999997E+02  0.45594000000E+02  0.51100000000E-03 0. -1.
         11   -1    0    0    0    0 -0.00000000000E+00 -0.00000000000E+00 -0.45593999997E+02  0.45594000000E+02  0.51100000000E-03 0.  1.
    9900012    2    1    2    0    0  0.77129307908E+00  0.13409843502E+02 -0.13048440421E+02  0.72461532282E+02  0.69999950482E+02 0.  0.
         12    1    1    2    0    0 -0.77129307908E+00 -0.13409843502E+02  0.13048440421E+02  0.18726467718E+02  0.00000000000E+00 0. -1.
         11    1    3    3    0    0  0.63209046392E+01  0.65927177689E+01  0.59738001061E+01  0.10913480243E+02  0.51100000000E-03 0. -1.
        -11    1    3    3    0    0  0.10132565858E+02  0.57286745910E+01 -0.36340557487E+02  0.38159176120E+02  0.51100000000E-03 0.  1.
         12    1    3    3    0    0 -0.15682177418E+02  0.10884511424E+01  0.17318316960E+02  0.23388875919E+02  0.00000000000E+00 0. -1.
</event>
<event>
 7    1  0.1692604E-013  0.7246165E+02  0.7816164E-02  0.1226708E+00
        -11   -1    0    0    0    0  0.00000000000E+00  0.00000000000E+00  0.45593999997E+02  0.45594000000E+02  0.51100000000E-03 0.  1.
         11   -1    0    0    0    0 -0.00000000000E+00 -0.00000000000E+00 -0.45593999997E+02  0.45594000000E+02  0.51100000000E-03 0. -1.
    9900012    2    1    2    0    0  0.17696222154E+02 -0.15604028936E+01  0.59232741236E+01  0.72461646589E+02  0.70000099388E+02 0.  0.
         12    1    1    2    0    0 -0.17696222154E+02  0.15604028936E+01 -0.59232741236E+01  0.18726353411E+02  0.00000000000E+00 0. -1.
         11    1    3    3    0    0 -0.35559412987E+01  0.22052597675E+02 -0.13920746431E+01  0.22380787628E+02  0.51100000000E-03 0. -1.
        -11    1    3    3    0    0 -0.85535501208E+00  0.72530651967E+01 -0.64022175169E+01  0.97122075935E+01  0.51100000000E-03 0.  1.
        -12    1    3    3    0    0  0.22107518465E+02 -0.30866065766E+02  0.13717566284E+02  0.40368651368E+02  0.00000000000E+00 0.  1.
</event>
<event>
 7    1  0.1692604E-013  0.7246157E+02  0.7816164E-02  0.1226708E+00
        -11   -1    0    0    0    0  0.00000000000E+00  0.00000000000E+00  0.45593999997E+02  0.45594000000E+02  0.51100000000E-03 0. -1.
         11   -1    0    0    0    0 -0.00000000000E+00 -0.00000000000E+00 -0.45593999997E+02  0.45594000000E+02  0.51100000000E-03 0.  1.
    9900012    2    1    2    0    0  0.27293286202E+01  0.18429145516E+02 -0.18965035016E+01  0.72461565083E+02  0.69999993212E+02 0.  0.
         12    1    1    2    0    0 -0.27293286202E+01 -0.18429145516E+02  0.18965035016E+01  0.18726434917E+02  0.00000000000E+00 0. -1.
         11    1    3    3    0    0  0.17560486149E+02  0.68489462768E+01  0.16069273907E+02  0.24768938271E+02  0.51100000000E-03 0. -1.
        -11    1    3    3    0    0  0.81490447847E+01 -0.93073080605E+01 -0.12728048441E+01  0.12435953790E+02  0.51100000000E-03 0.  1.
         12    1    3    3    0    0 -0.22980202314E+02  0.20887507299E+02 -0.16692972564E+02  0.35256673022E+02  0.00000000000E+00 0. -1.
</event>
<event>
 7    1  0.1692604E-013  0.7246153E+02  0.7816164E-02  0.1226708E+00
        -11   -1    0    0    0    0  0.00000000000E+00  0.00000000000E+00  0.45593999997E+02  0.45594000000E+02  0.51100000000E-03 0. -1.
         11   -1    0    0    0    0 -0.00000000000E+00 -0.00000000000E+00 -0.45593999997E+02  0.45594000000E+02  0.51100000000E-03 0.  1.
    9900012    2    1    2    0    0  0.18136076658E+02  0.28530125227E+01 -0.36910397344E+01  0.72461528594E+02  0.69999945678E+02 0.  0.
         12    1    1    2    0    0 -0.18136076658E+02 -0.28530125227E+01  0.36910397344E+01  0.18726471406E+02  0.00000000000E+00 0. -1.
         11    1    3    3    0    0 -0.18770206601E+02  0.11205857211E+02  0.11227140576E+02  0.24575202491E+02  0.51100000000E-03 0. -1.
        -11    1    3    3    0    0  0.57680853072E-01 -0.81673671111E+01 -0.55189918630E+01  0.98574075727E+01  0.51100000000E-03 0.  1.
        -12    1    3    3    0    0  0.36848602406E+02 -0.18547757757E+00 -0.93991884470E+01  0.38028918531E+02  0.00000000000E+00 0.  1.
</event>
<event>
 7    1  0.1692604E-013  0.7246169E+02  0.7816164E-02  0.1226708E+00
        -11   -1    0    0    0    0  0.00000000000E+00  0.00000000000E+00  0.45593999997E+02  0.45594000000E+02  0.51100000000E-03 0. -1.
         11   -1    0    0    0    0 -0.00000000000E+00 -0.00000000000E+00 -0.45593999997E+02  0.45594000000E+02  0.51100000000E-03 0.  1.
    9900012    2    1    2    0    0 -0.15532400131E+02 -0.95110617672E+01  0.43542051857E+01  0.72461685559E+02  0.70000150153E+02 0.  0.
         12    1    1    2    0    0  0.15532400131E+02  0.95110617672E+01 -0.43542051857E+01  0.18726314441E+02  0.00000000000E+00 0. -1.
         11    1    3    3    0    0 -0.69017412888E+01  0.15686490197E+01 -0.13486640898E+02  0.15231026740E+02  0.51100000000E-03 0. -1.
        -11    1    3    3    0    0  0.25507905878E+01  0.14321176545E+02 -0.10209012229E+02  0.17771509817E+02  0.51100000000E-03 0.  1.
         12    1    3    3    0    0 -0.11181449430E+02 -0.25400887332E+02  0.28049858312E+02  0.39459149002E+02  0.00000000000E+00 0. -1.
</event>
<event>
 7    1  0.1692604E-013  0.7246162E+02  0.7816164E-02  0.1226708E+00
        -11   -1    0    0    0    0  0.00000000000E+00  0.00000000000E+00  0.45593999997E+02  0.45594000000E+02  0.51100000000E-03 0. -1.
         11   -1    0    0    0    0 -0.00000000000E+00 -0.00000000000E+00 -0.45593999997E+02  0.45594000000E+02  0.51100000000E-03 0.  1.
    9900012    2    1    2    0    0 -0.81147900165E+01  0.10997111643E+02 -0.12801992867E+02  0.72461620135E+02  0.70000064926E+02 0.  0.
         12    1    1    2    0    0  0.81147900165E+01 -0.10997111643E+02  0.12801992867E+02  0.18726379865E+02  0.00000000000E+00 0. -1.
         11    1    3    3    0    0  0.21198277811E+02  0.11665676424E+00  0.10302854621E+02  0.23569671287E+02  0.51100000000E-03 0. -1.
        -11    1    3    3    0    0  0.53283584421E+01  0.38460727763E+01  0.16200564938E+00  0.65734257111E+01  0.51100000000E-03 0.  1.
        -12    1    3    3    0    0 -0.34641426270E+02  0.70343821022E+01 -0.23266853137E+02  0.42318523137E+02  0.00000000000E+00 0.  1.
</event>
<event>
 7    1  0.1692604E-013  0.7246181E+02  0.7816164E-02  0.1226707E+00
        -11   -1    0    0    0    0  0.00000000000E+00  0.00000000000E+00  0.45593999997E+02  0.45594000000E+02  0.51100000000E-03 0.  1.
         11   -1    0    0    0    0 -0.00000000000E+00 -0.00000000000E+00 -0.45593999997E+02  0.45594000000E+02  0.51100000000E-03 0. -1.
    9900012    2    1    2    0    0  0.17535774958E+02 -0.39057168943E+01  0.52832036891E+01  0.72461807940E+02  0.70000309577E+02 0.  0.
         12    1    1    2    0    0 -0.17535774958E+02  0.39057168943E+01 -0.52832036891E+01  0.18726192060E+02  0.00000000000E+00 0. -1.
         11    1    3    3    0    0  0.35648868783E+01 -0.32229412343E+02 -0.96237850794E+01  0.33823966029E+02  0.51100000000E-03 0. -1.
        -11    1    3    3    0    0 -0.16415494797E+01  0.42113135409E+01 -0.23836178688E+01  0.51099394165E+01  0.51100000000E-03 0.  1.
        -12    1    3    3    0    0  0.15612437560E+02  0.24112381907E+02  0.17290606637E+02  0.33527902495E+02  0.00000000000E+00 0.  1.
</event>
<event>
 7    1  0.1692604E-013  0.7246154E+02  0.7816164E-02  0.1226708E+00
        -11   -1    0    0    0    0  0.00000000000E+00  0.00000000000E+00  0.45593999997E+02  0.45594000000E+02  0.51100000000E-03 0.  1.
         11   -1    0    0    0    0 -0.00000000000E+00 -0.00000000000E+00 -0.45593999997E+02  0.45594000000E+02  0.51100000000E-03 0. -1.
    9900012    2    1    2    0    0  0.51604675379E+01  0.97475334870E+01  0.15133916521E+02  0.72461541083E+02  0.69999961947E+02 0.  0.
         12    1    1    2    0    0 -0.51604675379E+01 -0.97475334870E+01 -0.15133916521E+02  0.18726458917E+02  0.00000000000E+00 0. -1.
         11    1    3    3    0    0 -0.54018431848E+01 -0.11506743772E+02 -0.50394075817E+01  0.13674088308E+02  0.51100000000E-03 0. -1.
        -11    1    3    3    0    0 -0.11223176861E+02  0.27101566798E+02  0.12761563348E+01  0.29361253329E+02  0.51100000000E-03 0.  1.
         12    1    3    3    0    0  0.21785487583E+02 -0.58472895393E+01  0.18897167768E+02  0.29426199446E+02  0.00000000000E+00 0. -1.
</event>
<event>
 7    1  0.1692604E-013  0.7246139E+02  0.7816164E-02  0.1226708E+00
        -11   -1    0    0    0    0  0.00000000000E+00  0.00000000000E+00  0.45593999997E+02  0.45594000000E+02  0.51100000000E-03 0. -1.
         11   -1    0    0    0    0 -0.00000000000E+00 -0.00000000000E+00 -0.45593999997E+02  0.45594000000E+02  0.51100000000E-03 0.  1.
    9900012    2    1    2    0    0 -0.10650068587E+02  0.11903103639E+02 -0.97763963936E+01  0.72461394232E+02  0.69999770646E+02 0.  0.
         12    1    1    2    0    0  0.10650068587E+02 -0.11903103639E+02  0.97763963936E+01  0.18726605768E+02  0.00000000000E+00 0. -1.
         11    1    3    3    0    0 -0.17053772538E+01  0.28133471707E+01  0.16113116586E+01  0.36632716802E+01  0.51100000000E-03 0. -1.
        -11    1    3    3    0    0  0.15059614064E+02  0.27274363728E+02 -0.20547485631E+02  0.37321335166E+02  0.51100000000E-03 0.  1.
         12    1    3    3    0    0 -0.24004305398E+02 -0.18184607260E+02  0.91597775790E+01  0.31476787386E+02  0.00000000000E+00 0. -1.
</event>
<event>
 7    1  0.1692604E-013  0.7246159E+02  0.7816164E-02  0.1226708E+00
        -11   -1    0    0    0    0  0.00000000000E+00  0.00000000000E+00  0.45593999997E+02  0.45594000000E+02  0.51100000000E-03 0. -1.
         11   -1    0    0    0    0 -0.00000000000E+00 -0.00000000000E+00 -0.45593999997E+02  0.45594000000E+02  0.51100000000E-03 0.  1.
    9900012    2    1    2    0    0 -0.17862323280E+02  0.56044178545E+01  0.45441797751E+00  0.72461585818E+02  0.70000020222E+02 0.  0.
         12    1    1    2    0    0  0.17862323280E+02 -0.56044178545E+01 -0.45441797751E+00  0.18726414182E+02  0.00000000000E+00 0. -1.
         11    1    3    3    0    0  0.51947775825E+01  0.23609698307E+02 -0.21972211566E+02  0.32667746320E+02  0.51100000000E-03 0. -1.
        -11    1    3    3    0    0  0.11862249294E+01  0.98615872592E+00 -0.23204838872E+00  0.15599632469E+01  0.51100000000E-03 0.  1.
        -12    1    3    3    0    0 -0.24243325791E+02 -0.18991439178E+02  0.22658677933E+02  0.38233876250E+02  0.00000000000E+00 0.  1.
</event>
<event>
 7    1  0.1692604E-013  0.7246204E+02  0.7816164E-02  0.1226707E+00
        -11   -1    0    0    0    0  0.00000000000E+00  0.00000000000E+00  0.45593999997E+02  0.45594000000E+02  0.51100000000E-03 0.  1.
         11   -1    0    0    0    0 -0.00000000000E+00 -0.00000000000E+00 -0.45593999997E+02  0.45594000000E+02  0.51100000000E-03 0. -1.
    9900012    2    1    2    0    0 -0.11937397762E+02 -0.60175771129E+01  0.13112925890E+02  0.72462041412E+02  0.70000613715E+02 0.  0.
         12    1    1    2    0    0  0.11937397762E+02  0.60175771129E+01 -0.13112925890E+02  0.18725958588E+02  0.00000000000E+00 0. -1.
         11    1    3    3    0    0 -0.81876908959E+01  0.14556603428E+02  0.35525948997E+01  0.17074949967E+02  0.51100000000E-03 0. -1.
        -11    1    3    3    0    0  0.14798307296E+02 -0.18633669967E+01  0.21737785267E+02  0.26362726414E+02  0.51100000000E-03 0.  1.
         12    1    3    3    0    0 -0.18548014162E+02 -0.18710813545E+02 -0.12177454276E+02  0.29024365032E+02  0.00000000000E+00 0. -1.
</event>
<event>
 7    1  0.1692604E-013  0.7246233E+02  0.7816164E-02  0.1226706E+00
        -11   -1    0    0    0    0  0.00000000000E+00  0.00000000000E+00  0.45593999997E+02  0.45594000000E+02  0.51100000000E-03 0.  1.
         11   -1    0    0    0    0 -0.00000000000E+00 -0.00000000000E+00 -0.45593999997E+02  0.45594000000E+02  0.51100000000E-03 0. -1.
    9900012    2    1    2    0    0  0.13792545970E+02  0.11868146689E+02 -0.44230586401E+01  0.72462331043E+02  0.70000991009E+02 0.  0.
         12    1    1    2    0    0 -0.13792545970E+02 -0.11868146689E+02  0.44230586401E+01  0.18725668957E+02  0.00000000000E+00 0. -1.
         11    1    3    3    0    0 -0.68006915142E+01  0.33488810263E+01  0.30867035945E+01  0.81848731536E+01  0.51100000000E-03 0. -1.
        -11    1    3    3    0    0  0.38256248352E+01  0.26657215857E+02  0.15027986094E+02  0.30839632438E+02  0.51100000000E-03 0.  1.
         12    1    3    3    0    0  0.16767612649E+02 -0.18137950194E+02 -0.22537748328E+02  0.33437825451E+02  0.00000000000E+00 0. -1.
</event>
<event>
 7    1  0.1692604E-013  0.7246153E+02  0.7816164E-02  0.1226708E+00
        -11   -1    0    0    0    0  0.00000000000E+00  0.00000000000E+00  0.45593999997E+02  0.45594000000E+02  0.51100000000E-03 0. -1.
         11   -1    0    0    0    0 -0.00000000000E+00 -0.00000000000E+00 -0.45593999997E+02  0.45594000000E+02  0.51100000000E-03 0.  1.
    9900012    2    1    2    0    0  0.65347990923E+01 -0.16084096288E+02  0.70198855112E+01  0.72461533564E+02  0.69999952152E+02 0.  0.
         12    1    1    2    0    0 -0.65347990923E+01  0.16084096288E+02 -0.70198855112E+01  0.18726466436E+02  0.00000000000E+00 0. -1.
         11    1    3    3    0    0 -0.61645572816E+01 -0.28814229002E+02  0.68100358893E+01  0.30242985113E+02  0.51100000000E-03 0. -1.
        -11    1    3    3    0    0 -0.11617550517E+02 -0.34098342255E+01  0.40815551509E+01  0.12777070954E+02  0.51100000000E-03 0.  1.
        -12    1    3    3    0    0  0.24316906891E+02  0.16139966939E+02 -0.38717055291E+01  0.29441477498E+02  0.00000000000E+00 0.  1.
</event>
<event>
 7    1  0.1947638E-013  0.7246158E+02  0.7816164E-02  0.1226708E+00
        -11   -1    0    0    0    0  0.00000000000E+00  0.00000000000E+00  0.45593999997E+02  0.45594000000E+02  0.51100000000E-03 0.  1.
         11   -1    0    0    0    0 -0.00000000000E+00 -0.00000000000E+00 -0.45593999997E+02  0.45594000000E+02  0.51100000000E-03 0. -1.
    9900012    2    1    2    0    0 -0.17841550394E+02 -0.48718443087E+01 -0.29365259905E+01  0.72461575560E+02  0.70000006859E+02 0.  0.
         12    1    1    2    0    0  0.17841550394E+02  0.48718443087E+01  0.29365259905E+01  0.18726424440E+02  0.00000000000E+00 0. -1.
         11    1    3    3    0    0  0.18487102024E+02  0.23471483714E+01  0.24162552100E+01  0.18791496381E+02  0.51100000000E-03 0. -1.
        -11    1    3    3    0    0 -0.78151233496E+01  0.70523273485E+01  0.13119146869E+02  0.16820329629E+02  0.51100000000E-03 0.  1.
        -12    1    3    3    0    0 -0.28513529068E+02 -0.14271320029E+02 -0.18471928069E+02  0.36849749550E+02  0.00000000000E+00 0.  1.
</event>
<event>
 7    1  0.1692604E-013  0.7246161E+02  0.7816164E-02  0.1226708E+00
        -11   -1    0    0    0    0  0.00000000000E+00  0.00000000000E+00  0.45593999997E+02  0.45594000000E+02  0.51100000000E-03 0.  1.
         11   -1    0    0    0    0 -0.00000000000E+00 -0.00000000000E+00 -0.45593999997E+02  0.45594000000E+02  0.51100000000E-03 0. -1.
    9900012    2    1    2    0    0  0.79722921432E+01 -0.13911013416E+02  0.96749106052E+01  0.72461611360E+02  0.70000053495E+02 0.  0.
         12    1    1    2    0    0 -0.79722921432E+01  0.13911013416E+02 -0.96749106052E+01  0.18726388640E+02  0.00000000000E+00 0. -1.
         11    1    3    3    0    0 -0.12995025645E+02  0.38366295620E+01 -0.30580057836E+01  0.13890349799E+02  0.51100000000E-03 0. -1.
        -11    1    3    3    0    0 -0.15286298869E+02  0.10362596225E+01 -0.13481144054E+01  0.15380578007E+02  0.51100000000E-03 0.  1.
        -12    1    3    3    0    0  0.36253616657E+02 -0.18783902601E+02  0.14081030794E+02  0.43190683554E+02  0.00000000000E+00 0.  1.
</event>
<event>
 7    1  0.1692604E-013  0.7246155E+02  0.7816164E-02  0.1226708E+00
        -11   -1    0    0    0    0  0.00000000000E+00  0.00000000000E+00  0.45593999997E+02  0.45594000000E+02  0.51100000000E-03 0. -1.
         11   -1    0    0    0    0 -0.00000000000E+00 -0.00000000000E+00 -0.45593999997E+02  0.45594000000E+02  0.51100000000E-03 0.  1.
    9900012    2    1    2    0    0 -0.11728177660E+02 -0.11108392975E+02 -0.94727629507E+01  0.72461553897E+02  0.69999978640E+02 0.  0.
         12    1    1    2    0    0  0.11728177660E+02  0.11108392975E+02  0.94727629507E+01  0.18726446103E+02  0.00000000000E+00 0. -1.
         11    1    3    3    0    0  0.82644576708E+01  0.55483594449E+01  0.15996337899E+02  0.18840604543E+02  0.51100000000E-03 0. -1.
        -11    1    3    3    0    0 -0.13672005576E+02  0.10584409651E+01  0.75251711506E+01  0.15642002265E+02  0.51100000000E-03 0.  1.
        -12    1    3    3    0    0 -0.63206297555E+01 -0.17715193385E+02 -0.32994272000E+02  0.37978947089E+02  0.00000000000E+00 0.  1.
</event>
<event>
 7    1  0.1692604E-013  0.7246160E+02  0.7816164E-02  0.1226708E+00
        -11   -1    0    0    0    0  0.00000000000E+00  0.00000000000E+00  0.45593999997E+02  0.45594000000E+02  0.51100000000E-03 0. -1.
         11   -1    0    0    0    0 -0.00000000000E+00 -0.00000000000E+00 -0.45593999997E+02  0.45594000000E+02  0.51100000000E-03 0.  1.
    9900012    2    1    2    0    0 -0.60779524818E+01 -0.10548957770E+02 -0.14228706723E+02  0.72461598546E+02  0.70000036803E+02 0.  0.
         12    1    1    2    0    0  0.60779524818E+01  0.10548957770E+02  0.14228706723E+02  0.18726401454E+02  0.00000000000E+00 0. -1.
         11    1    3    3    0    0 -0.67363684168E+01 -0.89751817302E+00  0.26207140337E+02  0.27073943252E+02  0.51100000000E-03 0. -1.
        -11    1    3    3    0    0 -0.44598759515E+01  0.97355605601E-01 -0.11764693380E+01  0.46134642062E+01  0.51100000000E-03 0.  1.
         12    1    3    3    0    0  0.51182918866E+01 -0.97487952028E+01 -0.39259377722E+02  0.40774191088E+02  0.00000000000E+00 0. -1.
</event>
<event>
 7    1  0.1692604E-013  0.7246156E+02  0.7816164E-02  0.1226708E+00
        -11   -1    0    0    0    0  0.00000000000E+00  0.00000000000E+00  0.45593999997E+02  0.45594000000E+02  0.51100000000E-03 0.  1.
         11   -1    0    0    0    0 -0.00000000000E+00 -0.00000000000E+00 -0.45593999997E+02  0.45594000000E+02  0.51100000000E-03 0. -1.
    9900012    2    1    2    0    0 -0.15897275384E+02 -0.57645451525E+01  0.80452504953E+01  0.72461564114E+02  0.69999991949E+02 0.  0.
         12    1    1    2    0    0  0.15897275384E+02  0.57645451525E+01 -0.80452504953E+01  0.18726435886E+02  0.00000000000E+00 0. -1.
         11    1    3    3    0    0 -0.11768778365E+02 -0.10392663646E+02 -0.13099317367E+02  0.20447584640E+02  0.51100000000E-03 0. -1.
        -11    1    3    3    0    0  0.12943151125E+02 -0.12302165902E+02 -0.28073769815E+01  0.18076222301E+02  0.51100000000E-03 0.  1.
        -12    1    3    3    0    0 -0.17071648144E+02  0.16930284396E+02  0.23951944844E+02  0.33937757173E+02  0.00000000000E+00 0.  1.
</event>
<event>
 7    1  0.1692604E-013  0.7246154E+02  0.7816164E-02  0.1226708E+00
        -11   -1    0    0    0    0  0.00000000000E+00  0.00000000000E+00  0.45593999997E+02  0.45594000000E+02  0.51100000000E-03 0. -1.
         11   -1    0    0    0    0 -0.00000000000E+00 -0.00000000000E+00 -0.45593999997E+02  0.45594000000E+02  0.51100000000E-03 0.  1.
    9900012    2    1    2    0    0 -0.14088440795E+02  0.12335389058E+02 -0.18505979448E+00  0.72461541863E+02  0.69999962963E+02 0.  0.
         12    1    1    2    0    0  0.14088440795E+02 -0.12335389058E+02  0.18505979448E+00  0.18726458137E+02  0.00000000000E+00 0. -1.
         11    1    3    3    0    0 -0.78615498427E+01 -0.39389166728E+01 -0.19989226374E+02  0.21837770074E+02  0.51100000000E-03 0. -1.
        -11    1    3    3    0    0  0.32689724257E+01  0.22041852016E+02 -0.55314070492E+01  0.22959222225E+02  0.51100000000E-03 0.  1.
         12    1    3    3    0    0 -0.94958633777E+01 -0.57675462849E+01  0.25335573629E+02  0.27664549564E+02  0.00000000000E+00 0. -1.
</event>
<event>
 7    1  0.1692604E-013  0.7246158E+02  0.7816164E-02  0.1226708E+00
        -11   -1    0    0    0    0  0.00000000000E+00  0.00000000000E+00  0.45593999997E+02  0.45594000000E+02  0.51100000000E-03 0.  1.
         11   -1    0    0    0    0 -0.00000000000E+00 -0.00000000000E+00 -0.45593999997E+02  0.45594000000E+02  0.51100000000E-03 0. -1.
    9900012    2    1    2    0    0  0.34559807655E+01 -0.18381928084E+02 -0.91632275949E+00  0.72461582015E+02  0.70000015269E+02 0.  0.
         12    1    1    2    0    0 -0.34559807655E+01  0.18381928084E+02  0.91632275949E+00  0.18726417985E+02  0.00000000000E+00 0. -1.
         11    1    3    3    0    0 -0.27203791345E+00 -0.82422327223E+01  0.11468337498E+02  0.14125550258E+02  0.51100000000E-03 0. -1.
        -11    1    3    3    0    0  0.19257020817E+01 -0.36086422808E+01  0.22464775401E+02  0.22834113990E+02  0.51100000000E-03 0.  1.
         12    1    3    3    0    0  0.18023165972E+01 -0.65310530808E+01 -0.34849435658E+02  0.35501917767E+02  0.00000000000E+00 0. -1.
</event>
<event>
 7    1  0.1692604E-013  0.7246158E+02  0.7816164E-02  0.1226708E+00
        -11   -1    0    0    0    0  0.00000000000E+00  0.00000000000E+00  0.45593999997E+02  0.45594000000E+02  0.51100000000E-03 0.  1.
         11   -1    0    0    0    0 -0.00000000000E+00 -0.00000000000E+00 -0.45593999997E+02  0.45594000000E+02  0.51100000000E-03 0. -1.
    9900012    2    1    2    0    0  0.11878771740E+02 -0.11331579416E+02  0.90093880082E+01  0.72461575291E+02  0.70000006509E+02 0.  0.
         12    1    1    2    0    0 -0.11878771740E+02  0.11331579416E+02 -0.90093880082E+01  0.18726424709E+02  0.00000000000E+00 0. -1.
         11    1    3    3    0    0 -0.14263094321E+02  0.59106317482E+01 -0.69930710952E+01  0.16949173162E+02  0.51100000000E-03 0. -1.
        -11    1    3    3    0    0 -0.10833035154E+02  0.14630649662E+01 -0.42055267066E+00  0.10939473230E+02  0.51100000000E-03 0.  1.
        -12    1    3    3    0    0  0.36974901214E+02 -0.18705276130E+02  0.16423011774E+02  0.44572928899E+02  0.00000000000E+00 0.  1.
</event>
<event>
 7    1  0.1692604E-013  0.7246107E+02  0.7816164E-02  0.1226709E+00
        -11   -1    0    0    0    0  0.00000000000E+00  0.00000000000E+00  0.45593999997E+02  0.45594000000E+02  0.51100000000E-03 0. -1.
         11   -1    0    0    0    0 -0.00000000000E+00 -0.00000000000E+00 -0.45593999997E+02  0.45594000000E+02  0.51100000000E-03 0.  1.
    9900012    2    1    2    0    0  0.16370464226E+02  0.89914039772E+01  0.13639200481E+01  0.72461074936E+02  0.69999354700E+02 0.  0.
         12    1    1    2    0    0 -0.16370464226E+02 -0.89914039772E+01 -0.13639200481E+01  0.18726925064E+02  0.00000000000E+00 0. -1.
         11    1    3    3    0    0 -0.97189651018E+01 -0.15927781353E+01  0.55270282145E+01  0.11293505478E+02  0.51100000000E-03 0. -1.
        -11    1    3    3    0    0 -0.69098965975E+01 -0.16134887884E+02  0.38208801502E+01  0.17963307140E+02  0.51100000000E-03 0.  1.
         12    1    3    3    0    0  0.32999325926E+02  0.26719069996E+02 -0.79839883166E+01  0.43204262318E+02  0.00000000000E+00 0. -1.
</event>
<event>
 7    1  0.1692604E-013  0.7246180E+02  0.7816164E-02  0.1226707E+00
        -11   -1    0    0    0    0  0.00000000000E+00  0.00000000000E+00  0.45593999997E+02  0.45594000000E+02  0.51100000000E-03 0. -1.
         11   -1    0    0    0    0 -0.00000000000E+00 -0.00000000000E+00 -0.45593999997E+02  0.45594000000E+02  0.51100000000E-03 0.  1.
    9900012    2    1    2    0    0 -0.17095024212E+02  0.51484280469E+01 -0.56501608762E+01  0.72461802252E+02  0.70000302167E+02 0.  0.
         12    1    1    2    0    0  0.17095024212E+02 -0.51484280469E+01  0.56501608762E+01  0.18726197748E+02  0.00000000000E+00 0. -1.
         11    1    3    3    0    0 -0.16245961332E+02  0.23279129503E+02  0.68444478340E+01  0.29200951978E+02  0.51100000000E-03 0. -1.
        -11    1    3    3    0    0 -0.11636118031E+02  0.71030435241E+01 -0.67956486475E+01  0.15232639658E+02  0.51100000000E-03 0.  1.
        -12    1    3    3    0    0  0.10787055151E+02 -0.25233744980E+02 -0.56989600627E+01  0.28028210616E+02  0.00000000000E+00 0.  1.
</event>
<event>
 7    1  0.1692604E-013  0.7246162E+02  0.7816164E-02  0.1226708E+00
        -11   -1    0    0    0    0  0.00000000000E+00  0.00000000000E+00  0.45593999997E+02  0.45594000000E+02  0.51100000000E-03 0.  1.
         11   -1    0    0    0    0 -0.00000000000E+00 -0.00000000000E+00 -0.45593999997E+02  0.45594000000E+02  0.51100000000E-03 0. -1.
    9900012    2    1    2    0    0  0.17992234952E+02  0.46631762723E+01 -0.22828984486E+01  0.72461618693E+02  0.70000063049E+02 0.  0.
         12    1    1    2    0    0 -0.17992234952E+02 -0.46631762723E+01  0.22828984486E+01  0.18726381307E+02  0.00000000000E+00 0. -1.
         11    1    3    3    0    0 -0.40445330930E+01 -0.15297479452E+02 -0.15948634765E+02  0.22466198536E+02  0.51100000000E-03 0. -1.
        -11    1    3    3    0    0  0.76312821081E+01 -0.78867687979E+00 -0.11833618344E+02  0.14102942998E+02  0.51100000000E-03 0.  1.
        -12    1    3    3    0    0  0.14405485937E+02  0.20749332604E+02  0.25499354660E+02  0.35892477160E+02  0.00000000000E+00 0.  1.
</event>
<event>
 7    1  0.1692604E-013  0.7246161E+02  0.7816164E-02  0.1226708E+00
        -11   -1    0    0    0    0  0.00000000000E+00  0.00000000000E+00  0.45593999997E+02  0.45594000000E+02  0.51100000000E-03 0.  1.
         11   -1    0    0    0    0 -0.00000000000E+00 -0.00000000000E+00 -0.45593999997E+02  0.45594000000E+02  0.51100000000E-03 0. -1.
    9900012    2    1    2    0    0 -0.27026581261E+01  0.16644900264E+02  0.81437508826E+01  0.72461608351E+02  0.70000049576E+02 0.  0.
         12    1    1    2    0    0  0.27026581261E+01 -0.16644900264E+02 -0.81437508826E+01  0.18726391649E+02  0.00000000000E+00 0. -1.
         11    1    3    3    0    0 -0.19512695326E+02  0.87741795014E+01 -0.12901151388E+01  0.21433522858E+02  0.51100000000E-03 0. -1.
        -11    1    3    3    0    0 -0.19183133279E+01 -0.17855675470E+02  0.45483917668E+00  0.17964185244E+02  0.51100000000E-03 0.  1.
        -12    1    3    3    0    0  0.18728350527E+02  0.25726396233E+02  0.89790268448E+01  0.33063900249E+02  0.00000000000E+00 0.  1.
</event>
<event>
 7    1  0.1692604E-013  0.7246153E+02  0.7816164E-02  0.1226708E+00
        -11   -1    0    0    0    0  0.00000000000E+00  0.00000000000E+00  0.45593999997E+02  0.45594000000E+02  0.51100000000E-03 0.  1.
         11   -1    0    0    0    0 -0.00000000000E+00 -0.00000000000E+00 -0.45593999997E+02  0.45594000000E+02  0.51100000000E-03 0. -1.
    9900012    2    1    2    0    0 -0.11710298742E+02 -0.10265768381E+02  0.10400175200E+02  0.72461528329E+02  0.69999945332E+02 0.  0.
         12    1    1    2    0    0  0.11710298742E+02  0.10265768381E+02 -0.10400175200E+02  0.18726471671E+02  0.00000000000E+00 0. -1.
         11    1    3    3    0    0 -0.14447362768E+02 -0.11344790637E+01 -0.12265445616E+02  0.18985639049E+02  0.51100000000E-03 0. -1.
        -11    1    3    3    0    0  0.60903379680E+01 -0.78448081195E+01 -0.13706788489E+02  0.16926585064E+02  0.51100000000E-03 0.  1.
        -12    1    3    3    0    0 -0.33532739419E+01 -0.12864811976E+01  0.36372409305E+02  0.36549304215E+02  0.00000000000E+00 0.  1.
</event>
<event>
 7    1  0.1692604E-013  0.7246157E+02  0.7816164E-02  0.1226708E+00
        -11   -1    0    0    0    0  0.00000000000E+00  0.00000000000E+00  0.45593999997E+02  0.45594000000E+02  0.51100000000E-03 0.  1.
         11   -1    0    0    0    0 -0.00000000000E+00 -0.00000000000E+00 -0.45593999997E+02  0.45594000000E+02  0.51100000000E-03 0. -1.
    9900012    2    1    2    0    0  0.91795616054E+01 -0.11583028089E+02  0.11499922925E+02  0.72461571663E+02  0.70000001783E+02 0.  0.
         12    1    1    2    0    0 -0.91795616054E+01  0.11583028089E+02 -0.11499922925E+02  0.18726428337E+02  0.00000000000E+00 0. -1.
         11    1    3    3    0    0 -0.14434066061E+02 -0.82810083880E+01  0.20379332321E+02  0.26310350608E+02  0.51100000000E-03 0. -1.
        -11    1    3    3    0    0 -0.79094766060E+01 -0.54834085117E+01  0.58771141597E+01  0.11276881670E+02  0.51100000000E-03 0.  1.
        -12    1    3    3    0    0  0.31523104273E+02  0.21813888109E+01 -0.14756523556E+02  0.34874339386E+02  0.00000000000E+00 0.  1.
</event>
<event>
 7    1  0.1692604E-013  0.7246163E+02  0.7816164E-02  0.1226708E+00
        -11   -1    0    0    0    0  0.00000000000E+00  0.00000000000E+00  0.45593999997E+02  0.45594000000E+02  0.51100000000E-03 0.  1.
         11   -1    0    0    0    0 -0.00000000000E+00 -0.00000000000E+00 -0.45593999997E+02  0.45594000000E+02  0.51100000000E-03 0. -1.
    9900012    2    1    2    0    0 -0.11792107615E+01 -0.18687845470E+02  0.22538571570E+00  0.72461630756E+02  0.70000078763E+02 0.  0.
         12    1    1    2    0    0  0.11792107615E+01  0.18687845470E+02 -0.22538571570E+00  0.18726369244E+02  0.00000000000E+00 0. -1.
         11    1    3    3    0    0  0.18466901426E+02 -0.14752150470E+02  0.15413470288E+02  0.28217502695E+02  0.51100000000E-03 0.  1.
        -11    1    3    3    0    0  0.60305848341E+01 -0.90518870047E+01  0.42062643509E+01  0.11661786820E+02  0.51100000000E-03 0. -1.
        -12    1    3    3    0    0 -0.25676697022E+02  0.51161920052E+01 -0.19394348923E+02  0.32582341241E+02  0.00000000000E+00 0.  1.
</event>
<event>
 7    1  0.1692604E-013  0.7246153E+02  0.7816164E-02  0.1226708E+00
        -11   -1    0    0    0    0  0.00000000000E+00  0.00000000000E+00  0.45593999997E+02  0.45594000000E+02  0.51100000000E-03 0. -1.
         11   -1    0    0    0    0 -0.00000000000E+00 -0.00000000000E+00 -0.45593999997E+02  0.45594000000E+02  0.51100000000E-03 0.  1.
    9900012    2    1    2    0    0 -0.67286579547E+01 -0.98556744609E+01 -0.14431610711E+02  0.72461533578E+02  0.69999952170E+02 0.  0.
         12    1    1    2    0    0  0.67286579547E+01  0.98556744609E+01  0.14431610711E+02  0.18726466422E+02  0.00000000000E+00 0. -1.
         11    1    3    3    0    0  0.11944304288E+01 -0.30524552406E+01  0.11462458053E+02  0.11921916453E+02  0.51100000000E-03 0. -1.
        -11    1    3    3    0    0  0.18363252628E+02  0.52441331722E+01  0.33781494813E+01  0.19393861761E+02  0.51100000000E-03 0.  1.
         12    1    3    3    0    0 -0.26286341012E+02 -0.12047352392E+02 -0.29272218245E+02  0.41145755364E+02  0.00000000000E+00 0. -1.
</event>
<event>
 7    1  0.1692604E-013  0.7246158E+02  0.7816164E-02  0.1226708E+00
        -11   -1    0    0    0    0  0.00000000000E+00  0.00000000000E+00  0.45593999997E+02  0.45594000000E+02  0.51100000000E-03 0.  1.
         11   -1    0    0    0    0 -0.00000000000E+00 -0.00000000000E+00 -0.45593999997E+02  0.45594000000E+02  0.51100000000E-03 0. -1.
    9900012    2    1    2    0    0  0.15097562758E+02 -0.94400807761E+01 -0.57989021879E+01  0.72461580351E+02  0.70000013100E+02 0.  0.
         12    1    1    2    0    0 -0.15097562758E+02  0.94400807761E+01  0.57989021879E+01  0.18726419649E+02  0.00000000000E+00 0. -1.
         11    1    3    3    0    0  0.47622861329E+01 -0.34115265242E+01  0.46401363521E+01  0.74732019954E+01  0.51100000000E-03 0. -1.
        -11    1    3    3    0    0  0.16403641650E+02  0.16178060958E+02  0.17394466017E+02  0.28868262227E+02  0.51100000000E-03 0.  1.
         12    1    3    3    0    0 -0.60683650244E+01 -0.22206615210E+02 -0.27833504557E+02  0.36120116128E+02  0.00000000000E+00 0. -1.
</event>
<event>
 7    1  0.1692604E-013  0.7246153E+02  0.7816164E-02  0.1226708E+00
        -11   -1    0    0    0    0  0.00000000000E+00  0.00000000000E+00  0.45593999997E+02  0.45594000000E+02  0.51100000000E-03 0. -1.
         11   -1    0    0    0    0 -0.00000000000E+00 -0.00000000000E+00 -0.45593999997E+02  0.45594000000E+02  0.51100000000E-03 0.  1.
    9900012    2    1    2    0    0  0.90155779135E+00  0.36201231695E+01 -0.18351090290E+02  0.72461531752E+02  0.69999949791E+02 0.  0.
         12    1    1    2    0    0 -0.90155779135E+00 -0.36201231695E+01  0.18351090290E+02  0.18726468248E+02  0.00000000000E+00 0. -1.
         11    1    3    3    0    0 -0.12253320828E+02 -0.17664867819E+02 -0.12606696032E+02  0.24922283432E+02  0.51100000000E-03 0. -1.
        -11    1    3    3    0    0  0.43826244170E+01 -0.58888152806E+01 -0.15673670575E+02  0.17307498137E+02  0.51100000000E-03 0.  1.
         12    1    3    3    0    0  0.87722542022E+01  0.27173806269E+02  0.99292763175E+01  0.30231750183E+02  0.00000000000E+00 0. -1.
</event>
<event>
 7    1  0.1692604E-013  0.7246158E+02  0.7816164E-02  0.1226708E+00
        -11   -1    0    0    0    0  0.00000000000E+00  0.00000000000E+00  0.45593999997E+02  0.45594000000E+02  0.51100000000E-03 0.  1.
         11   -1    0    0    0    0 -0.00000000000E+00 -0.00000000000E+00 -0.45593999997E+02  0.45594000000E+02  0.51100000000E-03 0. -1.
    9900012    2    1    2    0    0  0.41479261513E+01 -0.47965075383E+01  0.17620078903E+02  0.72461575983E+02  0.70000007410E+02 0.  0.
         12    1    1    2    0    0 -0.41479261513E+01  0.47965075383E+01 -0.17620078903E+02  0.18726424017E+02  0.00000000000E+00 0. -1.
         11    1    3    3    0    0  0.10855150186E+01 -0.20249534140E+02 -0.23264924113E+01  0.20411627641E+02  0.51100000000E-03 0. -1.
        -11    1    3    3    0    0  0.15129781707E+02 -0.78161939457E+01 -0.29048481260E+01  0.17275454414E+02  0.51100000000E-03 0.  1.
        -12    1    3    3    0    0 -0.12067370575E+02  0.23269220548E+02  0.22851419440E+02  0.34774493928E+02  0.00000000000E+00 0.  1.
</event>
<event>
 7    1  0.1692604E-013  0.7246152E+02  0.7816164E-02  0.1226708E+00
        -11   -1    0    0    0    0  0.00000000000E+00  0.00000000000E+00  0.45593999997E+02  0.45594000000E+02  0.51100000000E-03 0.  1.
         11   -1    0    0    0    0 -0.00000000000E+00 -0.00000000000E+00 -0.45593999997E+02  0.45594000000E+02  0.51100000000E-03 0. -1.
    9900012    2    1    2    0    0  0.11712058382E+02  0.23629709714E+01  0.14419602594E+02  0.72461524562E+02  0.69999940425E+02 0.  0.
         12    1    1    2    0    0 -0.11712058382E+02 -0.23629709714E+01 -0.14419602594E+02  0.18726475438E+02  0.00000000000E+00 0. -1.
         11    1    3    3    0    0  0.18562847212E+02 -0.11618970724E+02  0.12562382834E+02  0.25246648095E+02  0.51100000000E-03 0.  1.
        -11    1    3    3    0    0 -0.11786777333E+02  0.11097026830E+02  0.21411131349E+02  0.26842292568E+02  0.51100000000E-03 0. -1.
         12    1    3    3    0    0  0.49359885041E+01  0.28849148658E+01 -0.19553911589E+02  0.20372583899E+02  0.00000000000E+00 0. -1.
</event>
<event>
 7    1  0.1692604E-013  0.7246161E+02  0.7816164E-02  0.1226708E+00
        -11   -1    0    0    0    0  0.00000000000E+00  0.00000000000E+00  0.45593999997E+02  0.45594000000E+02  0.51100000000E-03 0.  1.
         11   -1    0    0    0    0 -0.00000000000E+00 -0.00000000000E+00 -0.45593999997E+02  0.45594000000E+02  0.51100000000E-03 0. -1.
    9900012    2    1    2    0    0  0.90216793906E+01 -0.60726724939E+01  0.15244991065E+02  0.72461606786E+02  0.70000047537E+02 0.  0.
         12    1    1    2    0    0 -0.90216793906E+01  0.60726724939E+01 -0.15244991065E+02  0.18726393214E+02  0.00000000000E+00 0. -1.
         11    1    3    3    0    0 -0.76507510954E+01 -0.13359595097E+02  0.46022929385E+01  0.16068412306E+02  0.51100000000E-03 0. -1.
        -11    1    3    3    0    0  0.12616888036E+02 -0.18886931107E+02  0.17913217339E+02  0.28927242973E+02  0.51100000000E-03 0.  1.
        -12    1    3    3    0    0  0.40555424501E+01  0.26173853709E+02 -0.72705192126E+01  0.27465951507E+02  0.00000000000E+00 0.  1.
</event>
<event>
 7    1  0.1692604E-013  0.7246161E+02  0.7816164E-02  0.1226708E+00
        -11   -1    0    0    0    0  0.00000000000E+00  0.00000000000E+00  0.45593999997E+02  0.45594000000E+02  0.51100000000E-03 0.  1.
         11   -1    0    0    0    0 -0.00000000000E+00 -0.00000000000E+00 -0.45593999997E+02  0.45594000000E+02  0.51100000000E-03 0. -1.
    9900012    2    1    2    0    0  0.10579131141E+02 -0.20323728613E+01  0.15317608261E+02  0.72461610119E+02  0.70000051878E+02 0.  0.
         12    1    1    2    0    0 -0.10579131141E+02  0.20323728613E+01 -0.15317608261E+02  0.18726389881E+02  0.00000000000E+00 0. -1.
         11    1    3    3    0    0  0.58452115805E+01  0.26397499597E+02  0.83619998795E+00  0.27049837598E+02  0.51100000000E-03 0. -1.
        -11    1    3    3    0    0  0.12820648440E+02  0.35496496677E+00  0.69110689281E+01  0.14569073428E+02  0.51100000000E-03 0.  1.
        -12    1    3    3    0    0 -0.80867288791E+01 -0.28784837425E+02  0.75703393451E+01  0.30842699093E+02  0.00000000000E+00 0.  1.
</event>
<event>
 7    1  0.1692604E-013  0.7246158E+02  0.7816164E-02  0.1226708E+00
        -11   -1    0    0    0    0  0.00000000000E+00  0.00000000000E+00  0.45593999997E+02  0.45594000000E+02  0.51100000000E-03 0.  1.
         11   -1    0    0    0    0 -0.00000000000E+00 -0.00000000000E+00 -0.45593999997E+02  0.45594000000E+02  0.51100000000E-03 0. -1.
    9900012    2    1    2    0    0  0.88703288338E+01 -0.47454691311E+01  0.15794828830E+02  0.72461579396E+02  0.70000011856E+02 0.  0.
         12    1    1    2    0    0 -0.88703288338E+01  0.47454691311E+01 -0.15794828830E+02  0.18726420604E+02  0.00000000000E+00 0. -1.
         11    1    3    3    0    0  0.12815297106E+02  0.67753686043E+01  0.14532898661E+02  0.20526631564E+02  0.51100000000E-03 0. -1.
        -11    1    3    3    0    0 -0.16271531717E+02 -0.19909102341E+01  0.21093730384E+02  0.26714638866E+02  0.51100000000E-03 0.  1.
         12    1    3    3    0    0  0.12326563445E+02 -0.95299275014E+01 -0.19831800215E+02  0.25220308965E+02  0.00000000000E+00 0. -1.
</event>
<event>
 7    1  0.1692604E-013  0.7246164E+02  0.7816164E-02  0.1226708E+00
        -11   -1    0    0    0    0  0.00000000000E+00  0.00000000000E+00  0.45593999997E+02  0.45594000000E+02  0.51100000000E-03 0. -1.
         11   -1    0    0    0    0 -0.00000000000E+00 -0.00000000000E+00 -0.45593999997E+02  0.45594000000E+02  0.51100000000E-03 0.  1.
    9900012    2    1    2    0    0 -0.50634115670E+01 -0.17981322465E+02 -0.13078036123E+01  0.72461643051E+02  0.70000094779E+02 0.  0.
         12    1    1    2    0    0  0.50634115670E+01  0.17981322465E+02  0.13078036123E+01  0.18726356949E+02  0.00000000000E+00 0. -1.
         11    1    3    3    0    0 -0.21362573875E+02  0.93032298792E+01  0.10155228381E+02  0.25417283735E+02  0.51100000000E-03 0. -1.
        -11    1    3    3    0    0  0.44242648878E+01 -0.10862594036E+02  0.11494108459E+02  0.16422076560E+02  0.51100000000E-03 0.  1.
        -12    1    3    3    0    0  0.11874897420E+02 -0.16421958309E+02 -0.22957140452E+02  0.30622282756E+02  0.00000000000E+00 0.  1.
</event>
<event>
 7    1  0.1692604E-013  0.7246170E+02  0.7816164E-02  0.1226708E+00
        -11   -1    0    0    0    0  0.00000000000E+00  0.00000000000E+00  0.45593999997E+02  0.45594000000E+02  0.51100000000E-03 0. -1.
         11   -1    0    0    0    0 -0.00000000000E+00 -0.00000000000E+00 -0.45593999997E+02  0.45594000000E+02  0.51100000000E-03 0.  1.
    9900012    2    1    2    0    0  0.38949901803E+01  0.17418696301E+02  0.56650296942E+01  0.72461695219E+02  0.70000162737E+02 0.  0.
         12    1    1    2    0    0 -0.38949901803E+01 -0.17418696301E+02 -0.56650296942E+01  0.18726304781E+02  0.00000000000E+00 0. -1.
         11    1    3    3    0    0  0.56082596727E+01 -0.89942629052E+01  0.12664253963E+02  0.16514619901E+02  0.51100000000E-03 0. -1.
        -11    1    3    3    0    0 -0.17504439524E+02  0.22355713348E+00  0.10793538447E+02  0.20565890530E+02  0.51100000000E-03 0.  1.
        -12    1    3    3    0    0  0.15791170032E+02  0.26189402073E+02 -0.17792762716E+02  0.35381184787E+02  0.00000000000E+00 0.  1.
</event>
<event>
 7    1  0.1692604E-013  0.7246140E+02  0.7816164E-02  0.1226708E+00
        -11   -1    0    0    0    0  0.00000000000E+00  0.00000000000E+00  0.45593999997E+02  0.45594000000E+02  0.51100000000E-03 0.  1.
         11   -1    0    0    0    0 -0.00000000000E+00 -0.00000000000E+00 -0.45593999997E+02  0.45594000000E+02  0.51100000000E-03 0. -1.
    9900012    2    1    2    0    0  0.15253258577E+02 -0.88565660433E+01  0.62916377464E+01  0.72461404879E+02  0.69999784515E+02 0.  0.
         12    1    1    2    0    0 -0.15253258577E+02  0.88565660433E+01 -0.62916377464E+01  0.18726595121E+02  0.00000000000E+00 0. -1.
         11    1    3    3    0    0  0.22672167065E+02  0.86188368228E+01 -0.47753293241E+01  0.24720745903E+02  0.51100000000E-03 0. -1.
        -11    1    3    3    0    0  0.14789495810E+02  0.24337499753E+01  0.97601121130E+01  0.17886087162E+02  0.51100000000E-03 0.  1.
        -12    1    3    3    0    0 -0.22208404297E+02 -0.19909152841E+02  0.13068549575E+01  0.29854571814E+02  0.00000000000E+00 0.  1.
</event>
<event>
 7    1  0.1692604E-013  0.7246148E+02  0.7816164E-02  0.1226708E+00
        -11   -1    0    0    0    0  0.00000000000E+00  0.00000000000E+00  0.45593999997E+02  0.45594000000E+02  0.51100000000E-03 0.  1.
         11   -1    0    0    0    0 -0.00000000000E+00 -0.00000000000E+00 -0.45593999997E+02  0.45594000000E+02  0.51100000000E-03 0. -1.
    9900012    2    1    2    0    0 -0.15158619131E+01  0.18526768363E+02  0.22679216873E+01  0.72461482649E+02  0.69999885826E+02 0.  0.
         12    1    1    2    0    0  0.15158619131E+01 -0.18526768363E+02 -0.22679216873E+01  0.18726517351E+02  0.00000000000E+00 0. -1.
         11    1    3    3    0    0  0.31342332231E+01 -0.14267641032E+02  0.68955016439E+00  0.14624106065E+02  0.51100000000E-03 0. -1.
        -11    1    3    3    0    0 -0.16254959040E+02  0.12667134767E+02  0.19595297584E+02  0.28436871914E+02  0.51100000000E-03 0.  1.
        -12    1    3    3    0    0  0.11604863904E+02  0.20127274628E+02 -0.18016926061E+02  0.29400504670E+02  0.00000000000E+00 0.  1.
</event>
<event>
 7    1  0.1692604E-013  0.7246159E+02  0.7816164E-02  0.1226708E+00
        -11   -1    0    0    0    0  0.00000000000E+00  0.00000000000E+00  0.45593999997E+02  0.45594000000E+02  0.51100000000E-03 0.  1.
         11   -1    0    0    0    0 -0.00000000000E+00 -0.00000000000E+00 -0.45593999997E+02  0.45594000000E+02  0.51100000000E-03 0. -1.
    9900012    2    1    2    0    0  0.96285209804E+01  0.10581505838E+02  0.12083112027E+02  0.72461594089E+02  0.70000030997E+02 0.  0.
         12    1    1    2    0    0 -0.96285209804E+01 -0.10581505838E+02 -0.12083112027E+02  0.18726405911E+02  0.00000000000E+00 0. -1.
         11    1    3    3    0    0 -0.15005534358E+02 -0.83177968371E+01 -0.11401950096E+02  0.20599909511E+02  0.51100000000E-03 0. -1.
        -11    1    3    3    0    0  0.37387927954E+01  0.52387616493E+01 -0.88925692702E+01  0.10977294005E+02  0.51100000000E-03 0.  1.
        -12    1    3    3    0    0  0.20895262543E+02  0.13660541026E+02  0.32377631394E+02  0.40884390573E+02  0.00000000000E+00 0.  1.
</event>
<event>
 7    1  0.1692604E-013  0.7246145E+02  0.7816164E-02  0.1226708E+00
        -11   -1    0    0    0    0  0.00000000000E+00  0.00000000000E+00  0.45593999997E+02  0.45594000000E+02  0.51100000000E-03 0.  1.
         11   -1    0    0    0    0 -0.00000000000E+00 -0.00000000000E+00 -0.45593999997E+02  0.45594000000E+02  0.51100000000E-03 0. -1.
    9900012    2    1    2    0    0 -0.15154378612E+02  0.63695609631E+01  0.89697970384E+01  0.72461447811E+02  0.69999840443E+02 0.  0.
         12    1    1    2    0    0  0.15154378612E+02 -0.63695609631E+01 -0.89697970384E+01  0.18726552189E+02  0.00000000000E+00 0. -1.
         11    1    3    3    0    0 -0.19846046775E+02 -0.33717492307E+01 -0.25743958986E+02  0.32680050337E+02  0.51100000000E-03 0. -1.
        -11    1    3    3    0    0  0.85846291725E+01  0.65890863502E+00  0.10182280398E+02  0.13334498603E+02  0.51100000000E-03 0.  1.
        -12    1    3    3    0    0 -0.38929610097E+01  0.90824015587E+01  0.24531475626E+02  0.26446898871E+02  0.00000000000E+00 0.  1.
</event>
<event>
 7    1  0.1692604E-013  0.7246149E+02  0.7816164E-02  0.1226708E+00
        -11   -1    0    0    0    0  0.00000000000E+00  0.00000000000E+00  0.45593999997E+02  0.45594000000E+02  0.51100000000E-03 0.  1.
         11   -1    0    0    0    0 -0.00000000000E+00 -0.00000000000E+00 -0.45593999997E+02  0.45594000000E+02  0.51100000000E-03 0. -1.
    9900012    2    1    2    0    0 -0.70095652356E+01 -0.11657874373E+02  0.12870201489E+02  0.72461491354E+02  0.69999897166E+02 0.  0.
         12    1    1    2    0    0  0.70095652356E+01  0.11657874373E+02 -0.12870201489E+02  0.18726508646E+02  0.00000000000E+00 0. -1.
         11    1    3    3    0    0  0.43864496481E+01 -0.49228023611E+01 -0.22486822912E+02  0.23433568413E+02  0.51100000000E-03 0. -1.
        -11    1    3    3    0    0  0.64986671151E+00 -0.17320775382E+02  0.13773653510E+02  0.22139221257E+02  0.51100000000E-03 0.  1.
        -12    1    3    3    0    0 -0.12045881595E+02  0.10585703370E+02  0.21583370892E+02  0.26888701685E+02  0.00000000000E+00 0.  1.
</event>
<event>
 7    1  0.1692604E-013  0.7246163E+02  0.7816164E-02  0.1226708E+00
        -11   -1    0    0    0    0  0.00000000000E+00  0.00000000000E+00  0.45593999997E+02  0.45594000000E+02  0.51100000000E-03 0.  1.
         11   -1    0    0    0    0 -0.00000000000E+00 -0.00000000000E+00 -0.45593999997E+02  0.45594000000E+02  0.51100000000E-03 0. -1.
    9900012    2    1    2    0    0 -0.10735164073E+02  0.15194698685E+02 -0.21340477885E+01  0.72461634209E+02  0.70000083260E+02 0.  0.
         12    1    1    2    0    0  0.10735164073E+02 -0.15194698685E+02  0.21340477885E+01  0.18726365791E+02  0.00000000000E+00 0. -1.
         11    1    3    3    0    0 -0.32574487178E+01 -0.55117641527E+01 -0.35211244787E+01  0.73067663216E+01  0.51100000000E-03 0. -1.
        -11    1    3    3    0    0  0.39726726810E+01 -0.13709115103E+02  0.19855434982E+02  0.24453226039E+02  0.51100000000E-03 0.  1.
         12    1    3    3    0    0 -0.11450388036E+02  0.34415577940E+02 -0.18468358292E+02  0.40701641848E+02  0.00000000000E+00 0. -1.
</event>
<event>
 7    1  0.1692604E-013  0.7246160E+02  0.7816164E-02  0.1226708E+00
        -11   -1    0    0    0    0  0.00000000000E+00  0.00000000000E+00  0.45593999997E+02  0.45594000000E+02  0.51100000000E-03 0.  1.
         11   -1    0    0    0    0 -0.00000000000E+00 -0.00000000000E+00 -0.45593999997E+02  0.45594000000E+02  0.51100000000E-03 0. -1.
    9900012    2    1    2    0    0  0.10030897803E+00  0.10899434266E+02  0.15227294387E+02  0.72461595552E+02  0.70000032902E+02 0.  0.
         12    1    1    2    0    0 -0.10030897803E+00 -0.10899434266E+02 -0.15227294387E+02  0.18726404448E+02  0.00000000000E+00 0. -1.
         11    1    3    3    0    0 -0.41127763098E+01  0.14649352737E+01  0.19431046037E+01  0.47787676333E+01  0.51100000000E-03 0. -1.
        -11    1    3    3    0    0  0.97165401046E+00  0.10798846692E+02  0.39638629414E+02  0.41094770269E+02  0.51100000000E-03 0.  1.
         12    1    3    3    0    0  0.32414312774E+01 -0.13643477003E+01 -0.26354439630E+02  0.26588057650E+02  0.00000000000E+00 0. -1.
</event>
<event>
 7    1  0.1692604E-013  0.7246157E+02  0.7816164E-02  0.1226708E+00
        -11   -1    0    0    0    0  0.00000000000E+00  0.00000000000E+00  0.45593999997E+02  0.45594000000E+02  0.51100000000E-03 0.  1.
         11   -1    0    0    0    0 -0.00000000000E+00 -0.00000000000E+00 -0.45593999997E+02  0.45594000000E+02  0.51100000000E-03 0. -1.
    9900012    2    1    2    0    0 -0.26599127472E+01  0.12024797440E+02 -0.14107027575E+02  0.72461571715E+02  0.70000001851E+02 0.  0.
         12    1    1    2    0    0  0.26599127472E+01 -0.12024797440E+02  0.14107027575E+02  0.18726428285E+02  0.00000000000E+00 0. -1.
         11    1    3    3    0    0  0.49838178573E+01 -0.99958770996E+01 -0.11272561476E+02  0.15869046660E+02  0.51100000000E-03 0. -1.
        -11    1    3    3    0    0 -0.25207738787E+02  0.67738741477E+00  0.86519430025E+01  0.26659802446E+02  0.51100000000E-03 0.  1.
         12    1    3    3    0    0  0.17564008183E+02  0.21343287125E+02 -0.11486409102E+02  0.29932722609E+02  0.00000000000E+00 0. -1.
</event>
<event>
 7    1  0.1692604E-013  0.7246158E+02  0.7816164E-02  0.1226708E+00
        -11   -1    0    0    0    0  0.00000000000E+00  0.00000000000E+00  0.45593999997E+02  0.45594000000E+02  0.51100000000E-03 0. -1.
         11   -1    0    0    0    0 -0.00000000000E+00 -0.00000000000E+00 -0.45593999997E+02  0.45594000000E+02  0.51100000000E-03 0.  1.
    9900012    2    1    2    0    0 -0.16310198320E+02  0.26955367351E+01 -0.87971856302E+01  0.72461575821E+02  0.70000007199E+02 0.  0.
         12    1    1    2    0    0  0.16310198320E+02 -0.26955367351E+01  0.87971856302E+01  0.18726424179E+02  0.00000000000E+00 0. -1.
         11    1    3    3    0    0 -0.78077514973E+01 -0.15924984293E+02  0.12279333039E+02  0.21571929175E+02  0.51100000000E-03 0. -1.
        -11    1    3    3    0    0 -0.22700970679E+02  0.65671151327E+01 -0.12169498937E+01  0.23663094435E+02  0.51100000000E-03 0.  1.
         12    1    3    3    0    0  0.14198523856E+02  0.12053405895E+02 -0.19859568776E+02  0.27226552211E+02  0.00000000000E+00 0. -1.
</event>
<event>
 7    1  0.1692604E-013  0.7246158E+02  0.7816164E-02  0.1226708E+00
        -11   -1    0    0    0    0  0.00000000000E+00  0.00000000000E+00  0.45593999997E+02  0.45594000000E+02  0.51100000000E-03 0. -1.
         11   -1    0    0    0    0 -0.00000000000E+00 -0.00000000000E+00 -0.45593999997E+02  0.45594000000E+02  0.51100000000E-03 0.  1.
    9900012    2    1    2    0    0  0.82056434445E+01 -0.13231877189E+02 -0.10404973456E+02  0.72461584675E+02  0.70000018734E+02 0.  0.
         12    1    1    2    0    0 -0.82056434445E+01  0.13231877189E+02  0.10404973456E+02  0.18726415325E+02  0.00000000000E+00 0. -1.
         11    1    3    3    0    0  0.60827773882E+01 -0.21868507579E+01  0.10200851494E+02  0.12076417865E+02  0.51100000000E-03 0. -1.
        -11    1    3    3    0    0 -0.12332249700E+02  0.92173074321E+01  0.11889647465E+02  0.19452682490E+02  0.51100000000E-03 0.  1.
        -12    1    3    3    0    0  0.14455115756E+02 -0.20262333863E+02 -0.32495472415E+02  0.40932484320E+02  0.00000000000E+00 0.  1.
</event>
<event>
 7    1  0.1692604E-013  0.7246151E+02  0.7816164E-02  0.1226708E+00
        -11   -1    0    0    0    0  0.00000000000E+00  0.00000000000E+00  0.45593999997E+02  0.45594000000E+02  0.51100000000E-03 0.  1.
         11   -1    0    0    0    0 -0.00000000000E+00 -0.00000000000E+00 -0.45593999997E+02  0.45594000000E+02  0.51100000000E-03 0. -1.
    9900012    2    1    2    0    0 -0.13312749504E+02 -0.13030830218E+02 -0.19104218235E+01  0.72461506813E+02  0.69999917304E+02 0.  0.
         12    1    1    2    0    0  0.13312749504E+02  0.13030830218E+02  0.19104218235E+01  0.18726493187E+02  0.00000000000E+00 0. -1.
         11    1    3    3    0    0 -0.23581162877E+02 -0.16338123949E+02 -0.22231876021E+02  0.36294102117E+02  0.51100000000E-03 0. -1.
        -11    1    3    3    0    0 -0.72048517575E+01  0.71086245711E+01  0.15456312919E+01  0.10238721038E+02  0.51100000000E-03 0.  1.
        -12    1    3    3    0    0  0.17473265130E+02 -0.38013308406E+01  0.18775822906E+02  0.25928683658E+02  0.00000000000E+00 0.  1.
</event>
<event>
 7    1  0.1692604E-013  0.7246156E+02  0.7816164E-02  0.1226708E+00
        -11   -1    0    0    0    0  0.00000000000E+00  0.00000000000E+00  0.45593999997E+02  0.45594000000E+02  0.51100000000E-03 0. -1.
         11   -1    0    0    0    0 -0.00000000000E+00 -0.00000000000E+00 -0.45593999997E+02  0.45594000000E+02  0.51100000000E-03 0.  1.
    9900012    2    1    2    0    0  0.58771597975E+01  0.16614914334E+02 -0.63311346585E+01  0.72461557421E+02  0.69999983230E+02 0.  0.
         12    1    1    2    0    0 -0.58771597975E+01 -0.16614914334E+02  0.63311346585E+01  0.18726442579E+02  0.00000000000E+00 0. -1.
         11    1    3    3    0    0  0.77909285738E+01 -0.11001569141E+02  0.46733199842E+01  0.14267901442E+02  0.51100000000E-03 0. -1.
        -11    1    3    3    0    0 -0.99624220118E+01 -0.50733861386E+01 -0.20381175578E+02  0.23246105425E+02  0.51100000000E-03 0.  1.
         12    1    3    3    0    0  0.80486532354E+01  0.32689869613E+02  0.93767209351E+01  0.34947550554E+02  0.00000000000E+00 0. -1.
</event>
<event>
 7    1  0.1692604E-013  0.7246156E+02  0.7816164E-02  0.1226708E+00
        -11   -1    0    0    0    0  0.00000000000E+00  0.00000000000E+00  0.45593999997E+02  0.45594000000E+02  0.51100000000E-03 0. -1.
         11   -1    0    0    0    0 -0.00000000000E+00 -0.00000000000E+00 -0.45593999997E+02  0.45594000000E+02  0.51100000000E-03 0.  1.
    9900012    2    1    2    0    0  0.14822032186E+01  0.12534010818E+02 -0.13834052885E+02  0.72461564868E+02  0.69999992931E+02 0.  0.
         12    1    1    2    0    0 -0.14822032186E+01 -0.12534010818E+02  0.13834052885E+02  0.18726435132E+02  0.00000000000E+00 0. -1.
         11    1    3    3    0    0  0.53899590094E+01  0.45650806011E+01  0.67400025623E+01  0.97631579839E+01  0.51100000000E-03 0. -1.
        -11    1    3    3    0    0  0.19821340945E+01 -0.24459638070E+02 -0.14269064394E+01  0.24581269543E+02  0.51100000000E-03 0.  1.
         12    1    3    3    0    0 -0.58898898854E+01  0.32428568286E+02 -0.19147149007E+02  0.38117137341E+02  0.00000000000E+00 0. -1.
</event>
<event>
 7    1  0.1692604E-013  0.7246158E+02  0.7816164E-02  0.1226708E+00
        -11   -1    0    0    0    0  0.00000000000E+00  0.00000000000E+00  0.45593999997E+02  0.45594000000E+02  0.51100000000E-03 0.  1.
         11   -1    0    0    0    0 -0.00000000000E+00 -0.00000000000E+00 -0.45593999997E+02  0.45594000000E+02  0.51100000000E-03 0. -1.
    9900012    2    1    2    0    0  0.15226743774E+00 -0.16183946908E+02 -0.94199527416E+01  0.72461579292E+02  0.70000011721E+02 0.  0.
         12    1    1    2    0    0 -0.15226743774E+00  0.16183946908E+02  0.94199527416E+01  0.18726420708E+02  0.00000000000E+00 0. -1.
         11    1    3    3    0    0  0.83278595573E+01  0.13538205473E+02 -0.22012962538E+01  0.16046244349E+02  0.51100000000E-03 0. -1.
        -11    1    3    3    0    0 -0.10496066769E+02  0.62678030001E+01 -0.15171670658E+02  0.19484156715E+02  0.51100000000E-03 0.  1.
        -12    1    3    3    0    0  0.23204746496E+01 -0.35989955381E+02  0.79530141700E+01  0.36931178228E+02  0.00000000000E+00 0.  1.
</event>
<event>
 7    1  0.1692604E-013  0.7246155E+02  0.7816164E-02  0.1226708E+00
        -11   -1    0    0    0    0  0.00000000000E+00  0.00000000000E+00  0.45593999997E+02  0.45594000000E+02  0.51100000000E-03 0. -1.
         11   -1    0    0    0    0 -0.00000000000E+00 -0.00000000000E+00 -0.45593999997E+02  0.45594000000E+02  0.51100000000E-03 0.  1.
    9900012    2    1    2    0    0 -0.16087664315E+02 -0.91100632275E+01 -0.29788668504E+01  0.72461552317E+02  0.69999976581E+02 0.  0.
         12    1    1    2    0    0  0.16087664315E+02  0.91100632275E+01  0.29788668504E+01  0.18726447683E+02  0.00000000000E+00 0. -1.
         11    1    3    3    0    0 -0.14855133735E+02  0.19142274531E+02  0.11280240909E+02  0.26727242801E+02  0.51100000000E-03 0. -1.
        -11    1    3    3    0    0  0.94184752812E+00  0.11006490603E-01  0.90106280565E+01  0.90597249486E+01  0.51100000000E-03 0.  1.
        -12    1    3    3    0    0 -0.21743781079E+01 -0.28263344249E+02 -0.23269735816E+02  0.36674584568E+02  0.00000000000E+00 0.  1.
</event>
<event>
 7    1  0.1692604E-013  0.7246157E+02  0.7816164E-02  0.1226708E+00
        -11   -1    0    0    0    0  0.00000000000E+00  0.00000000000E+00  0.45593999997E+02  0.45594000000E+02  0.51100000000E-03 0.  1.
         11   -1    0    0    0    0 -0.00000000000E+00 -0.00000000000E+00 -0.45593999997E+02  0.45594000000E+02  0.51100000000E-03 0. -1.
    9900012    2    1    2    0    0  0.88944675887E+01 -0.12993813869E+02  0.10135503148E+02  0.72461570106E+02  0.69999999754E+02 0.  0.
         12    1    1    2    0    0 -0.88944675887E+01  0.12993813869E+02 -0.10135503148E+02  0.18726429894E+02  0.00000000000E+00 0. -1.
         11    1    3    3    0    0 -0.12552239189E+02  0.73372460371E+01 -0.16488983199E+02  0.21983640628E+02  0.51100000000E-03 0. -1.
        -11    1    3    3    0    0  0.12741743450E+02  0.65413510070E+01  0.61315215785E+01  0.15580014643E+02  0.51100000000E-03 0.  1.
        -12    1    3    3    0    0  0.87049633280E+01 -0.26872410913E+02  0.20492964768E+02  0.34897914834E+02  0.00000000000E+00 0.  1.
</event>
<event>
 7    1  0.1692604E-013  0.7246159E+02  0.7816164E-02  0.1226708E+00
        -11   -1    0    0    0    0  0.00000000000E+00  0.00000000000E+00  0.45593999997E+02  0.45594000000E+02  0.51100000000E-03 0.  1.
         11   -1    0    0    0    0 -0.00000000000E+00 -0.00000000000E+00 -0.45593999997E+02  0.45594000000E+02  0.51100000000E-03 0. -1.
    9900012    2    1    2    0    0 -0.66093578163E+00 -0.88627944424E+01  0.16483096243E+02  0.72461590221E+02  0.70000025959E+02 0.  0.
         12    1    1    2    0    0  0.66093578163E+00  0.88627944424E+01 -0.16483096243E+02  0.18726409779E+02  0.00000000000E+00 0. -1.
         11    1    3    3    0    0  0.91180669172E+01 -0.38415703486E+01 -0.54097830396E+01  0.11276637790E+02  0.51100000000E-03 0. -1.
        -11    1    3    3    0    0  0.11545633049E+02  0.20704201703E+02  0.84287713372E+01  0.25159685951E+02  0.51100000000E-03 0.  1.
        -12    1    3    3    0    0 -0.21324635748E+02 -0.25725425796E+02  0.13464107945E+02  0.36025266480E+02  0.00000000000E+00 0.  1.
</event>
<event>
 7    1  0.1692604E-013  0.7246158E+02  0.7816164E-02  0.1226708E+00
        -11   -1    0    0    0    0  0.00000000000E+00  0.00000000000E+00  0.45593999997E+02  0.45594000000E+02  0.51100000000E-03 0.  1.
         11   -1    0    0    0    0 -0.00000000000E+00 -0.00000000000E+00 -0.45593999997E+02  0.45594000000E+02  0.51100000000E-03 0. -1.
    9900012    2    1    2    0    0  0.17821479834E+02 -0.57509723579E+01  0.96575585007E-02  0.72461576961E+02  0.70000008685E+02 0.  0.
         12    1    1    2    0    0 -0.17821479834E+02  0.57509723579E+01 -0.96575585007E-02  0.18726423039E+02  0.00000000000E+00 0. -1.
         11    1    3    3    0    0 -0.81208482357E+01  0.78468162364E+01 -0.10461760501E+02  0.15393801810E+02  0.51100000000E-03 0. -1.
        -11    1    3    3    0    0  0.14921765335E+02 -0.58703220798E+01 -0.18884134415E+02  0.24773580583E+02  0.51100000000E-03 0.  1.
        -12    1    3    3    0    0  0.11020562735E+02 -0.77274665145E+01  0.29355552475E+02  0.32294194568E+02  0.00000000000E+00 0.  1.
</event>
<event>
 7    1  0.1692604E-013  0.7246157E+02  0.7816164E-02  0.1226708E+00
        -11   -1    0    0    0    0  0.00000000000E+00  0.00000000000E+00  0.45593999997E+02  0.45594000000E+02  0.51100000000E-03 0. -1.
         11   -1    0    0    0    0 -0.00000000000E+00 -0.00000000000E+00 -0.45593999997E+02  0.45594000000E+02  0.51100000000E-03 0.  1.
    9900012    2    1    2    0    0  0.11104648422E+02  0.34392273384E+01 -0.14681198691E+02  0.72461572250E+02  0.70000002548E+02 0.  0.
         12    1    1    2    0    0 -0.11104648422E+02 -0.34392273384E+01  0.14681198691E+02  0.18726427750E+02  0.00000000000E+00 0. -1.
         11    1    3    3    0    0  0.14212702326E+02 -0.64131009695E+01  0.53821587040E+01  0.16495344920E+02  0.51100000000E-03 0. -1.
        -11    1    3    3    0    0  0.22619555210E+01 -0.19978781004E+02 -0.15339610285E+02  0.25289756367E+02  0.51100000000E-03 0.  1.
         12    1    3    3    0    0 -0.53700094255E+01  0.29831109311E+02 -0.47237471100E+01  0.30676470963E+02  0.00000000000E+00 0. -1.
</event>
<event>
 7    1  0.1692604E-013  0.7246157E+02  0.7816164E-02  0.1226708E+00
        -11   -1    0    0    0    0  0.00000000000E+00  0.00000000000E+00  0.45593999997E+02  0.45594000000E+02  0.51100000000E-03 0. -1.
         11   -1    0    0    0    0 -0.00000000000E+00 -0.00000000000E+00 -0.45593999997E+02  0.45594000000E+02  0.51100000000E-03 0.  1.
    9900012    2    1    2    0    0 -0.16138178494E+02  0.85771917652E+01  0.40829251052E+01  0.72461566781E+02  0.69999995423E+02 0.  0.
         12    1    1    2    0    0  0.16138178494E+02 -0.85771917652E+01 -0.40829251052E+01  0.18726433219E+02  0.00000000000E+00 0. -1.
         11    1    3    3    0    0 -0.78871308761E+01  0.20543963124E+02  0.16687698217E+02  0.27617757446E+02  0.51100000000E-03 0. -1.
        -11    1    3    3    0    0 -0.67480107573E+01  0.14779631830E+02 -0.47345756686E+01  0.16923042671E+02  0.51100000000E-03 0.  1.
        -12    1    3    3    0    0 -0.15030368610E+01 -0.26746403188E+02 -0.78701974435E+01  0.27920766664E+02  0.00000000000E+00 0.  1.
</event>
<event>
 7    1  0.1692604E-013  0.7246153E+02  0.7816164E-02  0.1226708E+00
        -11   -1    0    0    0    0  0.00000000000E+00  0.00000000000E+00  0.45593999997E+02  0.45594000000E+02  0.51100000000E-03 0. -1.
         11   -1    0    0    0    0 -0.00000000000E+00 -0.00000000000E+00 -0.45593999997E+02  0.45594000000E+02  0.51100000000E-03 0.  1.
    9900012    2    1    2    0    0 -0.91143913920E+01 -0.10255793935E+02 -0.12744694763E+02  0.72461529850E+02  0.69999947314E+02 0.  0.
         12    1    1    2    0    0  0.91143913920E+01  0.10255793935E+02  0.12744694763E+02  0.18726470150E+02  0.00000000000E+00 0. -1.
         11    1    3    3    0    0 -0.71195891546E+01  0.21116971196E+02 -0.10347165908E+02  0.24569877184E+02  0.51100000000E-03 0. -1.
        -11    1    3    3    0    0 -0.79465455423E+01  0.58452839756E+01  0.15832819509E+01  0.99910816636E+01  0.51100000000E-03 0.  1.
        -12    1    3    3    0    0  0.59517433049E+01 -0.37218049107E+02 -0.39808108060E+01  0.37900571003E+02  0.00000000000E+00 0.  1.
</event>
<event>
 7    1  0.1692604E-013  0.7246157E+02  0.7816164E-02  0.1226708E+00
        -11   -1    0    0    0    0  0.00000000000E+00  0.00000000000E+00  0.45593999997E+02  0.45594000000E+02  0.51100000000E-03 0. -1.
         11   -1    0    0    0    0 -0.00000000000E+00 -0.00000000000E+00 -0.45593999997E+02  0.45594000000E+02  0.51100000000E-03 0.  1.
    9900012    2    1    2    0    0 -0.71375654199E+01  0.10639957987E+02 -0.13657440980E+02  0.72461568407E+02  0.69999997541E+02 0.  0.
         12    1    1    2    0    0  0.71375654199E+01 -0.10639957987E+02  0.13657440980E+02  0.18726431593E+02  0.00000000000E+00 0. -1.
         11    1    3    3    0    0  0.10765356837E+02 -0.25634161149E+01 -0.40604162087E+01  0.11787747455E+02  0.51100000000E-03 0. -1.
        -11    1    3    3    0    0  0.18914126479E+02  0.77840050665E+01 -0.11401312796E+02  0.23416337225E+02  0.51100000000E-03 0.  1.
        -12    1    3    3    0    0 -0.36817048736E+02  0.54193690353E+01  0.18042880247E+01  0.37257483727E+02  0.00000000000E+00 0.  1.
</event>
<event>
 7    1  0.1692604E-013  0.7246156E+02  0.7816164E-02  0.1226708E+00
        -11   -1    0    0    0    0  0.00000000000E+00  0.00000000000E+00  0.45593999997E+02  0.45594000000E+02  0.51100000000E-03 0.  1.
         11   -1    0    0    0    0 -0.00000000000E+00 -0.00000000000E+00 -0.45593999997E+02  0.45594000000E+02  0.51100000000E-03 0. -1.
    9900012    2    1    2    0    0 -0.16068960667E+01  0.10605883483E+01  0.18627195353E+02  0.72461564959E+02  0.69999993050E+02 0.  0.
         12    1    1    2    0    0  0.16068960667E+01 -0.10605883483E+01 -0.18627195353E+02  0.18726435041E+02  0.00000000000E+00 0. -1.
         11    1    3    3    0    0 -0.14512066648E+02 -0.12636418328E+02 -0.14087488790E+02  0.23848196729E+02  0.51100000000E-03 0. -1.
        -11    1    3    3    0    0  0.11044940944E+02  0.10592370835E+02 -0.39315927857E+00  0.15308285824E+02  0.51100000000E-03 0.  1.
        -12    1    3    3    0    0  0.18602296373E+01  0.31046358408E+01  0.33107843422E+02  0.33305082406E+02  0.00000000000E+00 0.  1.
</event>
<event>
 7    1  0.1692604E-013  0.7246156E+02  0.7816164E-02  0.1226708E+00
        -11   -1    0    0    0    0  0.00000000000E+00  0.00000000000E+00  0.45593999997E+02  0.45594000000E+02  0.51100000000E-03 0.  1.
         11   -1    0    0    0    0 -0.00000000000E+00 -0.00000000000E+00 -0.45593999997E+02  0.45594000000E+02  0.51100000000E-03 0. -1.
    9900012    2    1    2    0    0  0.39232837720E+01 -0.60538553360E+01  0.17281151147E+02  0.72461561338E+02  0.69999988333E+02 0.  0.
         12    1    1    2    0    0 -0.39232837720E+01  0.60538553360E+01 -0.17281151147E+02  0.18726438662E+02  0.00000000000E+00 0. -1.
         11    1    3    3    0    0  0.55023299806E+01  0.87731376455E+01 -0.20738220460E+02  0.23180107150E+02  0.51100000000E-03 0. -1.
        -11    1    3    3    0    0  0.55824924008E+01  0.64890757729E+01  0.75579263870E+01  0.11419044501E+02  0.51100000000E-03 0.  1.
        -12    1    3    3    0    0 -0.71615386095E+01 -0.21316068754E+02  0.30461445220E+02  0.37862409687E+02  0.00000000000E+00 0.  1.
</event>
<event>
 7    1  0.1692604E-013  0.7246156E+02  0.7816164E-02  0.1226708E+00
        -11   -1    0    0    0    0  0.00000000000E+00  0.00000000000E+00  0.45593999997E+02  0.45594000000E+02  0.51100000000E-03 0.  1.
         11   -1    0    0    0    0 -0.00000000000E+00 -0.00000000000E+00 -0.45593999997E+02  0.45594000000E+02  0.51100000000E-03 0. -1.
    9900012    2    1    2    0    0 -0.56081333268E-01 -0.17082335187E+01  0.18648277727E+02  0.72461562297E+02  0.69999989582E+02 0.  0.
         12    1    1    2    0    0  0.56081333268E-01  0.17082335187E+01 -0.18648277727E+02  0.18726437703E+02  0.00000000000E+00 0. -1.
         11    1    3    3    0    0 -0.23055457398E+02 -0.12291736671E+02  0.18936342868E+02  0.32268033527E+02  0.51100000000E-03 0. -1.
        -11    1    3    3    0    0  0.85977634456E+01 -0.43860284648E+01  0.12505815820E+02  0.15797284942E+02  0.51100000000E-03 0.  1.
         12    1    3    3    0    0  0.14401612619E+02  0.14969531617E+02 -0.12793880961E+02  0.24396243828E+02  0.00000000000E+00 0. -1.
</event>
<event>
 7    1  0.1692604E-013  0.7246159E+02  0.7816164E-02  0.1226708E+00
        -11   -1    0    0    0    0  0.00000000000E+00  0.00000000000E+00  0.45593999997E+02  0.45594000000E+02  0.51100000000E-03 0.  1.
         11   -1    0    0    0    0 -0.00000000000E+00 -0.00000000000E+00 -0.45593999997E+02  0.45594000000E+02  0.51100000000E-03 0. -1.
    9900012    2    1    2    0    0 -0.12314166342E+02 -0.10520230050E+00  0.14107751399E+02  0.72461590580E+02  0.70000026426E+02 0.  0.
         12    1    1    2    0    0  0.12314166342E+02  0.10520230050E+00 -0.14107751399E+02  0.18726409420E+02  0.00000000000E+00 0. -1.
         11    1    3    3    0    0 -0.26241939214E+02 -0.24986569005E+01  0.10159329430E+01  0.26380196740E+02  0.51100000000E-03 0. -1.
        -11    1    3    3    0    0  0.43846305874E+01 -0.16468055398E+02 -0.55237422155E+01  0.17914618676E+02  0.51100000000E-03 0.  1.
        -12    1    3    3    0    0  0.95431422849E+01  0.18861509998E+02  0.18615560671E+02  0.28166775165E+02  0.00000000000E+00 0.  1.
</event>
<event>
 7    1  0.1692604E-013  0.7246164E+02  0.7816164E-02  0.1226708E+00
        -11   -1    0    0    0    0  0.00000000000E+00  0.00000000000E+00  0.45593999997E+02  0.45594000000E+02  0.51100000000E-03 0. -1.
         11   -1    0    0    0    0 -0.00000000000E+00 -0.00000000000E+00 -0.45593999997E+02  0.45594000000E+02  0.51100000000E-03 0.  1.
    9900012    2    1    2    0    0  0.10823515648E+02 -0.14596535335E+02 -0.45243117552E+01  0.72461635387E+02  0.70000084795E+02 0.  0.
         12    1    1    2    0    0 -0.10823515648E+02  0.14596535335E+02  0.45243117552E+01  0.18726364613E+02  0.00000000000E+00 0. -1.
         11    1    3    3    0    0 -0.71951662991E+01 -0.32340821965E+01  0.29660561724E+01  0.84277633571E+01  0.51100000000E-03 0. -1.
        -11    1    3    3    0    0 -0.59995276148E+01 -0.30952548190E+02  0.20757982411E+01  0.31596890822E+02  0.51100000000E-03 0.  1.
        -12    1    3    3    0    0  0.24018209562E+02  0.19590095051E+02 -0.95661661686E+01  0.32436981207E+02  0.00000000000E+00 0.  1.
</event>
<event>
 7    1  0.1692604E-013  0.7246155E+02  0.7816164E-02  0.1226708E+00
        -11   -1    0    0    0    0  0.00000000000E+00  0.00000000000E+00  0.45593999997E+02  0.45594000000E+02  0.51100000000E-03 0.  1.
         11   -1    0    0    0    0 -0.00000000000E+00 -0.00000000000E+00 -0.45593999997E+02  0.45594000000E+02  0.51100000000E-03 0. -1.
    9900012    2    1    2    0    0  0.57764938055E+01  0.19288409607E+01  0.17708522275E+02  0.72461546270E+02  0.69999968703E+02 0.  0.
         12    1    1    2    0    0 -0.57764938055E+01 -0.19288409607E+01 -0.17708522275E+02  0.18726453730E+02  0.00000000000E+00 0. -1.
         11    1    3    3    0    0  0.14325477190E+02 -0.23501960515E+02 -0.53916702880E+01  0.28046952660E+02  0.51100000000E-03 0. -1.
        -11    1    3    3    0    0 -0.60331420736E+01 -0.20951856992E+01  0.13876250250E+02  0.15275435432E+02  0.51100000000E-03 0.  1.
        -12    1    3    3    0    0 -0.25158413111E+01  0.27525987175E+02  0.92239423136E+01  0.29139158177E+02  0.00000000000E+00 0.  1.
</event>
<event>
 7    1  0.1692604E-013  0.7246161E+02  0.7816164E-02  0.1226708E+00
        -11   -1    0    0    0    0  0.00000000000E+00  0.00000000000E+00  0.45593999997E+02  0.45594000000E+02  0.51100000000E-03 0.  1.
         11   -1    0    0    0    0 -0.00000000000E+00 -0.00000000000E+00 -0.45593999997E+02  0.45594000000E+02  0.51100000000E-03 0. -1.
    9900012    2    1    2    0    0  0.17071412464E+02 -0.76510651806E+01 -0.84017253907E+00  0.72461606545E+02  0.70000047224E+02 0.  0.
         12    1    1    2    0    0 -0.17071412464E+02  0.76510651806E+01  0.84017253907E+00  0.18726393455E+02  0.00000000000E+00 0. -1.
         11    1    3    3    0    0  0.11204450409E+02  0.19758813658E+02 -0.12866352359E+02  0.26105429501E+02  0.51100000000E-03 0. -1.
        -11    1    3    3    0    0  0.67529937886E+01  0.68224204140E+01  0.66864640008E+01  0.11698595920E+02  0.51100000000E-03 0.  1.
         12    1    3    3    0    0 -0.88603173326E+00 -0.34232299253E+02  0.53397158188E+01  0.34657581124E+02  0.00000000000E+00 0. -1.
</event>
<event>
 7    1  0.1692604E-013  0.7246159E+02  0.7816164E-02  0.1226708E+00
        -11   -1    0    0    0    0  0.00000000000E+00  0.00000000000E+00  0.45593999997E+02  0.45594000000E+02  0.51100000000E-03 0. -1.
         11   -1    0    0    0    0 -0.00000000000E+00 -0.00000000000E+00 -0.45593999997E+02  0.45594000000E+02  0.51100000000E-03 0.  1.
    9900012    2    1    2    0    0  0.13872449167E+02  0.17316969890E+00 -0.12577898932E+02  0.72461591504E+02  0.70000027629E+02 0.  0.
         12    1    1    2    0    0 -0.13872449167E+02 -0.17316969890E+00  0.12577898932E+02  0.18726408496E+02  0.00000000000E+00 0. -1.
         11    1    3    3    0    0  0.22069904261E+02  0.11466037990E+02 -0.24605369252E+01  0.24992097621E+02  0.51100000000E-03 0. -1.
        -11    1    3    3    0    0  0.16000167760E+02  0.40711432890E+01  0.14211365703E+01  0.16571035134E+02  0.51100000000E-03 0.  1.
        -12    1    3    3    0    0 -0.24197622854E+02 -0.15364011580E+02 -0.11538498577E+02  0.30898458748E+02  0.00000000000E+00 0.  1.
</event>
<event>
 7    1  0.1692604E-013  0.7246156E+02  0.7816164E-02  0.1226708E+00
        -11   -1    0    0    0    0  0.00000000000E+00  0.00000000000E+00  0.45593999997E+02  0.45594000000E+02  0.51100000000E-03 0. -1.
         11   -1    0    0    0    0 -0.00000000000E+00 -0.00000000000E+00 -0.45593999997E+02  0.45594000000E+02  0.51100000000E-03 0.  1.
    9900012    2    1    2    0    0 -0.18045387222E+02  0.83685026226E-01 -0.50036470658E+01  0.72461561814E+02  0.69999988953E+02 0.  0.
         12    1    1    2    0    0  0.18045387222E+02 -0.83685026226E-01  0.50036470658E+01  0.18726438186E+02  0.00000000000E+00 0. -1.
         11    1    3    3    0    0 -0.11290703345E+02 -0.88063540424E+01  0.12941810742E+02  0.19300837264E+02  0.51100000000E-03 0. -1.
        -11    1    3    3    0    0 -0.26967055052E+02  0.11538435898E+02 -0.75989722089E+01  0.30300197030E+02  0.51100000000E-03 0.  1.
         12    1    3    3    0    0  0.20212371175E+02 -0.26483968296E+01 -0.10346485599E+02  0.22860527521E+02  0.00000000000E+00 0. -1.
</event>
<event>
 7    1  0.1692604E-013  0.7246158E+02  0.7816164E-02  0.1226708E+00
        -11   -1    0    0    0    0  0.00000000000E+00  0.00000000000E+00  0.45593999997E+02  0.45594000000E+02  0.51100000000E-03 0. -1.
         11   -1    0    0    0    0 -0.00000000000E+00 -0.00000000000E+00 -0.45593999997E+02  0.45594000000E+02  0.51100000000E-03 0.  1.
    9900012    2    1    2    0    0 -0.11839427443E+02 -0.12789933107E+02 -0.68501232115E+01  0.72461584992E+02  0.70000019146E+02 0.  0.
         12    1    1    2    0    0  0.11839427443E+02  0.12789933107E+02  0.68501232115E+01  0.18726415008E+02  0.00000000000E+00 0. -1.
         11    1    3    3    0    0 -0.15067837916E+02  0.23316972628E+02 -0.12369288495E+02  0.30392766411E+02  0.51100000000E-03 0. -1.
        -11    1    3    3    0    0 -0.22638375087E+01 -0.91772664430E+01 -0.71042684416E+01  0.11824458126E+02  0.51100000000E-03 0.  1.
        -12    1    3    3    0    0  0.54922479815E+01 -0.26929639292E+02  0.12623433725E+02  0.30244360454E+02  0.00000000000E+00 0.  1.
</event>
<event>
 7    1  0.1692604E-013  0.7246160E+02  0.7816164E-02  0.1226708E+00
        -11   -1    0    0    0    0  0.00000000000E+00  0.00000000000E+00  0.45593999997E+02  0.45594000000E+02  0.51100000000E-03 0.  1.
         11   -1    0    0    0    0 -0.00000000000E+00 -0.00000000000E+00 -0.45593999997E+02  0.45594000000E+02  0.51100000000E-03 0. -1.
    9900012    2    1    2    0    0  0.31001035488E+00  0.14611317304E+02  0.11708605101E+02  0.72461597964E+02  0.70000036045E+02 0.  0.
         12    1    1    2    0    0 -0.31001035488E+00 -0.14611317304E+02 -0.11708605101E+02  0.18726402036E+02  0.00000000000E+00 0. -1.
         11    1    3    3    0    0 -0.21732421741E+02  0.89925275286E+01  0.20814825101E+02  0.31407334340E+02  0.51100000000E-03 0. -1.
        -11    1    3    3    0    0 -0.50815528338E+01  0.43829392918E+00  0.73215543540E+01  0.89229725535E+01  0.51100000000E-03 0.  1.
         12    1    3    3    0    0  0.27123984930E+02  0.51804958462E+01 -0.16427774354E+02  0.32131291071E+02  0.00000000000E+00 0. -1.
</event>
<event>
 7    1  0.1692604E-013  0.7246160E+02  0.7816164E-02  0.1226708E+00
        -11   -1    0    0    0    0  0.00000000000E+00  0.00000000000E+00  0.45593999997E+02  0.45594000000E+02  0.51100000000E-03 0. -1.
         11   -1    0    0    0    0 -0.00000000000E+00 -0.00000000000E+00 -0.45593999997E+02  0.45594000000E+02  0.51100000000E-03 0.  1.
    9900012    2    1    2    0    0  0.17029255052E+02  0.16577861016E+01 -0.76114468937E+01  0.72461604025E+02  0.70000043941E+02 0.  0.
         12    1    1    2    0    0 -0.17029255052E+02 -0.16577861016E+01  0.76114468937E+01  0.18726395975E+02  0.00000000000E+00 0. -1.
         11    1    3    3    0    0  0.83458634709E+01  0.61140873191E+01 -0.13977652617E+01  0.10439791608E+02  0.51100000000E-03 0. -1.
        -11    1    3    3    0    0 -0.92454801612E+01 -0.75830854674E+01 -0.29870184349E+02  0.32174679516E+02  0.51100000000E-03 0.  1.
         12    1    3    3    0    0  0.17928871742E+02  0.31267842498E+01  0.23656502717E+02  0.29847132902E+02  0.00000000000E+00 0. -1.
</event>
<event>
 7    1  0.1692604E-013  0.7246155E+02  0.7816164E-02  0.1226708E+00
        -11   -1    0    0    0    0  0.00000000000E+00  0.00000000000E+00  0.45593999997E+02  0.45594000000E+02  0.51100000000E-03 0. -1.
         11   -1    0    0    0    0 -0.00000000000E+00 -0.00000000000E+00 -0.45593999997E+02  0.45594000000E+02  0.51100000000E-03 0.  1.
    9900012    2    1    2    0    0 -0.12408795937E+02  0.78654572891E+01  0.11611899360E+02  0.72461552346E+02  0.69999976619E+02 0.  0.
         12    1    1    2    0    0  0.12408795937E+02 -0.78654572891E+01 -0.11611899360E+02  0.18726447654E+02  0.00000000000E+00 0. -1.
         11    1    3    3    0    0  0.18858007417E+02  0.24345460247E+02  0.86140880022E+01  0.31976997839E+02  0.51100000000E-03 0. -1.
        -11    1    3    3    0    0 -0.24426515797E+01 -0.10523570191E+02  0.22873219088E+01  0.11042822017E+02  0.51100000000E-03 0.  1.
        -12    1    3    3    0    0 -0.28824151774E+02 -0.59564327669E+01  0.71048944941E+00  0.29441732491E+02  0.00000000000E+00 0.  1.
</event>
<event>
 7    1  0.1692604E-013  0.7246155E+02  0.7816164E-02  0.1226708E+00
        -11   -1    0    0    0    0  0.00000000000E+00  0.00000000000E+00  0.45593999997E+02  0.45594000000E+02  0.51100000000E-03 0.  1.
         11   -1    0    0    0    0 -0.00000000000E+00 -0.00000000000E+00 -0.45593999997E+02  0.45594000000E+02  0.51100000000E-03 0. -1.
    9900012    2    1    2    0    0  0.77938099361E+01  0.16766139620E+02 -0.29720598303E+01  0.72461546766E+02  0.69999969350E+02 0.  0.
         12    1    1    2    0    0 -0.77938099361E+01 -0.16766139620E+02  0.29720598303E+01  0.18726453234E+02  0.00000000000E+00 0. -1.
         11    1    3    3    0    0 -0.66973000470E+01  0.90980744536E+01  0.11376426727E+02  0.16032837304E+02  0.51100000000E-03 0. -1.
        -11    1    3    3    0    0  0.34757776236E+01  0.13900778943E+01  0.19722765461E+02  0.20074880431E+02  0.51100000000E-03 0.  1.
         12    1    3    3    0    0  0.11015332360E+02  0.62779872722E+01 -0.34071252018E+02  0.36353829031E+02  0.00000000000E+00 0. -1.
</event>
<event>
 7    1  0.1692604E-013  0.7246163E+02  0.7816164E-02  0.1226708E+00
        -11   -1    0    0    0    0  0.00000000000E+00  0.00000000000E+00  0.45593999997E+02  0.45594000000E+02  0.51100000000E-03 0.  1.
         11   -1    0    0    0    0 -0.00000000000E+00 -0.00000000000E+00 -0.45593999997E+02  0.45594000000E+02  0.51100000000E-03 0. -1.
    9900012    2    1    2    0    0 -0.10883493061E+02 -0.69519476805E+01  0.13560861046E+02  0.72461629554E+02  0.70000077197E+02 0.  0.
         12    1    1    2    0    0  0.10883493061E+02  0.69519476805E+01 -0.13560861046E+02  0.18726370446E+02  0.00000000000E+00 0. -1.
         11    1    3    3    0    0 -0.28522200340E+02 -0.13203514536E+02  0.77907220884E+00  0.31439714727E+02  0.51100000000E-03 0. -1.
        -11    1    3    3    0    0  0.48484711702E+01 -0.14057073133E+02  0.63909590143E+01  0.16184972509E+02  0.51100000000E-03 0.  1.
        -12    1    3    3    0    0  0.12790236109E+02  0.20308639988E+02  0.63908298229E+01  0.24836942318E+02  0.00000000000E+00 0.  1.
</event>
<event>
 7    1  0.1692604E-013  0.7246156E+02  0.7816164E-02  0.1226708E+00
        -11   -1    0    0    0    0  0.00000000000E+00  0.00000000000E+00  0.45593999997E+02  0.45594000000E+02  0.51100000000E-03 0.  1.
         11   -1    0    0    0    0 -0.00000000000E+00 -0.00000000000E+00 -0.45593999997E+02  0.45594000000E+02  0.51100000000E-03 0. -1.
    9900012    2    1    2    0    0  0.77751208409E+01 -0.15260244714E+02  0.75731006076E+01  0.72461563456E+02  0.69999991092E+02 0.  0.
         12    1    1    2    0    0 -0.77751208409E+01  0.15260244714E+02 -0.75731006076E+01  0.18726436544E+02  0.00000000000E+00 0. -1.
         11    1    3    3    0    0  0.54513817220E+00  0.18564062708E+02  0.98169759289E+01  0.21007013508E+02  0.51100000000E-03 0. -1.
        -11    1    3    3    0    0 -0.13392723994E+01  0.82089263851E+01  0.12664440087E+01  0.84133229847E+01  0.51100000000E-03 0.  1.
        -12    1    3    3    0    0  0.85692550681E+01 -0.42033233807E+02 -0.35103193301E+01  0.43041226964E+02  0.00000000000E+00 0.  1.
</event>
<event>
 7    1  0.1692604E-013  0.7246158E+02  0.7816164E-02  0.1226708E+00
        -11   -1    0    0    0    0  0.00000000000E+00  0.00000000000E+00  0.45593999997E+02  0.45594000000E+02  0.51100000000E-03 0.  1.
         11   -1    0    0    0    0 -0.00000000000E+00 -0.00000000000E+00 -0.45593999997E+02  0.45594000000E+02  0.51100000000E-03 0. -1.
    9900012    2    1    2    0    0 -0.12599104754E+02 -0.56964498388E+00  0.13842572751E+02  0.72461581326E+02  0.70000014370E+02 0.  0.
         12    1    1    2    0    0  0.12599104754E+02  0.56964498388E+00 -0.13842572751E+02  0.18726418674E+02  0.00000000000E+00 0. -1.
         11    1    3    3    0    0  0.15704031166E+02 -0.55807501765E+01 -0.15860555677E+02  0.23006924914E+02  0.51100000000E-03 0. -1.
        -11    1    3    3    0    0  0.17169014571E+01 -0.36830650787E+01 -0.23436345691E+01  0.46909852102E+01  0.51100000000E-03 0.  1.
        -12    1    3    3    0    0 -0.30020037377E+02  0.86941702713E+01  0.32046762996E+02  0.44763671201E+02  0.00000000000E+00 0.  1.
</event>
<event>
 7    1  0.1692604E-013  0.7246155E+02  0.7816164E-02  0.1226708E+00
        -11   -1    0    0    0    0  0.00000000000E+00  0.00000000000E+00  0.45593999997E+02  0.45594000000E+02  0.51100000000E-03 0.  1.
         11   -1    0    0    0    0 -0.00000000000E+00 -0.00000000000E+00 -0.45593999997E+02  0.45594000000E+02  0.51100000000E-03 0. -1.
    9900012    2    1    2    0    0  0.18244063564E+02  0.11689746585E+01  0.40580177396E+01  0.72461551724E+02  0.69999975809E+02 0.  0.
         12    1    1    2    0    0 -0.18244063564E+02 -0.11689746585E+01 -0.40580177396E+01  0.18726448276E+02  0.00000000000E+00 0. -1.
         11    1    3    3    0    0  0.85181633963E+01 -0.30783906622E+00 -0.30248634678E+02  0.31426641129E+02  0.51100000000E-03 0. -1.
        -11    1    3    3    0    0  0.64266193581E+01 -0.42027960325E+01  0.18209397367E+01  0.78918155485E+01  0.51100000000E-03 0.  1.
        -12    1    3    3    0    0  0.32992808091E+01  0.56796097572E+01  0.32485712681E+02  0.33143095046E+02  0.00000000000E+00 0.  1.
</event>
<event>
 7    1  0.1692604E-013  0.7246151E+02  0.7816164E-02  0.1226708E+00
        -11   -1    0    0    0    0  0.00000000000E+00  0.00000000000E+00  0.45593999997E+02  0.45594000000E+02  0.51100000000E-03 0. -1.
         11   -1    0    0    0    0 -0.00000000000E+00 -0.00000000000E+00 -0.45593999997E+02  0.45594000000E+02  0.51100000000E-03 0.  1.
    9900012    2    1    2    0    0 -0.13042214620E+02  0.11739792496E+02  0.65390731107E+01  0.72461506276E+02  0.69999916604E+02 0.  0.
         12    1    1    2    0    0  0.13042214620E+02 -0.11739792496E+02 -0.65390731107E+01  0.18726493724E+02  0.00000000000E+00 0. -1.
         11    1    3    3    0    0  0.16132580949E+01 -0.17672757646E+02  0.14832801959E+02  0.23128791121E+02  0.51100000000E-03 0. -1.
        -11    1    3    3    0    0 -0.76735517227E+01 -0.44546726568E+01  0.72137179593E+01  0.11435262637E+02  0.51100000000E-03 0.  1.
         12    1    3    3    0    0 -0.69819209923E+01  0.33867222799E+02 -0.15507446808E+02  0.37897452518E+02  0.00000000000E+00 0. -1.
</event>
<event>
 7    1  0.1692604E-013  0.7246157E+02  0.7816164E-02  0.1226708E+00
        -11   -1    0    0    0    0  0.00000000000E+00  0.00000000000E+00  0.45593999997E+02  0.45594000000E+02  0.51100000000E-03 0.  1.
         11   -1    0    0    0    0 -0.00000000000E+00 -0.00000000000E+00 -0.45593999997E+02  0.45594000000E+02  0.51100000000E-03 0. -1.
    9900012    2    1    2    0    0 -0.65360636151E+01  0.14060454282E+02  0.10500603298E+02  0.72461570233E+02  0.69999999920E+02 0.  0.
         12    1    1    2    0    0  0.65360636151E+01 -0.14060454282E+02 -0.10500603298E+02  0.18726429767E+02  0.00000000000E+00 0. -1.
         11    1    3    3    0    0 -0.66857346346E+01 -0.55553240711E+01  0.72552288224E+00  0.87227895110E+01  0.51100000000E-03 0. -1.
        -11    1    3    3    0    0 -0.77508916168E+01 -0.20479102542E+02  0.59706025075E+01  0.22696212379E+02  0.51100000000E-03 0.  1.
         12    1    3    3    0    0  0.79005626363E+01  0.40094880896E+02  0.38044779084E+01  0.41042568343E+02  0.00000000000E+00 0. -1.
</event>
<event>
 7    1  0.1692604E-013  0.7246152E+02  0.7816164E-02  0.1226708E+00
        -11   -1    0    0    0    0  0.00000000000E+00  0.00000000000E+00  0.45593999997E+02  0.45594000000E+02  0.51100000000E-03 0.  1.
         11   -1    0    0    0    0 -0.00000000000E+00 -0.00000000000E+00 -0.45593999997E+02  0.45594000000E+02  0.51100000000E-03 0. -1.
    9900012    2    1    2    0    0  0.65063816460E+01  0.15359693772E+02  0.85104567915E+01  0.72461519559E+02  0.69999933908E+02 0.  0.
         12    1    1    2    0    0 -0.65063816460E+01 -0.15359693772E+02 -0.85104567915E+01  0.18726480441E+02  0.00000000000E+00 0. -1.
         11    1    3    3    0    0 -0.38990590204E+01  0.15392601249E+01  0.28354752633E+01  0.50608204084E+01  0.51100000000E-03 0. -1.
        -11    1    3    3    0    0 -0.15524565941E+02  0.25370645215E+02  0.19763122137E+02  0.35710821654E+02  0.51100000000E-03 0.  1.
         12    1    3    3    0    0  0.25930006608E+02 -0.11550211568E+02 -0.14088140609E+02  0.31689877497E+02  0.00000000000E+00 0. -1.
</event>
<event>
 7    1  0.1692604E-013  0.7246160E+02  0.7816164E-02  0.1226708E+00
        -11   -1    0    0    0    0  0.00000000000E+00  0.00000000000E+00  0.45593999997E+02  0.45594000000E+02  0.51100000000E-03 0. -1.
         11   -1    0    0    0    0 -0.00000000000E+00 -0.00000000000E+00 -0.45593999997E+02  0.45594000000E+02  0.51100000000E-03 0.  1.
    9900012    2    1    2    0    0  0.16543025725E+02 -0.66442578991E+01 -0.57323847623E+01  0.72461598898E+02  0.70000037261E+02 0.  0.
         12    1    1    2    0    0 -0.16543025725E+02  0.66442578991E+01  0.57323847623E+01  0.18726401102E+02  0.00000000000E+00 0. -1.
         11    1    3    3    0    0  0.88965629608E+01  0.30404627272E+01 -0.19487578764E+02  0.21636981593E+02  0.51100000000E-03 0. -1.
        -11    1    3    3    0    0 -0.19158073357E+01  0.17038757762E+02 -0.36497578810E+01  0.17530268586E+02  0.51100000000E-03 0.  1.
         12    1    3    3    0    0  0.95622701000E+01 -0.26723478389E+02  0.17404951882E+02  0.33294348720E+02  0.00000000000E+00 0. -1.
</event>
<event>
 7    1  0.1692604E-013  0.7246152E+02  0.7816164E-02  0.1226708E+00
        -11   -1    0    0    0    0  0.00000000000E+00  0.00000000000E+00  0.45593999997E+02  0.45594000000E+02  0.51100000000E-03 0.  1.
         11   -1    0    0    0    0 -0.00000000000E+00 -0.00000000000E+00 -0.45593999997E+02  0.45594000000E+02  0.51100000000E-03 0. -1.
    9900012    2    1    2    0    0 -0.34354118753E+01  0.16254623123E+02 -0.86409689270E+01  0.72461516838E+02  0.69999930363E+02 0.  0.
         12    1    1    2    0    0  0.34354118753E+01 -0.16254623123E+02  0.86409689270E+01  0.18726483162E+02  0.00000000000E+00 0. -1.
         11    1    3    3    0    0 -0.42484752584E+01 -0.39821830145E+01 -0.57669081665E+01  0.81953983213E+01  0.51100000000E-03 0. -1.
        -11    1    3    3    0    0  0.41220893857E+01 -0.21668088630E+02 -0.27757319482E+01  0.22230662921E+02  0.51100000000E-03 0.  1.
         12    1    3    3    0    0 -0.33090260026E+01  0.41904894768E+02 -0.98328812241E-01  0.42035455596E+02  0.00000000000E+00 0. -1.
</event>
<event>
 7    1  0.1692604E-013  0.7246157E+02  0.7816164E-02  0.1226708E+00
        -11   -1    0    0    0    0  0.00000000000E+00  0.00000000000E+00  0.45593999997E+02  0.45594000000E+02  0.51100000000E-03 0. -1.
         11   -1    0    0    0    0 -0.00000000000E+00 -0.00000000000E+00 -0.45593999997E+02  0.45594000000E+02  0.51100000000E-03 0.  1.
    9900012    2    1    2    0    0  0.78477568211E+01  0.13976303679E+02 -0.96827057242E+01  0.72461571034E+02  0.70000000964E+02 0.  0.
         12    1    1    2    0    0 -0.78477568211E+01 -0.13976303679E+02  0.96827057242E+01  0.18726428966E+02  0.00000000000E+00 0. -1.
         11    1    3    3    0    0  0.23090737460E+01  0.59373479931E+01 -0.48173158738E+01  0.79868927152E+01  0.51100000000E-03 0. -1.
        -11    1    3    3    0    0 -0.31071809000E+01  0.23197667491E+01 -0.33653957788E+02  0.33876610899E+02  0.51100000000E-03 0.  1.
         12    1    3    3    0    0  0.86458639751E+01  0.57191889371E+01  0.28788567938E+02  0.30598067421E+02  0.00000000000E+00 0. -1.
</event>
<event>
 7    1  0.1692604E-013  0.7246131E+02  0.7816164E-02  0.1226709E+00
        -11   -1    0    0    0    0  0.00000000000E+00  0.00000000000E+00  0.45593999997E+02  0.45594000000E+02  0.51100000000E-03 0.  1.
         11   -1    0    0    0    0 -0.00000000000E+00 -0.00000000000E+00 -0.45593999997E+02  0.45594000000E+02  0.51100000000E-03 0. -1.
    9900012    2    1    2    0    0 -0.12863262805E+02 -0.76323071760E+01  0.11268244915E+02  0.72461308186E+02  0.69999658555E+02 0.  0.
         12    1    1    2    0    0  0.12863262805E+02  0.76323071760E+01 -0.11268244915E+02  0.18726691814E+02  0.00000000000E+00 0. -1.
         11    1    3    3    0    0 -0.22609342762E+01  0.19930660176E+02  0.22746120662E+02  0.30327034874E+02  0.51100000000E-03 0. -1.
        -11    1    3    3    0    0  0.57235974065E+01  0.25633743076E+01 -0.15685857946E+01  0.64645894509E+01  0.51100000000E-03 0.  1.
        -12    1    3    3    0    0 -0.16325925935E+02 -0.30126341659E+02 -0.99092899522E+01  0.35669683861E+02  0.00000000000E+00 0.  1.
</event>
<event>
 7    1  0.1692604E-013  0.7246162E+02  0.7816164E-02  0.1226708E+00
        -11   -1    0    0    0    0  0.00000000000E+00  0.00000000000E+00  0.45593999997E+02  0.45594000000E+02  0.51100000000E-03 0. -1.
         11   -1    0    0    0    0 -0.00000000000E+00 -0.00000000000E+00 -0.45593999997E+02  0.45594000000E+02  0.51100000000E-03 0.  1.
    9900012    2    1    2    0    0 -0.16239240647E+02 -0.19684662432E+01  0.91153397337E+01  0.72461622492E+02  0.70000067997E+02 0.  0.
         12    1    1    2    0    0  0.16239240647E+02  0.19684662432E+01 -0.91153397337E+01  0.18726377508E+02  0.00000000000E+00 0. -1.
         11    1    3    3    0    0  0.59330873803E+01  0.19845967279E+02  0.18950956807E+02  0.28074948037E+02  0.51100000000E-03 0. -1.
        -11    1    3    3    0    0 -0.40000968685E+01 -0.13704204349E+01 -0.15829611766E+02  0.16384609731E+02  0.51100000000E-03 0.  1.
        -12    1    3    3    0    0 -0.18172231158E+02 -0.20444013088E+02  0.59939946931E+01  0.28002064723E+02  0.00000000000E+00 0.  1.
</event>
<event>
 7    1  0.2037335E-013  0.7246158E+02  0.7816164E-02  0.1226708E+00
        -11   -1    0    0    0    0  0.00000000000E+00  0.00000000000E+00  0.45593999997E+02  0.45594000000E+02  0.51100000000E-03 0. -1.
         11   -1    0    0    0    0 -0.00000000000E+00 -0.00000000000E+00 -0.45593999997E+02  0.45594000000E+02  0.51100000000E-03 0.  1.
    9900012    2    1    2    0    0  0.10406241621E+02  0.51305385736E+01 -0.14699196291E+02  0.72461583836E+02  0.70000017641E+02 0.  0.
         12    1    1    2    0    0 -0.10406241621E+02 -0.51305385736E+01  0.14699196291E+02  0.18726416164E+02  0.00000000000E+00 0. -1.
         11    1    3    3    0    0 -0.60006879478E+01 -0.20194745478E+02  0.81379226169E+01  0.22584547495E+02  0.51100000000E-03 0. -1.
        -11    1    3    3    0    0 -0.13735373874E+01 -0.25172241602E+01  0.55976099144E+01  0.62893767134E+01  0.51100000000E-03 0.  1.
        -12    1    3    3    0    0  0.17780466956E+02  0.27842508211E+02 -0.28434728822E+02  0.43587659628E+02  0.00000000000E+00 0.  1.
</event>
<event>
 7    1  0.1692604E-013  0.7246161E+02  0.7816164E-02  0.1226708E+00
        -11   -1    0    0    0    0  0.00000000000E+00  0.00000000000E+00  0.45593999997E+02  0.45594000000E+02  0.51100000000E-03 0.  1.
         11   -1    0    0    0    0 -0.00000000000E+00 -0.00000000000E+00 -0.45593999997E+02  0.45594000000E+02  0.51100000000E-03 0. -1.
    9900012    2    1    2    0    0 -0.16455356746E+02  0.76990604017E+01  0.45413142412E+01  0.72461606013E+02  0.70000046531E+02 0.  0.
         12    1    1    2    0    0  0.16455356746E+02 -0.76990604017E+01 -0.45413142412E+01  0.18726393987E+02  0.00000000000E+00 0. -1.
         11    1    3    3    0    0  0.83385915920E+01  0.10351598223E+01 -0.14823698135E+01  0.85323552505E+01  0.51100000000E-03 0. -1.
        -11    1    3    3    0    0 -0.14500850765E+02  0.11113456598E+01  0.32160033315E+02  0.35295573450E+02  0.51100000000E-03 0.  1.
         12    1    3    3    0    0 -0.10293097573E+02  0.55525549195E+01 -0.26136349261E+02  0.28633677313E+02  0.00000000000E+00 0. -1.
</event>
<event>
 7    1  0.1692604E-013  0.7246157E+02  0.7816164E-02  0.1226708E+00
        -11   -1    0    0    0    0  0.00000000000E+00  0.00000000000E+00  0.45593999997E+02  0.45594000000E+02  0.51100000000E-03 0. -1.
         11   -1    0    0    0    0 -0.00000000000E+00 -0.00000000000E+00 -0.45593999997E+02  0.45594000000E+02  0.51100000000E-03 0.  1.
    9900012    2    1    2    0    0 -0.11421596513E+02 -0.12082261499E+02 -0.86165640468E+01  0.72461572529E+02  0.70000002912E+02 0.  0.
         12    1    1    2    0    0  0.11421596513E+02  0.12082261499E+02  0.86165640468E+01  0.18726427471E+02  0.00000000000E+00 0. -1.
         11    1    3    3    0    0 -0.19315615312E+02 -0.16749050510E+02  0.24545729384E+02  0.35441734144E+02  0.51100000000E-03 0. -1.
        -11    1    3    3    0    0 -0.22377807340E+01 -0.29668897936E+01 -0.63378372797E+01  0.73469911737E+01  0.51100000000E-03 0.  1.
        -12    1    3    3    0    0  0.10131799532E+02  0.76336788044E+01 -0.26824456151E+02  0.29672847212E+02  0.00000000000E+00 0.  1.
</event>
<event>
 7    1  0.1692604E-013  0.7246156E+02  0.7816164E-02  0.1226708E+00
        -11   -1    0    0    0    0  0.00000000000E+00  0.00000000000E+00  0.45593999997E+02  0.45594000000E+02  0.51100000000E-03 0. -1.
         11   -1    0    0    0    0 -0.00000000000E+00 -0.00000000000E+00 -0.45593999997E+02  0.45594000000E+02  0.51100000000E-03 0.  1.
    9900012    2    1    2    0    0  0.16869938764E+02  0.76517603551E+01  0.27450265764E+01  0.72461563037E+02  0.69999990545E+02 0.  0.
         12    1    1    2    0    0 -0.16869938764E+02 -0.76517603551E+01 -0.27450265764E+01  0.18726436963E+02  0.00000000000E+00 0. -1.
         11    1    3    3    0    0  0.15060179694E+02 -0.18685049100E+00  0.29421850733E+00  0.15064212237E+02  0.51100000000E-03 0. -1.
        -11    1    3    3    0    0  0.10956886623E+02  0.11394176299E+02 -0.24251615295E+02  0.28948600358E+02  0.51100000000E-03 0.  1.
         12    1    3    3    0    0 -0.91471275525E+01 -0.35555654534E+01  0.26702423365E+02  0.28448750442E+02  0.00000000000E+00 0. -1.
</event>
<event>
 7    1  0.1692604E-013  0.7246156E+02  0.7816164E-02  0.1226708E+00
        -11   -1    0    0    0    0  0.00000000000E+00  0.00000000000E+00  0.45593999997E+02  0.45594000000E+02  0.51100000000E-03 0. -1.
         11   -1    0    0    0    0 -0.00000000000E+00 -0.00000000000E+00 -0.45593999997E+02  0.45594000000E+02  0.51100000000E-03 0.  1.
    9900012    2    1    2    0    0 -0.43409442741E+01 -0.17655970801E+02 -0.44835698352E+01  0.72461561455E+02  0.69999988485E+02 0.  0.
         12    1    1    2    0    0  0.43409442741E+01  0.17655970801E+02  0.44835698352E+01  0.18726438545E+02  0.00000000000E+00 0. -1.
         11    1    3    3    0    0 -0.70801351094E+01  0.49101535794E+01 -0.11978330062E+02  0.14755280840E+02  0.51100000000E-03 0. -1.
        -11    1    3    3    0    0 -0.38133485661E+01  0.30164835380E+01 -0.19408101092E+02  0.20007878160E+02  0.51100000000E-03 0.  1.
         12    1    3    3    0    0  0.65525394014E+01 -0.25582607918E+02  0.26902861319E+02  0.37698402455E+02  0.00000000000E+00 0. -1.
</event>
<event>
 7    1  0.1692604E-013  0.7246173E+02  0.7816164E-02  0.1226708E+00
        -11   -1    0    0    0    0  0.00000000000E+00  0.00000000000E+00  0.45593999997E+02  0.45594000000E+02  0.51100000000E-03 0.  1.
         11   -1    0    0    0    0 -0.00000000000E+00 -0.00000000000E+00 -0.45593999997E+02  0.45594000000E+02  0.51100000000E-03 0. -1.
    9900012    2    1    2    0    0 -0.18143641001E+01 -0.17519904024E+02  0.63587850025E+01  0.72461732331E+02  0.70000211083E+02 0.  0.
         12    1    1    2    0    0  0.18143641001E+01  0.17519904024E+02 -0.63587850025E+01  0.18726267669E+02  0.00000000000E+00 0. -1.
         11    1    3    3    0    0 -0.54935333945E+01 -0.24165339460E+02  0.20039441155E+02  0.31870389744E+02  0.51100000000E-03 0. -1.
        -11    1    3    3    0    0 -0.15722328592E+02 -0.28937360976E+01 -0.94212284364E+01  0.18555992845E+02  0.51100000000E-03 0.  1.
         12    1    3    3    0    0  0.19401497886E+02  0.95391715334E+01 -0.42594277162E+01  0.22035349742E+02  0.00000000000E+00 0. -1.
</event>
<event>
 7    1  0.1692604E-013  0.7246171E+02  0.7816164E-02  0.1226708E+00
        -11   -1    0    0    0    0  0.00000000000E+00  0.00000000000E+00  0.45593999997E+02  0.45594000000E+02  0.51100000000E-03 0. -1.
         11   -1    0    0    0    0 -0.00000000000E+00 -0.00000000000E+00 -0.45593999997E+02  0.45594000000E+02  0.51100000000E-03 0.  1.
    9900012    2    1    2    0    0 -0.77748805479E+01  0.66884993786E+01 -0.15668088152E+02  0.72461714255E+02  0.70000187535E+02 0.  0.
         12    1    1    2    0    0  0.77748805479E+01 -0.66884993786E+01  0.15668088152E+02  0.18726285745E+02  0.00000000000E+00 0. -1.
         11    1    3    3    0    0 -0.74193976148E+01  0.14622996845E+01  0.47681358307E+01  0.89398490420E+01  0.51100000000E-03 0. -1.
        -11    1    3    3    0    0 -0.37942160008E+01 -0.24070563048E+02 -0.23515184346E+02  0.33863726546E+02  0.51100000000E-03 0.  1.
         12    1    3    3    0    0  0.34387330676E+01  0.29296762742E+02  0.30789603635E+01  0.29658138667E+02  0.00000000000E+00 0. -1.
</event>
<event>
 7    1  0.1692604E-013  0.7246163E+02  0.7816164E-02  0.1226708E+00
        -11   -1    0    0    0    0  0.00000000000E+00  0.00000000000E+00  0.45593999997E+02  0.45594000000E+02  0.51100000000E-03 0. -1.
         11   -1    0    0    0    0 -0.00000000000E+00 -0.00000000000E+00 -0.45593999997E+02  0.45594000000E+02  0.51100000000E-03 0.  1.
    9900012    2    1    2    0    0  0.11265692971E+02 -0.54549264284E+01 -0.13928556802E+02  0.72461634762E+02  0.70000083981E+02 0.  0.
         12    1    1    2    0    0 -0.11265692971E+02  0.54549264284E+01  0.13928556802E+02  0.18726365238E+02  0.00000000000E+00 0. -1.
         11    1    3    3    0    0  0.16197193391E+02  0.29923926993E+00 -0.18763698650E+02  0.24789413167E+02  0.51100000000E-03 0. -1.
        -11    1    3    3    0    0 -0.22595124757E+02 -0.50259751716E+01 -0.93916259166E+01  0.24980046574E+02  0.51100000000E-03 0.  1.
         12    1    3    3    0    0  0.17663624337E+02 -0.72819052667E+00  0.14226767764E+02  0.22692175021E+02  0.00000000000E+00 0. -1.
</event>
<event>
 7    1  0.1692604E-013  0.7246157E+02  0.7816164E-02  0.1226708E+00
        -11   -1    0    0    0    0  0.00000000000E+00  0.00000000000E+00  0.45593999997E+02  0.45594000000E+02  0.51100000000E-03 0.  1.
         11   -1    0    0    0    0 -0.00000000000E+00 -0.00000000000E+00 -0.45593999997E+02  0.45594000000E+02  0.51100000000E-03 0. -1.
    9900012    2    1    2    0    0 -0.14006679752E+02 -0.32925062109E+01  0.11985476380E+02  0.72461566307E+02  0.69999994805E+02 0.  0.
         12    1    1    2    0    0  0.14006679752E+02  0.32925062109E+01 -0.11985476380E+02  0.18726433693E+02  0.00000000000E+00 0. -1.
         11    1    3    3    0    0 -0.18257785259E+01 -0.22904277166E+01 -0.11392732677E+02  0.11763242940E+02  0.51100000000E-03 0. -1.
        -11    1    3    3    0    0  0.20240043959E+02 -0.84454551479E+01  0.14425063416E+02  0.26250096132E+02  0.51100000000E-03 0.  1.
        -12    1    3    3    0    0 -0.32420945185E+02  0.74433766536E+01  0.89531456414E+01  0.34448227235E+02  0.00000000000E+00 0.  1.
</event>
<event>
 7    1  0.1692604E-013  0.7246107E+02  0.7816164E-02  0.1226709E+00
        -11   -1    0    0    0    0  0.00000000000E+00  0.00000000000E+00  0.45593999997E+02  0.45594000000E+02  0.51100000000E-03 0. -1.
         11   -1    0    0    0    0 -0.00000000000E+00 -0.00000000000E+00 -0.45593999997E+02  0.45594000000E+02  0.51100000000E-03 0.  1.
    9900012    2    1    2    0    0 -0.12628635505E+02  0.26254214115E+01 -0.13576550764E+02  0.72461067444E+02  0.69999344941E+02 0.  0.
         12    1    1    2    0    0  0.12628635505E+02 -0.26254214115E+01  0.13576550764E+02  0.18726932556E+02  0.00000000000E+00 0. -1.
         11    1    3    3    0    0 -0.22159765468E+02 -0.11651926689E+02 -0.61776729373E+01  0.25787327205E+02  0.51100000000E-03 0. -1.
        -11    1    3    3    0    0  0.21033551984E+02 -0.67640969082E+01 -0.30877329923E+01  0.22309132913E+02  0.51100000000E-03 0.  1.
         12    1    3    3    0    0 -0.11502422021E+02  0.21041445009E+02 -0.43111448340E+01  0.24364607327E+02  0.00000000000E+00 0. -1.
</event>
<event>
 7    1  0.1692604E-013  0.7246155E+02  0.7816164E-02  0.1226708E+00
        -11   -1    0    0    0    0  0.00000000000E+00  0.00000000000E+00  0.45593999997E+02  0.45594000000E+02  0.51100000000E-03 0. -1.
         11   -1    0    0    0    0 -0.00000000000E+00 -0.00000000000E+00 -0.45593999997E+02  0.45594000000E+02  0.51100000000E-03 0.  1.
    9900012    2    1    2    0    0 -0.16078907361E+02  0.95877052018E+01  0.47387910152E+00  0.72461550407E+02  0.69999974093E+02 0.  0.
         12    1    1    2    0    0  0.16078907361E+02 -0.95877052018E+01 -0.47387910152E+00  0.18726449593E+02  0.00000000000E+00 0. -1.
         11    1    3    3    0    0 -0.28910349889E+02  0.17961350891E+02  0.11148106533E+02  0.35814783764E+02  0.51100000000E-03 0. -1.
        -11    1    3    3    0    0  0.36060866248E+01 -0.87042013217E+01  0.10161747534E+02  0.13857420200E+02  0.51100000000E-03 0.  1.
        -12    1    3    3    0    0  0.92253559028E+01  0.33055563240E+00 -0.20835974965E+02  0.22789346443E+02  0.00000000000E+00 0.  1.
</event>
<event>
 7    1  0.1692604E-013  0.7246156E+02  0.7816164E-02  0.1226708E+00
        -11   -1    0    0    0    0  0.00000000000E+00  0.00000000000E+00  0.45593999997E+02  0.45594000000E+02  0.51100000000E-03 0.  1.
         11   -1    0    0    0    0 -0.00000000000E+00 -0.00000000000E+00 -0.45593999997E+02  0.45594000000E+02  0.51100000000E-03 0. -1.
    9900012    2    1    2    0    0 -0.48937643992E+01 -0.15143482476E+02  0.98694316568E+01  0.72461556859E+02  0.69999982498E+02 0.  0.
         12    1    1    2    0    0  0.48937643992E+01  0.15143482476E+02 -0.98694316568E+01  0.18726443141E+02  0.00000000000E+00 0. -1.
         11    1    3    3    0    0 -0.10614752620E+02  0.51008444912E+00 -0.11774950047E+02  0.15861355812E+02  0.51100000000E-03 0. -1.
        -11    1    3    3    0    0 -0.19172151279E+02 -0.91174296713E+01  0.22387082583E+02  0.30852558651E+02  0.51100000000E-03 0.  1.
         12    1    3    3    0    0  0.24893139500E+02 -0.65361372539E+01 -0.74270087872E+00  0.25747642396E+02  0.00000000000E+00 0. -1.
</event>
<event>
 7    1  0.1692604E-013  0.7246151E+02  0.7816164E-02  0.1226708E+00
        -11   -1    0    0    0    0  0.00000000000E+00  0.00000000000E+00  0.45593999997E+02  0.45594000000E+02  0.51100000000E-03 0. -1.
         11   -1    0    0    0    0 -0.00000000000E+00 -0.00000000000E+00 -0.45593999997E+02  0.45594000000E+02  0.51100000000E-03 0.  1.
    9900012    2    1    2    0    0  0.45178584243E+01  0.17416425259E+02 -0.51902368528E+01  0.72461508814E+02  0.69999919910E+02 0.  0.
         12    1    1    2    0    0 -0.45178584243E+01 -0.17416425259E+02  0.51902368528E+01  0.18726491186E+02  0.00000000000E+00 0. -1.
         11    1    3    3    0    0  0.42727432186E+00 -0.96192767050E+01  0.21405597576E+02  0.23471528615E+02  0.51100000000E-03 0. -1.
        -11    1    3    3    0    0  0.16911715179E+01 -0.69058733588E+01 -0.49150756670E+01  0.86434435860E+01  0.51100000000E-03 0.  1.
        -12    1    3    3    0    0  0.23994125846E+01  0.33941575323E+02 -0.21680758762E+02  0.40346536613E+02  0.00000000000E+00 0.  1.
</event>
<event>
 7    1  0.1692604E-013  0.7246160E+02  0.7816164E-02  0.1226708E+00
        -11   -1    0    0    0    0  0.00000000000E+00  0.00000000000E+00  0.45593999997E+02  0.45594000000E+02  0.51100000000E-03 0. -1.
         11   -1    0    0    0    0 -0.00000000000E+00 -0.00000000000E+00 -0.45593999997E+02  0.45594000000E+02  0.51100000000E-03 0.  1.
    9900012    2    1    2    0    0  0.16015066161E+02 -0.81712978778E+01 -0.52369362510E+01  0.72461602737E+02  0.70000042263E+02 0.  0.
         12    1    1    2    0    0 -0.16015066161E+02  0.81712978778E+01  0.52369362510E+01  0.18726397263E+02  0.00000000000E+00 0. -1.
         11    1    3    3    0    0  0.11055601694E+02 -0.48500026122E+01  0.47243101515E+01  0.12964102778E+02  0.51100000000E-03 0. -1.
        -11    1    3    3    0    0  0.24925763299E+02 -0.20292329147E+02 -0.24341138248E+01  0.32233479623E+02  0.51100000000E-03 0.  1.
         12    1    3    3    0    0 -0.19966298833E+02  0.16971033881E+02 -0.75271325777E+01  0.27264020337E+02  0.00000000000E+00 0. -1.
</event>
<event>
 7    1  0.1692604E-013  0.7246156E+02  0.7816164E-02  0.1226708E+00
        -11   -1    0    0    0    0  0.00000000000E+00  0.00000000000E+00  0.45593999997E+02  0.45594000000E+02  0.51100000000E-03 0.  1.
         11   -1    0    0    0    0 -0.00000000000E+00 -0.00000000000E+00 -0.45593999997E+02  0.45594000000E+02  0.51100000000E-03 0. -1.
    9900012    2    1    2    0    0 -0.48145771665E+01 -0.30964251557E+01  0.17830073187E+02  0.72461561153E+02  0.69999988092E+02 0.  0.
         12    1    1    2    0    0  0.48145771665E+01  0.30964251557E+01 -0.17830073187E+02  0.18726438847E+02  0.00000000000E+00 0. -1.
         11    1    3    3    0    0 -0.25940069218E+02 -0.11254722380E+02 -0.11340317714E+02  0.30465698301E+02  0.51100000000E-03 0. -1.
        -11    1    3    3    0    0 -0.27222276989E+01 -0.19355696219E+01  0.52647660292E+00  0.33814392321E+01  0.51100000000E-03 0.  1.
         12    1    3    3    0    0  0.23847719750E+02  0.10093866846E+02  0.28643914298E+02  0.38614423620E+02  0.00000000000E+00 0. -1.
</event>
<event>
 7    1  0.1692604E-013  0.7246156E+02  0.7816164E-02  0.1226708E+00
        -11   -1    0    0    0    0  0.00000000000E+00  0.00000000000E+00  0.45593999997E+02  0.45594000000E+02  0.51100000000E-03 0.  1.
         11   -1    0    0    0    0 -0.00000000000E+00 -0.00000000000E+00 -0.45593999997E+02  0.45594000000E+02  0.51100000000E-03 0. -1.
    9900012    2    1    2    0    0  0.12824755648E+02 -0.10588502574E+02  0.86074954046E+01  0.72461555561E+02  0.69999980807E+02 0.  0.
         12    1    1    2    0    0 -0.12824755648E+02  0.10588502574E+02 -0.86074954046E+01  0.18726444439E+02  0.00000000000E+00 0. -1.
         11    1    3    3    0    0  0.29216522135E+02 -0.10404382033E+02 -0.91145666022E+01  0.32325402639E+02  0.51100000000E-03 0. -1.
        -11    1    3    3    0    0  0.75524837608E+01 -0.53055202223E+01  0.11733542816E+02  0.14928649740E+02  0.51100000000E-03 0.  1.
        -12    1    3    3    0    0 -0.23944250247E+02  0.51213996821E+01  0.59885191912E+01  0.25207503182E+02  0.00000000000E+00 0.  1.
</event>
<event>
 7    1  0.1692604E-013  0.7246163E+02  0.7816164E-02  0.1226708E+00
        -11   -1    0    0    0    0  0.00000000000E+00  0.00000000000E+00  0.45593999997E+02  0.45594000000E+02  0.51100000000E-03 0.  1.
         11   -1    0    0    0    0 -0.00000000000E+00 -0.00000000000E+00 -0.45593999997E+02  0.45594000000E+02  0.51100000000E-03 0. -1.
    9900012    2    1    2    0    0  0.51096178475E+01 -0.14264112047E+02  0.11004722532E+02  0.72461628086E+02  0.70000075285E+02 0.  0.
         12    1    1    2    0    0 -0.51096178475E+01  0.14264112047E+02 -0.11004722532E+02  0.18726371914E+02  0.00000000000E+00 0. -1.
         11    1    3    3    0    0 -0.15335866538E+02 -0.87449409262E+01 -0.12432141463E+02  0.21592149867E+02  0.51100000000E-03 0. -1.
        -11    1    3    3    0    0 -0.11663920827E+02 -0.58066056488E+01  0.72219603541E+01  0.14896993987E+02  0.51100000000E-03 0.  1.
         12    1    3    3    0    0  0.32109405213E+02  0.28743452823E+00  0.16214903642E+02  0.35972484232E+02  0.00000000000E+00 0. -1.
</event>
<event>
 7    1  0.1692604E-013  0.7246163E+02  0.7816164E-02  0.1226708E+00
        -11   -1    0    0    0    0  0.00000000000E+00  0.00000000000E+00  0.45593999997E+02  0.45594000000E+02  0.51100000000E-03 0. -1.
         11   -1    0    0    0    0 -0.00000000000E+00 -0.00000000000E+00 -0.45593999997E+02  0.45594000000E+02  0.51100000000E-03 0.  1.
    9900012    2    1    2    0    0 -0.71311774770E+01  0.17048307621E+02  0.30295665652E+01  0.72461634668E+02  0.70000083859E+02 0.  0.
         12    1    1    2    0    0  0.71311774770E+01 -0.17048307621E+02 -0.30295665652E+01  0.18726365332E+02  0.00000000000E+00 0. -1.
         11    1    3    3    0    0  0.15566949982E+02  0.14241666200E+02  0.27019884617E-01  0.21098713663E+02  0.51100000000E-03 0. -1.
        -11    1    3    3    0    0 -0.30293901998E+02  0.16665551890E+02  0.64886832731E+01  0.35179029676E+02  0.51100000000E-03 0.  1.
         12    1    3    3    0    0  0.75957745386E+01 -0.13858910469E+02 -0.34861365925E+01  0.16183891330E+02  0.00000000000E+00 0. -1.
</event>
<event>
 7    1  0.1692604E-013  0.7246151E+02  0.7816164E-02  0.1226708E+00
        -11   -1    0    0    0    0  0.00000000000E+00  0.00000000000E+00  0.45593999997E+02  0.45594000000E+02  0.51100000000E-03 0.  1.
         11   -1    0    0    0    0 -0.00000000000E+00 -0.00000000000E+00 -0.45593999997E+02  0.45594000000E+02  0.51100000000E-03 0. -1.
    9900012    2    1    2    0    0 -0.11625778487E+02  0.35093009961E+01  0.14255080663E+02  0.72461514916E+02  0.69999927859E+02 0.  0.
         12    1    1    2    0    0  0.11625778487E+02 -0.35093009961E+01 -0.14255080663E+02  0.18726485084E+02  0.00000000000E+00 0. -1.
         11    1    3    3    0    0 -0.18680526362E+02 -0.28555544271E+02  0.47517832687E+01  0.34452294819E+02  0.51100000000E-03 0. -1.
        -11    1    3    3    0    0 -0.21589660256E+01 -0.82827197447E+00  0.19501574870E+01  0.30249435116E+01  0.51100000000E-03 0.  1.
        -12    1    3    3    0    0  0.92137139010E+01  0.32893117242E+02  0.75531399072E+01  0.34984276585E+02  0.00000000000E+00 0.  1.
</event>
<event>
 7    1  0.1692604E-013  0.7246156E+02  0.7816164E-02  0.1226708E+00
        -11   -1    0    0    0    0  0.00000000000E+00  0.00000000000E+00  0.45593999997E+02  0.45594000000E+02  0.51100000000E-03 0.  1.
         11   -1    0    0    0    0 -0.00000000000E+00 -0.00000000000E+00 -0.45593999997E+02  0.45594000000E+02  0.51100000000E-03 0. -1.
    9900012    2    1    2    0    0  0.12206645652E+02  0.13640687770E+02  0.39507989990E+01  0.72461564845E+02  0.69999992901E+02 0.  0.
         12    1    1    2    0    0 -0.12206645652E+02 -0.13640687770E+02 -0.39507989990E+01  0.18726435155E+02  0.00000000000E+00 0. -1.
         11    1    3    3    0    0  0.55011047725E+01 -0.16555586151E+02 -0.17320745013E+02  0.24583689605E+02  0.51100000000E-03 0. -1.
        -11    1    3    3    0    0 -0.19459430496E+01 -0.41551030169E+01  0.94986039936E+01  0.10548699139E+02  0.51100000000E-03 0.  1.
        -12    1    3    3    0    0  0.86514839289E+01  0.34351376938E+02  0.11772940019E+02  0.37329176101E+02  0.00000000000E+00 0.  1.
</event>
<event>
 7    1  0.1692604E-013  0.7246172E+02  0.7816164E-02  0.1226708E+00
        -11   -1    0    0    0    0  0.00000000000E+00  0.00000000000E+00  0.45593999997E+02  0.45594000000E+02  0.51100000000E-03 0.  1.
         11   -1    0    0    0    0 -0.00000000000E+00 -0.00000000000E+00 -0.45593999997E+02  0.45594000000E+02  0.51100000000E-03 0. -1.
    9900012    2    1    2    0    0 -0.17145460735E+02 -0.75088354628E+01 -0.56929839070E+00  0.72461720751E+02  0.70000195998E+02 0.  0.
         12    1    1    2    0    0  0.17145460735E+02  0.75088354628E+01  0.56929839070E+00  0.18726279249E+02  0.00000000000E+00 0. -1.
         11    1    3    3    0    0  0.76433621755E+00 -0.15426705133E+02 -0.21581734727E+02  0.26539380460E+02  0.51100000000E-03 0. -1.
        -11    1    3    3    0    0 -0.83886212590E+01 -0.14320528722E+02  0.96201972472E+01  0.19183188078E+02  0.51100000000E-03 0.  1.
        -12    1    3    3    0    0 -0.95211756941E+01  0.22238398392E+02  0.11392239089E+02  0.26739152214E+02  0.00000000000E+00 0.  1.
</event>
<event>
 7    1  0.1692604E-013  0.7246160E+02  0.7816164E-02  0.1226708E+00
        -11   -1    0    0    0    0  0.00000000000E+00  0.00000000000E+00  0.45593999997E+02  0.45594000000E+02  0.51100000000E-03 0. -1.
         11   -1    0    0    0    0 -0.00000000000E+00 -0.00000000000E+00 -0.45593999997E+02  0.45594000000E+02  0.51100000000E-03 0.  1.
    9900012    2    1    2    0    0  0.75078261913E+01 -0.98315184061E+01 -0.14058877056E+02  0.72461595317E+02  0.70000032596E+02 0.  0.
         12    1    1    2    0    0 -0.75078261913E+01  0.98315184061E+01  0.14058877056E+02  0.18726404683E+02  0.00000000000E+00 0. -1.
         11    1    3    3    0    0 -0.63408931019E+00 -0.22623021966E+02 -0.73359387796E+01  0.23791157815E+02  0.51100000000E-03 0. -1.
        -11    1    3    3    0    0 -0.50453686694E+01 -0.13993962242E+02 -0.11012070017E+02  0.18508171454E+02  0.51100000000E-03 0.  1.
         12    1    3    3    0    0  0.13187284171E+02  0.26785465802E+02  0.42891317407E+01  0.30162266048E+02  0.00000000000E+00 0. -1.
</event>
<event>
 7    1  0.1692604E-013  0.7246167E+02  0.7816164E-02  0.1226708E+00
        -11   -1    0    0    0    0  0.00000000000E+00  0.00000000000E+00  0.45593999997E+02  0.45594000000E+02  0.51100000000E-03 0. -1.
         11   -1    0    0    0    0 -0.00000000000E+00 -0.00000000000E+00 -0.45593999997E+02  0.45594000000E+02  0.51100000000E-03 0.  1.
    9900012    2    1    2    0    0 -0.13552668249E+02 -0.73754717164E+01 -0.10611459432E+02  0.72461669046E+02  0.70000128642E+02 0.  0.
         12    1    1    2    0    0  0.13552668249E+02  0.73754717164E+01  0.10611459432E+02  0.18726330954E+02  0.00000000000E+00 0. -1.
         11    1    3    3    0    0  0.14256108458E+02 -0.88434890847E+01 -0.14539552378E+02  0.22200056557E+02  0.51100000000E-03 0. -1.
        -11    1    3    3    0    0 -0.14708645278E+02 -0.17129580500E+02 -0.87556038006E+01  0.24216262556E+02  0.51100000000E-03 0.  1.
        -12    1    3    3    0    0 -0.13100131429E+02  0.18597597868E+02  0.12683696746E+02  0.26045349932E+02  0.00000000000E+00 0.  1.
</event>
<event>
 7    1  0.1692604E-013  0.7246150E+02  0.7816164E-02  0.1226708E+00
        -11   -1    0    0    0    0  0.00000000000E+00  0.00000000000E+00  0.45593999997E+02  0.45594000000E+02  0.51100000000E-03 0. -1.
         11   -1    0    0    0    0 -0.00000000000E+00 -0.00000000000E+00 -0.45593999997E+02  0.45594000000E+02  0.51100000000E-03 0.  1.
    9900012    2    1    2    0    0 -0.11428110080E+02 -0.14323007459E+02 -0.38641216003E+01  0.72461503307E+02  0.69999912736E+02 0.  0.
         12    1    1    2    0    0  0.11428110080E+02  0.14323007459E+02  0.38641216003E+01  0.18726496693E+02  0.00000000000E+00 0. -1.
         11    1    3    3    0    0  0.27738428770E+00 -0.26014158368E+01 -0.11538146224E+02  0.11831023834E+02  0.51100000000E-03 0. -1.
        -11    1    3    3    0    0  0.56425222064E+01  0.71545378090E+01 -0.20562991772E+02  0.22491378326E+02  0.51100000000E-03 0.  1.
         12    1    3    3    0    0 -0.17348016574E+02 -0.18876129431E+02  0.28237016396E+02  0.38139101147E+02  0.00000000000E+00 0. -1.
</event>
<event>
 7    1  0.1692604E-013  0.7246152E+02  0.7816164E-02  0.1226708E+00
        -11   -1    0    0    0    0  0.00000000000E+00  0.00000000000E+00  0.45593999997E+02  0.45594000000E+02  0.51100000000E-03 0.  1.
         11   -1    0    0    0    0 -0.00000000000E+00 -0.00000000000E+00 -0.45593999997E+02  0.45594000000E+02  0.51100000000E-03 0. -1.
    9900012    2    1    2    0    0  0.70711629894E+01  0.17322363085E+02  0.78459369161E+00  0.72461516184E+02  0.69999929511E+02 0.  0.
         12    1    1    2    0    0 -0.70711629894E+01 -0.17322363085E+02 -0.78459369161E+00  0.18726483816E+02  0.00000000000E+00 0. -1.
         11    1    3    3    0    0 -0.48997177167E+01  0.57573689256E+01  0.40862840930E+01  0.85937331003E+01  0.51100000000E-03 0.  1.
        -11    1    3    3    0    0 -0.20379353072E+02  0.21662405156E+02 -0.37357128839E+01  0.29975546364E+02  0.51100000000E-03 0. -1.
         12    1    3    3    0    0  0.32350233778E+02 -0.10097410997E+02  0.43402248245E+00  0.33892236720E+02  0.00000000000E+00 0. -1.
</event>
<event>
 7    1  0.1692604E-013  0.7246157E+02  0.7816164E-02  0.1226708E+00
        -11   -1    0    0    0    0  0.00000000000E+00  0.00000000000E+00  0.45593999997E+02  0.45594000000E+02  0.51100000000E-03 0. -1.
         11   -1    0    0    0    0 -0.00000000000E+00 -0.00000000000E+00 -0.45593999997E+02  0.45594000000E+02  0.51100000000E-03 0.  1.
    9900012    2    1    2    0    0 -0.79090728719E+01 -0.80654527236E+01 -0.14935666049E+02  0.72461572640E+02  0.70000003056E+02 0.  0.
         12    1    1    2    0    0  0.79090728719E+01  0.80654527236E+01  0.14935666049E+02  0.18726427360E+02  0.00000000000E+00 0. -1.
         11    1    3    3    0    0  0.27604424087E+01 -0.40389167037E+01  0.13131143776E+01  0.50652897312E+01  0.51100000000E-03 0. -1.
        -11    1    3    3    0    0 -0.63703348129E+01 -0.32114251479E+02 -0.20554041644E+02  0.38657146065E+02  0.51100000000E-03 0.  1.
         12    1    3    3    0    0 -0.42991804677E+01  0.28087715460E+02  0.43052612172E+01  0.28739136845E+02  0.00000000000E+00 0. -1.
</event>
<event>
 7    1  0.1692604E-013  0.7246155E+02  0.7816164E-02  0.1226708E+00
        -11   -1    0    0    0    0  0.00000000000E+00  0.00000000000E+00  0.45593999997E+02  0.45594000000E+02  0.51100000000E-03 0.  1.
         11   -1    0    0    0    0 -0.00000000000E+00 -0.00000000000E+00 -0.45593999997E+02  0.45594000000E+02  0.51100000000E-03 0. -1.
    9900012    2    1    2    0    0 -0.15195240459E+02 -0.53154277392E+01 -0.95671716431E+01  0.72461551380E+02  0.69999975361E+02 0.  0.
         12    1    1    2    0    0  0.15195240459E+02  0.53154277392E+01  0.95671716431E+01  0.18726448620E+02  0.00000000000E+00 0. -1.
         11    1    3    3    0    0  0.69724817624E+01 -0.18423732168E+02 -0.22656606281E+02  0.30022844924E+02  0.51100000000E-03 0. -1.
        -11    1    3    3    0    0  0.48398102429E+01 -0.21022347207E+01 -0.43807728429E+01  0.68581575493E+01  0.51100000000E-03 0.  1.
        -12    1    3    3    0    0 -0.27007532465E+02  0.15210539150E+02  0.17470207481E+02  0.35580548906E+02  0.00000000000E+00 0.  1.
</event>
<event>
 7    1  0.1692604E-013  0.7246162E+02  0.7816164E-02  0.1226708E+00
        -11   -1    0    0    0    0  0.00000000000E+00  0.00000000000E+00  0.45593999997E+02  0.45594000000E+02  0.51100000000E-03 0.  1.
         11   -1    0    0    0    0 -0.00000000000E+00 -0.00000000000E+00 -0.45593999997E+02  0.45594000000E+02  0.51100000000E-03 0. -1.
    9900012    2    1    2    0    0 -0.14095060862E+01 -0.14480936429E+02  0.11789531690E+02  0.72461620618E+02  0.70000065556E+02 0.  0.
         12    1    1    2    0    0  0.14095060862E+01  0.14480936429E+02 -0.11789531690E+02  0.18726379382E+02  0.00000000000E+00 0. -1.
         11    1    3    3    0    0 -0.88426591593E+00 -0.41067730082E+01 -0.18345791832E+02  0.18820616062E+02  0.51100000000E-03 0. -1.
        -11    1    3    3    0    0 -0.20997504123E+01  0.98349138881E+01 -0.63566654296E+01  0.11897129008E+02  0.51100000000E-03 0.  1.
         12    1    3    3    0    0  0.15745102420E+01 -0.20209077309E+02  0.36491988951E+02  0.41743875549E+02  0.00000000000E+00 0. -1.
</event>
<event>
 7    1  0.1692604E-013  0.7246205E+02  0.7816164E-02  0.1226707E+00
        -11   -1    0    0    0    0  0.00000000000E+00  0.00000000000E+00  0.45593999997E+02  0.45594000000E+02  0.51100000000E-03 0. -1.
         11   -1    0    0    0    0 -0.00000000000E+00 -0.00000000000E+00 -0.45593999997E+02  0.45594000000E+02  0.51100000000E-03 0.  1.
    9900012    2    1    2    0    0  0.11533727308E+02  0.59031403852E+01 -0.13519878113E+02  0.72462054464E+02  0.70000630718E+02 0.  0.
         12    1    1    2    0    0 -0.11533727308E+02 -0.59031403852E+01  0.13519878113E+02  0.18725945536E+02  0.00000000000E+00 0. -1.
         11    1    3    3    0    0  0.26425923612E+02 -0.13186324583E+02  0.12199213008E+02  0.31953550555E+02  0.51100000000E-03 0. -1.
        -11    1    3    3    0    0 -0.58740117005E+01 -0.61627902402E+00 -0.15423983276E+02  0.16516145848E+02  0.51100000000E-03 0.  1.
        -12    1    3    3    0    0 -0.90181846031E+01  0.19705743992E+02 -0.10295107845E+02  0.23992358062E+02  0.00000000000E+00 0.  1.
</event>
<event>
 7    1  0.1692604E-013  0.7246153E+02  0.7816164E-02  0.1226708E+00
        -11   -1    0    0    0    0  0.00000000000E+00  0.00000000000E+00  0.45593999997E+02  0.45594000000E+02  0.51100000000E-03 0. -1.
         11   -1    0    0    0    0 -0.00000000000E+00 -0.00000000000E+00 -0.45593999997E+02  0.45594000000E+02  0.51100000000E-03 0.  1.
    9900012    2    1    2    0    0  0.11566440138E+00  0.61360025685E+01 -0.17692282162E+02  0.72461527992E+02  0.69999944893E+02 0.  0.
         12    1    1    2    0    0 -0.11566440138E+00 -0.61360025685E+01  0.17692282162E+02  0.18726472008E+02  0.00000000000E+00 0. -1.
         11    1    3    3    0    0 -0.25888098130E+01  0.10840090039E+02  0.24314506747E+02  0.26747050808E+02  0.51100000000E-03 0. -1.
        -11    1    3    3    0    0 -0.59017213599E+01 -0.52166552836E+01 -0.10986490918E+02  0.13518387120E+02  0.51100000000E-03 0.  1.
        -12    1    3    3    0    0  0.86061955743E+01  0.51256781318E+00 -0.31020297991E+02  0.32196090065E+02  0.00000000000E+00 0.  1.
</event>
<event>
 7    1  0.1692604E-013  0.7246161E+02  0.7816164E-02  0.1226708E+00
        -11   -1    0    0    0    0  0.00000000000E+00  0.00000000000E+00  0.45593999997E+02  0.45594000000E+02  0.51100000000E-03 0. -1.
         11   -1    0    0    0    0 -0.00000000000E+00 -0.00000000000E+00 -0.45593999997E+02  0.45594000000E+02  0.51100000000E-03 0.  1.
    9900012    2    1    2    0    0  0.17705063086E+01 -0.93648128671E+01 -0.16119655117E+02  0.72461609698E+02  0.70000051331E+02 0.  0.
         12    1    1    2    0    0 -0.17705063086E+01  0.93648128671E+01  0.16119655117E+02  0.18726390302E+02  0.00000000000E+00 0. -1.
         11    1    3    3    0    0 -0.11148555796E+02 -0.13846728587E+02  0.11407144243E+02  0.21122147830E+02  0.51100000000E-03 0. -1.
        -11    1    3    3    0    0  0.24822732421E+02 -0.75209183778E+01 -0.20380855085E+02  0.32986535319E+02  0.51100000000E-03 0.  1.
         12    1    3    3    0    0 -0.11903670316E+02  0.12002834098E+02 -0.71459442747E+01  0.18352926550E+02  0.00000000000E+00 0. -1.
</event>
<event>
 7    1  0.1692604E-013  0.7246157E+02  0.7816164E-02  0.1226708E+00
        -11   -1    0    0    0    0  0.00000000000E+00  0.00000000000E+00  0.45593999997E+02  0.45594000000E+02  0.51100000000E-03 0.  1.
         11   -1    0    0    0    0 -0.00000000000E+00 -0.00000000000E+00 -0.45593999997E+02  0.45594000000E+02  0.51100000000E-03 0. -1.
    9900012    2    1    2    0    0  0.86018992393E+01  0.15539405413E+02  0.59340798463E+01  0.72461572292E+02  0.70000002602E+02 0.  0.
         12    1    1    2    0    0 -0.86018992393E+01 -0.15539405413E+02 -0.59340798463E+01  0.18726427708E+02  0.00000000000E+00 0. -1.
         11    1    3    3    0    0  0.70175442161E+01  0.10681865091E+02 -0.25058129624E+02  0.28129309077E+02  0.51100000000E-03 0. -1.
        -11    1    3    3    0    0 -0.22866124356E+00  0.15004806580E+02  0.41364429306E+01  0.15566202711E+02  0.51100000000E-03 0.  1.
         12    1    3    3    0    0  0.18130162668E+01 -0.10147266258E+02  0.26855766539E+02  0.28766060504E+02  0.00000000000E+00 0. -1.
</event>
<event>
 7    1  0.1692604E-013  0.7246172E+02  0.7816164E-02  0.1226708E+00
        -11   -1    0    0    0    0  0.00000000000E+00  0.00000000000E+00  0.45593999997E+02  0.45594000000E+02  0.51100000000E-03 0.  1.
         11   -1    0    0    0    0 -0.00000000000E+00 -0.00000000000E+00 -0.45593999997E+02  0.45594000000E+02  0.51100000000E-03 0. -1.
    9900012    2    1    2    0    0  0.15708167286E+02 -0.22980079088E+01  0.99320818226E+01  0.72461718758E+02  0.70000193401E+02 0.  0.
         12    1    1    2    0    0 -0.15708167286E+02  0.22980079088E+01 -0.99320818226E+01  0.18726281242E+02  0.00000000000E+00 0. -1.
         11    1    3    3    0    0  0.16933315844E+02  0.40635168219E+00  0.44288930522E+01  0.17507638364E+02  0.51100000000E-03 0. -1.
        -11    1    3    3    0    0  0.18888210486E+02 -0.16027768139E+02  0.15075332008E+02  0.28998611731E+02  0.51100000000E-03 0.  1.
         12    1    3    3    0    0 -0.20113359044E+02  0.13323408548E+02 -0.95721432377E+01  0.25955468664E+02  0.00000000000E+00 0. -1.
</event>
<event>
 7    1  0.1692604E-013  0.7246152E+02  0.7816164E-02  0.1226708E+00
        -11   -1    0    0    0    0  0.00000000000E+00  0.00000000000E+00  0.45593999997E+02  0.45594000000E+02  0.51100000000E-03 0.  1.
         11   -1    0    0    0    0 -0.00000000000E+00 -0.00000000000E+00 -0.45593999997E+02  0.45594000000E+02  0.51100000000E-03 0. -1.
    9900012    2    1    2    0    0 -0.16802744694E+02 -0.82096372934E+01  0.97505745759E+00  0.72461518463E+02  0.69999932479E+02 0.  0.
         12    1    1    2    0    0  0.16802744694E+02  0.82096372934E+01 -0.97505745759E+00  0.18726481537E+02  0.00000000000E+00 0. -1.
         11    1    3    3    0    0 -0.32988741696E+02 -0.48004824131E+01  0.84568709837E+01  0.34392155751E+02  0.51100000000E-03 0. -1.
        -11    1    3    3    0    0 -0.85712832593E+00  0.57618120314E+00  0.11905401400E+02  0.11950114498E+02  0.51100000000E-03 0.  1.
         12    1    3    3    0    0  0.17043125328E+02 -0.39853360834E+01 -0.19387214926E+02  0.26119248214E+02  0.00000000000E+00 0. -1.
</event>
<event>
 7    1  0.1692604E-013  0.7246152E+02  0.7816164E-02  0.1226708E+00
        -11   -1    0    0    0    0  0.00000000000E+00  0.00000000000E+00  0.45593999997E+02  0.45594000000E+02  0.51100000000E-03 0. -1.
         11   -1    0    0    0    0 -0.00000000000E+00 -0.00000000000E+00 -0.45593999997E+02  0.45594000000E+02  0.51100000000E-03 0.  1.
    9900012    2    1    2    0    0 -0.15561984898E+02  0.95367959486E+01  0.41898966715E+01  0.72461519149E+02  0.69999933374E+02 0.  0.
         12    1    1    2    0    0  0.15561984898E+02 -0.95367959486E+01 -0.41898966715E+01  0.18726480851E+02  0.00000000000E+00 0. -1.
         11    1    3    3    0    0 -0.99206460210E+01  0.42795014585E+01  0.73269187128E+00  0.10829136062E+02  0.51100000000E-03 0. -1.
        -11    1    3    3    0    0 -0.20794642259E+02  0.27051780614E+02  0.70627407396E+01  0.34843913214E+02  0.51100000000E-03 0.  1.
         12    1    3    3    0    0  0.15153303382E+02 -0.21794486124E+02 -0.36055359394E+01  0.26788469874E+02  0.00000000000E+00 0. -1.
</event>
<event>
 7    1  0.1692604E-013  0.7246157E+02  0.7816164E-02  0.1226708E+00
        -11   -1    0    0    0    0  0.00000000000E+00  0.00000000000E+00  0.45593999997E+02  0.45594000000E+02  0.51100000000E-03 0. -1.
         11   -1    0    0    0    0 -0.00000000000E+00 -0.00000000000E+00 -0.45593999997E+02  0.45594000000E+02  0.51100000000E-03 0.  1.
    9900012    2    1    2    0    0  0.11974059763E+01  0.18473118962E+02 -0.28265529087E+01  0.72461566634E+02  0.69999995232E+02 0.  0.
         12    1    1    2    0    0 -0.11974059763E+01 -0.18473118962E+02  0.28265529087E+01  0.18726433366E+02  0.00000000000E+00 0. -1.
         11    1    3    3    0    0  0.16023881348E+01  0.33028097365E+02  0.11419437063E+02  0.34983230360E+02  0.51100000000E-03 0. -1.
        -11    1    3    3    0    0  0.10444758541E+02  0.41027865637E+01 -0.10887857329E+02  0.15635577254E+02  0.51100000000E-03 0.  1.
        -12    1    3    3    0    0 -0.10849740699E+02 -0.18657764967E+02 -0.33581326419E+01  0.21842759021E+02  0.00000000000E+00 0.  1.
</event>
<event>
 7    1  0.1692604E-013  0.7246157E+02  0.7816164E-02  0.1226708E+00
        -11   -1    0    0    0    0  0.00000000000E+00  0.00000000000E+00  0.45593999997E+02  0.45594000000E+02  0.51100000000E-03 0.  1.
         11   -1    0    0    0    0 -0.00000000000E+00 -0.00000000000E+00 -0.45593999997E+02  0.45594000000E+02  0.51100000000E-03 0. -1.
    9900012    2    1    2    0    0 -0.70316844357E+01  0.15972281744E+02  0.67912349383E+01  0.72461568356E+02  0.69999997475E+02 0.  0.
         12    1    1    2    0    0  0.70316844357E+01 -0.15972281744E+02 -0.67912349383E+01  0.18726431644E+02  0.00000000000E+00 0. -1.
         11    1    3    3    0    0 -0.77546285693E+01  0.42282717809E+01  0.98077683676E+01  0.13198669142E+02  0.51100000000E-03 0. -1.
        -11    1    3    3    0    0  0.19294916565E+02 -0.16272075595E+02  0.18109959779E+01  0.25305215987E+02  0.51100000000E-03 0.  1.
         12    1    3    3    0    0 -0.18571972432E+02  0.28016085558E+02 -0.48275294072E+01  0.33957683228E+02  0.00000000000E+00 0. -1.
</event>
<event>
 7    1  0.1692604E-013  0.7246155E+02  0.7816164E-02  0.1226708E+00
        -11   -1    0    0    0    0  0.00000000000E+00  0.00000000000E+00  0.45593999997E+02  0.45594000000E+02  0.51100000000E-03 0.  1.
         11   -1    0    0    0    0 -0.00000000000E+00 -0.00000000000E+00 -0.45593999997E+02  0.45594000000E+02  0.51100000000E-03 0. -1.
    9900012    2    1    2    0    0 -0.17813091776E+02  0.31504698340E+01  0.48423250363E+01  0.72461553179E+02  0.69999977704E+02 0.  0.
         12    1    1    2    0    0  0.17813091776E+02 -0.31504698340E+01 -0.48423250363E+01  0.18726446821E+02  0.00000000000E+00 0. -1.
         11    1    3    3    0    0  0.10103818027E+01 -0.12501779189E+02 -0.94721831824E+00  0.12578258110E+02  0.51100000000E-03 0. -1.
        -11    1    3    3    0    0 -0.21852901844E+02 -0.53345896077E+00  0.25899757344E+02  0.33891463943E+02  0.51100000000E-03 0.  1.
         12    1    3    3    0    0  0.30294282658E+01  0.16185707984E+02 -0.20110213990E+02  0.25991831126E+02  0.00000000000E+00 0. -1.
</event>
<event>
 7    1  0.1692604E-013  0.7246137E+02  0.7816164E-02  0.1226709E+00
        -11   -1    0    0    0    0  0.00000000000E+00  0.00000000000E+00  0.45593999997E+02  0.45594000000E+02  0.51100000000E-03 0. -1.
         11   -1    0    0    0    0 -0.00000000000E+00 -0.00000000000E+00 -0.45593999997E+02  0.45594000000E+02  0.51100000000E-03 0.  1.
    9900012    2    1    2    0    0  0.92784682069E+01 -0.15461024516E+02 -0.50550276760E+01  0.72461373071E+02  0.69999743079E+02 0.  0.
         12    1    1    2    0    0 -0.92784682069E+01  0.15461024516E+02  0.50550276760E+01  0.18726626929E+02  0.00000000000E+00 0. -1.
         11    1    3    3    0    0  0.70863041966E+01 -0.16741002030E+02  0.53576021200E+01  0.18952064712E+02  0.51100000000E-03 0. -1.
        -11    1    3    3    0    0  0.57195390925E+01 -0.22972800477E+02  0.54792144657E+01  0.24299886432E+02  0.51100000000E-03 0.  1.
         12    1    3    3    0    0 -0.35273750822E+01  0.24252777991E+02 -0.15891844262E+02  0.29209421926E+02  0.00000000000E+00 0. -1.
</event>
<event>
 7    1  0.1692604E-013  0.7246156E+02  0.7816164E-02  0.1226708E+00
        -11   -1    0    0    0    0  0.00000000000E+00  0.00000000000E+00  0.45593999997E+02  0.45594000000E+02  0.51100000000E-03 0. -1.
         11   -1    0    0    0    0 -0.00000000000E+00 -0.00000000000E+00 -0.45593999997E+02  0.45594000000E+02  0.51100000000E-03 0.  1.
    9900012    2    1    2    0    0 -0.12737218624E+02  0.93832647823E+01 -0.10019830416E+02  0.72461564199E+02  0.69999992060E+02 0.  0.
         12    1    1    2    0    0  0.12737218624E+02 -0.93832647823E+01  0.10019830416E+02  0.18726435801E+02  0.00000000000E+00 0. -1.
         11    1    3    3    0    0  0.10742792368E+02 -0.20325532008E+01 -0.23714329503E+02  0.26113373670E+02  0.51100000000E-03 0. -1.
        -11    1    3    3    0    0  0.52527584602E+01 -0.66624823220E+01  0.84937182423E+01  0.12005140231E+02  0.51100000000E-03 0.  1.
        -12    1    3    3    0    0 -0.28732769453E+02  0.18078300305E+02  0.52007808451E+01  0.34343050297E+02  0.00000000000E+00 0.  1.
</event>
<event>
 7    1  0.1692604E-013  0.7246152E+02  0.7816164E-02  0.1226708E+00
        -11   -1    0    0    0    0  0.00000000000E+00  0.00000000000E+00  0.45593999997E+02  0.45594000000E+02  0.51100000000E-03 0. -1.
         11   -1    0    0    0    0 -0.00000000000E+00 -0.00000000000E+00 -0.45593999997E+02  0.45594000000E+02  0.51100000000E-03 0.  1.
    9900012    2    1    2    0    0  0.10052084855E+02 -0.11287960379E+02 -0.11055251857E+02  0.72461520003E+02  0.69999934486E+02 0.  0.
         12    1    1    2    0    0 -0.10052084855E+02  0.11287960379E+02  0.11055251857E+02  0.18726479997E+02  0.00000000000E+00 0. -1.
         11    1    3    3    0    0 -0.18502041273E+02 -0.19030614089E+02  0.10518544854E+02  0.28550474426E+02  0.51100000000E-03 0. -1.
        -11    1    3    3    0    0  0.36446885324E+00 -0.81216830461E+00 -0.13275665882E+02  0.13305478562E+02  0.51100000000E-03 0.  1.
        -12    1    3    3    0    0  0.28189657275E+02  0.85548220141E+01 -0.82981308288E+01  0.30605567014E+02  0.00000000000E+00 0.  1.
</event>
<event>
 7    1  0.1692604E-013  0.7246153E+02  0.7816164E-02  0.1226708E+00
        -11   -1    0    0    0    0  0.00000000000E+00  0.00000000000E+00  0.45593999997E+02  0.45594000000E+02  0.51100000000E-03 0.  1.
         11   -1    0    0    0    0 -0.00000000000E+00 -0.00000000000E+00 -0.45593999997E+02  0.45594000000E+02  0.51100000000E-03 0. -1.
    9900012    2    1    2    0    0 -0.87316003812E+01 -0.14458448777E+02 -0.80866049822E+01  0.72461527658E+02  0.69999944458E+02 0.  0.
         12    1    1    2    0    0  0.87316003812E+01  0.14458448777E+02  0.80866049822E+01  0.18726472342E+02  0.00000000000E+00 0. -1.
         11    1    3    3    0    0  0.24994885946E+02 -0.15703236360E+01 -0.69607004326E+01  0.25993491312E+02  0.51100000000E-03 0. -1.
        -11    1    3    3    0    0 -0.41181336905E+01 -0.15620013356E+02 -0.38598330326E+01  0.16608496429E+02  0.51100000000E-03 0.  1.
        -12    1    3    3    0    0 -0.29608352637E+02  0.27318882153E+01  0.27339284830E+01  0.29859539917E+02  0.00000000000E+00 0.  1.
</event>
<event>
 7    1  0.1692604E-013  0.7246157E+02  0.7816164E-02  0.1226708E+00
        -11   -1    0    0    0    0  0.00000000000E+00  0.00000000000E+00  0.45593999997E+02  0.45594000000E+02  0.51100000000E-03 0.  1.
         11   -1    0    0    0    0 -0.00000000000E+00 -0.00000000000E+00 -0.45593999997E+02  0.45594000000E+02  0.51100000000E-03 0. -1.
    9900012    2    1    2    0    0 -0.16964319815E+02  0.79141510251E+01 -0.50711713247E+00  0.72461572123E+02  0.70000002382E+02 0.  0.
         12    1    1    2    0    0  0.16964319815E+02 -0.79141510251E+01  0.50711713247E+00  0.18726427877E+02  0.00000000000E+00 0. -1.
         11    1    3    3    0    0  0.17937938133E+02  0.12290140817E+02 -0.15927396316E+02  0.26953647980E+02  0.51100000000E-03 0. -1.
        -11    1    3    3    0    0 -0.21390837747E+01  0.64866424827E+01 -0.16112650721E+01  0.70177193936E+01  0.51100000000E-03 0.  1.
        -12    1    3    3    0    0 -0.32763174174E+02 -0.10862632275E+02  0.17031544255E+02  0.38490204749E+02  0.00000000000E+00 0.  1.
</event>
<event>
 7    1  0.1692604E-013  0.7246156E+02  0.7816164E-02  0.1226708E+00
        -11   -1    0    0    0    0  0.00000000000E+00  0.00000000000E+00  0.45593999997E+02  0.45594000000E+02  0.51100000000E-03 0.  1.
         11   -1    0    0    0    0 -0.00000000000E+00 -0.00000000000E+00 -0.45593999997E+02  0.45594000000E+02  0.51100000000E-03 0. -1.
    9900012    2    1    2    0    0 -0.97833439347E+01  0.97000702551E+01  0.12683623791E+02  0.72461561631E+02  0.69999988715E+02 0.  0.
         12    1    1    2    0    0  0.97833439347E+01 -0.97000702551E+01 -0.12683623791E+02  0.18726438369E+02  0.00000000000E+00 0. -1.
         11    1    3    3    0    0  0.21600189227E+01 -0.40008468933E+01 -0.66089617153E+01  0.80218970839E+01  0.51100000000E-03 0. -1.
        -11    1    3    3    0    0  0.16438411410E+02 -0.14007561582E+02  0.94375376635E+01  0.23569053197E+02  0.51100000000E-03 0.  1.
        -12    1    3    3    0    0 -0.28381774268E+02  0.27708478731E+02  0.98550478431E+01  0.40870611350E+02  0.00000000000E+00 0.  1.
</event>
<event>
 7    1  0.1692604E-013  0.7246118E+02  0.7816164E-02  0.1226709E+00
        -11   -1    0    0    0    0  0.00000000000E+00  0.00000000000E+00  0.45593999997E+02  0.45594000000E+02  0.51100000000E-03 0. -1.
         11   -1    0    0    0    0 -0.00000000000E+00 -0.00000000000E+00 -0.45593999997E+02  0.45594000000E+02  0.51100000000E-03 0.  1.
    9900012    2    1    2    0    0 -0.64200035431E+01 -0.15924736717E+02  0.74752972786E+01  0.72461180878E+02  0.69999492712E+02 0.  0.
         12    1    1    2    0    0  0.64200035431E+01  0.15924736717E+02 -0.74752972786E+01  0.18726819122E+02  0.00000000000E+00 0. -1.
         11    1    3    3    0    0 -0.11632974672E+02 -0.24741223864E+02  0.71084975084E+01  0.28248628199E+02  0.51100000000E-03 0. -1.
        -11    1    3    3    0    0 -0.16066297777E+02 -0.79794462876E+00  0.10013196825E+02  0.18948001235E+02  0.51100000000E-03 0.  1.
         12    1    3    3    0    0  0.21279268906E+02  0.96144317759E+01 -0.96463970551E+01  0.25264551444E+02  0.00000000000E+00 0. -1.
</event>
<event>
 7    1  0.1692604E-013  0.7246139E+02  0.7816164E-02  0.1226708E+00
        -11   -1    0    0    0    0  0.00000000000E+00  0.00000000000E+00  0.45593999997E+02  0.45594000000E+02  0.51100000000E-03 0. -1.
         11   -1    0    0    0    0 -0.00000000000E+00 -0.00000000000E+00 -0.45593999997E+02  0.45594000000E+02  0.51100000000E-03 0.  1.
    9900012    2    1    2    0    0  0.77244972042E+01 -0.31901205607E+01 -0.16758311797E+02  0.72461394848E+02  0.69999771448E+02 0.  0.
         12    1    1    2    0    0 -0.77244972042E+01  0.31901205607E+01  0.16758311797E+02  0.18726605152E+02  0.00000000000E+00 0. -1.
         11    1    3    3    0    0 -0.37829264603E+01  0.31511091382E+01  0.15034190304E+01  0.51478432811E+01  0.51100000000E-03 0. -1.
        -11    1    3    3    0    0  0.31342481011E+02 -0.22929644223E+02 -0.91518651878E+01  0.39898324988E+02  0.51100000000E-03 0.  1.
         12    1    3    3    0    0 -0.19835057347E+02  0.16588414524E+02 -0.91098656396E+01  0.27415226579E+02  0.00000000000E+00 0. -1.
</event>
<event>
 7    1  0.1692604E-013  0.7246147E+02  0.7816164E-02  0.1226708E+00
        -11   -1    0    0    0    0  0.00000000000E+00  0.00000000000E+00  0.45593999997E+02  0.45594000000E+02  0.51100000000E-03 0. -1.
         11   -1    0    0    0    0 -0.00000000000E+00 -0.00000000000E+00 -0.45593999997E+02  0.45594000000E+02  0.51100000000E-03 0.  1.
    9900012    2    1    2    0    0 -0.14247909642E+02  0.10984414580E+02 -0.51983366719E+01  0.72461468101E+02  0.69999866873E+02 0.  0.
         12    1    1    2    0    0  0.14247909642E+02 -0.10984414580E+02  0.51983366719E+01  0.18726531899E+02  0.00000000000E+00 0. -1.
         11    1    3    3    0    0 -0.66693464393E+01  0.69980638511E+00  0.74138909161E+01  0.99967839669E+01  0.51100000000E-03 0. -1.
        -11    1    3    3    0    0 -0.12859195454E+00  0.26996038504E+02 -0.27751754237E+02  0.38716437004E+02  0.51100000000E-03 0.  1.
         12    1    3    3    0    0 -0.74499712478E+01 -0.16711430309E+02  0.15139526649E+02  0.23748247129E+02  0.00000000000E+00 0. -1.
</event>
<event>
 7    1  0.1692604E-013  0.7246155E+02  0.7816164E-02  0.1226708E+00
        -11   -1    0    0    0    0  0.00000000000E+00  0.00000000000E+00  0.45593999997E+02  0.45594000000E+02  0.51100000000E-03 0.  1.
         11   -1    0    0    0    0 -0.00000000000E+00 -0.00000000000E+00 -0.45593999997E+02  0.45594000000E+02  0.51100000000E-03 0. -1.
    9900012    2    1    2    0    0 -0.10461880050E+02  0.10640357089E+02  0.11314223789E+02  0.72461553644E+02  0.69999978310E+02 0.  0.
         12    1    1    2    0    0  0.10461880050E+02 -0.10640357089E+02 -0.11314223789E+02  0.18726446356E+02  0.00000000000E+00 0. -1.
         11    1    3    3    0    0 -0.98334091696E+01 -0.53473945864E+01  0.22685777798E+01  0.11420902336E+02  0.51100000000E-03 0. -1.
        -11    1    3    3    0    0 -0.11516226915E+02  0.33896134513E+02  0.15644230962E+02  0.39068060867E+02  0.51100000000E-03 0.  1.
         12    1    3    3    0    0  0.10887756034E+02 -0.17908382837E+02 -0.65985849526E+01  0.21972590441E+02  0.00000000000E+00 0. -1.
</event>
<event>
 7    1  0.1692604E-013  0.7246150E+02  0.7816164E-02  0.1226708E+00
        -11   -1    0    0    0    0  0.00000000000E+00  0.00000000000E+00  0.45593999997E+02  0.45594000000E+02  0.51100000000E-03 0. -1.
         11   -1    0    0    0    0 -0.00000000000E+00 -0.00000000000E+00 -0.45593999997E+02  0.45594000000E+02  0.51100000000E-03 0.  1.
    9900012    2    1    2    0    0  0.55979277860E+00  0.14187283143E+00 -0.18717594746E+02  0.72461498754E+02  0.69999906805E+02 0.  0.
         12    1    1    2    0    0 -0.55979277860E+00 -0.14187283143E+00  0.18717594746E+02  0.18726501246E+02  0.00000000000E+00 0. -1.
         11    1    3    3    0    0 -0.46702237165E+01 -0.63239270895E+01  0.11835947140E+02  0.14208894692E+02  0.51100000000E-03 0. -1.
        -11    1    3    3    0    0  0.20669125620E+02 -0.25622988436E+01 -0.34159125996E+02  0.40007799469E+02  0.51100000000E-03 0.  1.
         12    1    3    3    0    0 -0.15439109125E+02  0.90280987645E+01  0.36055841103E+01  0.18244804593E+02  0.00000000000E+00 0. -1.
</event>
<event>
 7    1  0.1692604E-013  0.7246161E+02  0.7816164E-02  0.1226708E+00
        -11   -1    0    0    0    0  0.00000000000E+00  0.00000000000E+00  0.45593999997E+02  0.45594000000E+02  0.51100000000E-03 0.  1.
         11   -1    0    0    0    0 -0.00000000000E+00 -0.00000000000E+00 -0.45593999997E+02  0.45594000000E+02  0.51100000000E-03 0. -1.
    9900012    2    1    2    0    0  0.12892510657E+02  0.12125511045E+02 -0.61182530513E+01  0.72461605004E+02  0.70000045216E+02 0.  0.
         12    1    1    2    0    0 -0.12892510657E+02 -0.12125511045E+02  0.61182530513E+01  0.18726394996E+02  0.00000000000E+00 0. -1.
         11    1    3    3    0    0  0.39850440435E+01 -0.92928837573E+01 -0.92700722535E-01  0.10111718857E+02  0.51100000000E-03 0. -1.
        -11    1    3    3    0    0  0.34560321499E+01 -0.10008633525E+02  0.19037971475E+02  0.21784427039E+02  0.51100000000E-03 0.  1.
        -12    1    3    3    0    0  0.54514344633E+01  0.31427028328E+02 -0.25063523804E+02  0.40565459108E+02  0.00000000000E+00 0.  1.
</event>
<event>
 7    1  0.1692604E-013  0.7246154E+02  0.7816164E-02  0.1226708E+00
        -11   -1    0    0    0    0  0.00000000000E+00  0.00000000000E+00  0.45593999997E+02  0.45594000000E+02  0.51100000000E-03 0. -1.
         11   -1    0    0    0    0 -0.00000000000E+00 -0.00000000000E+00 -0.45593999997E+02  0.45594000000E+02  0.51100000000E-03 0.  1.
    9900012    2    1    2    0    0 -0.16920927676E+01  0.82632795436E+01 -0.16719309910E+02  0.72461540361E+02  0.69999961006E+02 0.  0.
         12    1    1    2    0    0  0.16920927676E+01 -0.82632795436E+01  0.16719309910E+02  0.18726459639E+02  0.00000000000E+00 0. -1.
         11    1    3    3    0    0  0.66376491751E+01 -0.70642981340E+01  0.13321358002E+02  0.16474867950E+02  0.51100000000E-03 0. -1.
        -11    1    3    3    0    0  0.74599497777E+01  0.21306812878E+02 -0.12488615382E+01  0.22609528547E+02  0.51100000000E-03 0.  1.
        -12    1    3    3    0    0 -0.15789691720E+02 -0.59792352003E+01 -0.28791806374E+02  0.33377143864E+02  0.00000000000E+00 0.  1.
</event>
<event>
 7    1  0.1692604E-013  0.7246159E+02  0.7816164E-02  0.1226708E+00
        -11   -1    0    0    0    0  0.00000000000E+00  0.00000000000E+00  0.45593999997E+02  0.45594000000E+02  0.51100000000E-03 0.  1.
         11   -1    0    0    0    0 -0.00000000000E+00 -0.00000000000E+00 -0.45593999997E+02  0.45594000000E+02  0.51100000000E-03 0. -1.
    9900012    2    1    2    0    0 -0.26872403261E+01  0.12074088348E+02  0.14059647777E+02  0.72461586419E+02  0.70000021005E+02 0.  0.
         12    1    1    2    0    0  0.26872403261E+01 -0.12074088348E+02 -0.14059647777E+02  0.18726413581E+02  0.00000000000E+00 0. -1.
         11    1    3    3    0    0 -0.19612582930E+02  0.16918614419E+02  0.99888220550E+01  0.27760934591E+02  0.51100000000E-03 0. -1.
        -11    1    3    3    0    0 -0.76773026861E+01  0.11504570866E+02  0.60469904036E+01  0.15095105848E+02  0.51100000000E-03 0.  1.
         12    1    3    3    0    0  0.24602645290E+02 -0.16349096937E+02 -0.19761646811E+01  0.29605545980E+02  0.00000000000E+00 0. -1.
</event>
<event>
 7    1  0.1692604E-013  0.7246148E+02  0.7816164E-02  0.1226708E+00
        -11   -1    0    0    0    0  0.00000000000E+00  0.00000000000E+00  0.45593999997E+02  0.45594000000E+02  0.51100000000E-03 0. -1.
         11   -1    0    0    0    0 -0.00000000000E+00 -0.00000000000E+00 -0.45593999997E+02  0.45594000000E+02  0.51100000000E-03 0.  1.
    9900012    2    1    2    0    0 -0.37444645904E+01 -0.17907346817E+02  0.39985804670E+01  0.72461475206E+02  0.69999876130E+02 0.  0.
         12    1    1    2    0    0  0.37444645904E+01  0.17907346817E+02 -0.39985804670E+01  0.18726524794E+02  0.00000000000E+00 0. -1.
         11    1    3    3    0    0  0.12032240938E+02 -0.16196553767E+02  0.59888974006E+01  0.21046854118E+02  0.51100000000E-03 0. -1.
        -11    1    3    3    0    0  0.13006104734E+02  0.49814128810E+01  0.12308057464E+02  0.18586594994E+02  0.51100000000E-03 0.  1.
        -12    1    3    3    0    0 -0.28782810263E+02 -0.66922059311E+01 -0.14298374398E+02  0.32828026095E+02  0.00000000000E+00 0.  1.
</event>
<event>
 7    1  0.1692604E-013  0.7246153E+02  0.7816164E-02  0.1226708E+00
        -11   -1    0    0    0    0  0.00000000000E+00  0.00000000000E+00  0.45593999997E+02  0.45594000000E+02  0.51100000000E-03 0.  1.
         11   -1    0    0    0    0 -0.00000000000E+00 -0.00000000000E+00 -0.45593999997E+02  0.45594000000E+02  0.51100000000E-03 0. -1.
    9900012    2    1    2    0    0  0.13568916948E+02  0.10891168028E+02  0.69244118513E+01  0.72461534032E+02  0.69999952762E+02 0.  0.
         12    1    1    2    0    0 -0.13568916948E+02 -0.10891168028E+02 -0.69244118513E+01  0.18726465968E+02  0.00000000000E+00 0. -1.
         11    1    3    3    0    0  0.73303869932E+01 -0.68789047440E+01 -0.13765990869E+02  0.17045715263E+02  0.51100000000E-03 0. -1.
        -11    1    3    3    0    0 -0.15917139487E+02 -0.52448105663E+01  0.15920528290E+02  0.23115505372E+02  0.51100000000E-03 0.  1.
        -12    1    3    3    0    0  0.22155669442E+02  0.23014883338E+02  0.47698744300E+01  0.32300313397E+02  0.00000000000E+00 0.  1.
</event>
<event>
 7    1  0.1692604E-013  0.7246156E+02  0.7816164E-02  0.1226708E+00
        -11   -1    0    0    0    0  0.00000000000E+00  0.00000000000E+00  0.45593999997E+02  0.45594000000E+02  0.51100000000E-03 0.  1.
         11   -1    0    0    0    0 -0.00000000000E+00 -0.00000000000E+00 -0.45593999997E+02  0.45594000000E+02  0.51100000000E-03 0. -1.
    9900012    2    1    2    0    0 -0.16648390112E+01 -0.12899822979E+02  0.13472280486E+02  0.72461562450E+02  0.69999989781E+02 0.  0.
         12    1    1    2    0    0  0.16648390112E+01  0.12899822979E+02 -0.13472280486E+02  0.18726437550E+02  0.00000000000E+00 0. -1.
         11    1    3    3    0    0  0.31000027802E+02 -0.10647378712E+02  0.57608344623E+01  0.33279958100E+02  0.51100000000E-03 0. -1.
        -11    1    3    3    0    0 -0.93618238595E+01 -0.52076759798E+01 -0.56980268160E+01  0.12133884166E+02  0.51100000000E-03 0.  1.
        -12    1    3    3    0    0 -0.23303042953E+02  0.29552317127E+01  0.13409472839E+02  0.27047720185E+02  0.00000000000E+00 0.  1.
</event>
<event>
 7    1  0.1692604E-013  0.7246161E+02  0.7816164E-02  0.1226708E+00
        -11   -1    0    0    0    0  0.00000000000E+00  0.00000000000E+00  0.45593999997E+02  0.45594000000E+02  0.51100000000E-03 0. -1.
         11   -1    0    0    0    0 -0.00000000000E+00 -0.00000000000E+00 -0.45593999997E+02  0.45594000000E+02  0.51100000000E-03 0.  1.
    9900012    2    1    2    0    0  0.54759332359E+01 -0.13775628230E+02 -0.11442195223E+02  0.72461611949E+02  0.70000054262E+02 0.  0.
         12    1    1    2    0    0 -0.54759332359E+01  0.13775628230E+02  0.11442195223E+02  0.18726388051E+02  0.00000000000E+00 0. -1.
         11    1    3    3    0    0  0.19974506732E+01 -0.10036019447E+02  0.26572561172E+01  0.10572251693E+02  0.51100000000E-03 0. -1.
        -11    1    3    3    0    0 -0.20800326849E+02 -0.19069839452E+02 -0.17137731335E+02  0.33015363231E+02  0.51100000000E-03 0.  1.
         12    1    3    3    0    0  0.24278809412E+02  0.15330230668E+02  0.30382799948E+01  0.28873997024E+02  0.00000000000E+00 0. -1.
</event>
<event>
 7    1  0.1692604E-013  0.7246156E+02  0.7816164E-02  0.1226708E+00
        -11   -1    0    0    0    0  0.00000000000E+00  0.00000000000E+00  0.45593999997E+02  0.45594000000E+02  0.51100000000E-03 0. -1.
         11   -1    0    0    0    0 -0.00000000000E+00 -0.00000000000E+00 -0.45593999997E+02  0.45594000000E+02  0.51100000000E-03 0.  1.
    9900012    2    1    2    0    0  0.24138659087E+01  0.18507885131E+02 -0.15202451601E+01  0.72461555970E+02  0.69999981340E+02 0.  0.
         12    1    1    2    0    0 -0.24138659087E+01 -0.18507885131E+02  0.15202451601E+01  0.18726444030E+02  0.00000000000E+00 0. -1.
         11    1    3    3    0    0 -0.26606141992E+01  0.15092634247E+02  0.22000670691E+02  0.26812235781E+02  0.51100000000E-03 0. -1.
        -11    1    3    3    0    0  0.11035440212E+02  0.19011849528E+02 -0.16727977849E+02  0.27623479258E+02  0.51100000000E-03 0.  1.
        -12    1    3    3    0    0 -0.59609601038E+01 -0.15596598643E+02 -0.67929380024E+01  0.18025840932E+02  0.00000000000E+00 0.  1.
</event>
<event>
 7    1  0.1692604E-013  0.7246177E+02  0.7816164E-02  0.1226707E+00
        -11   -1    0    0    0    0  0.00000000000E+00  0.00000000000E+00  0.45593999997E+02  0.45594000000E+02  0.51100000000E-03 0.  1.
         11   -1    0    0    0    0 -0.00000000000E+00 -0.00000000000E+00 -0.45593999997E+02  0.45594000000E+02  0.51100000000E-03 0. -1.
    9900012    2    1    2    0    0 -0.99705213406E+01 -0.60253210314E+01 -0.14661374955E+02  0.72461769602E+02  0.70000259635E+02 0.  0.
         12    1    1    2    0    0  0.99705213406E+01  0.60253210314E+01  0.14661374955E+02  0.18726230398E+02  0.00000000000E+00 0. -1.
         11    1    3    3    0    0 -0.22152226589E+02  0.17544050392E+02 -0.21614068236E+02  0.35576435923E+02  0.51100000000E-03 0. -1.
        -11    1    3    3    0    0  0.60431453165E+01  0.44582360026E+01  0.91780364595E+00  0.75655692029E+01  0.51100000000E-03 0.  1.
        -12    1    3    3    0    0  0.61385599321E+01 -0.28027607426E+02  0.60348896346E+01  0.29319764476E+02  0.00000000000E+00 0.  1.
</event>
<event>
 7    1  0.1692604E-013  0.7246157E+02  0.7816164E-02  0.1226708E+00
        -11   -1    0    0    0    0  0.00000000000E+00  0.00000000000E+00  0.45593999997E+02  0.45594000000E+02  0.51100000000E-03 0. -1.
         11   -1    0    0    0    0 -0.00000000000E+00 -0.00000000000E+00 -0.45593999997E+02  0.45594000000E+02  0.51100000000E-03 0.  1.
    9900012    2    1    2    0    0  0.36651160900E+01 -0.51620432498E+01 -0.17623834961E+02  0.72461566138E+02  0.69999994586E+02 0.  0.
         12    1    1    2    0    0 -0.36651160900E+01  0.51620432498E+01  0.17623834961E+02  0.18726433862E+02  0.00000000000E+00 0. -1.
         11    1    3    3    0    0  0.13194454447E+02  0.22234647281E+02  0.19270050331E+01  0.25926560059E+02  0.51100000000E-03 0. -1.
        -11    1    3    3    0    0  0.16085868688E+01  0.61344186499E+01 -0.42005560316E+00  0.63557132454E+01  0.51100000000E-03 0.  1.
        -12    1    3    3    0    0 -0.11137925226E+02 -0.33531109180E+02 -0.19130784391E+02  0.40179292833E+02  0.00000000000E+00 0.  1.
</event>
<event>
 7    1  0.1692604E-013  0.7246136E+02  0.7816164E-02  0.1226709E+00
        -11   -1    0    0    0    0  0.00000000000E+00  0.00000000000E+00  0.45593999997E+02  0.45594000000E+02  0.51100000000E-03 0.  1.
         11   -1    0    0    0    0 -0.00000000000E+00 -0.00000000000E+00 -0.45593999997E+02  0.45594000000E+02  0.51100000000E-03 0. -1.
    9900012    2    1    2    0    0  0.13508704389E+02  0.11205386935E+02 -0.65300182303E+01  0.72461363123E+02  0.69999730121E+02 0.  0.
         12    1    1    2    0    0 -0.13508704389E+02 -0.11205386935E+02  0.65300182303E+01  0.18726636877E+02  0.00000000000E+00 0. -1.
         11    1    3    3    0    0 -0.23503500102E+02  0.16513336930E+01  0.19293696289E+00  0.23562229202E+02  0.51100000000E-03 0. -1.
        -11    1    3    3    0    0  0.22373568473E+02  0.19740406461E+02  0.79240899403E-02  0.29837229706E+02  0.51100000000E-03 0.  1.
        -12    1    3    3    0    0  0.14638636019E+02 -0.10186353219E+02 -0.67308792832E+01  0.19061904216E+02  0.00000000000E+00 0.  1.
</event>
<event>
 7    1  0.1692604E-013  0.7246160E+02  0.7816164E-02  0.1226708E+00
        -11   -1    0    0    0    0  0.00000000000E+00  0.00000000000E+00  0.45593999997E+02  0.45594000000E+02  0.51100000000E-03 0.  1.
         11   -1    0    0    0    0 -0.00000000000E+00 -0.00000000000E+00 -0.45593999997E+02  0.45594000000E+02  0.51100000000E-03 0. -1.
    9900012    2    1    2    0    0 -0.77602162192E+01 -0.53869899797E+01 -0.16169031120E+02  0.72461596604E+02  0.70000034273E+02 0.  0.
         12    1    1    2    0    0  0.77602162192E+01  0.53869899797E+01  0.16169031120E+02  0.18726403396E+02  0.00000000000E+00 0. -1.
         11    1    3    3    0    0  0.53883601235E+01 -0.16401208155E+02 -0.73299640045E+01  0.18755330611E+02  0.51100000000E-03 0.  1.
        -11    1    3    3    0    0  0.46486073092E+01 -0.18188597206E+02 -0.33590681985E+01  0.19071391078E+02  0.51100000000E-03 0. -1.
        -12    1    3    3    0    0 -0.17797183652E+02  0.29202815382E+02 -0.54799989170E+01  0.34634874914E+02  0.00000000000E+00 0.  1.
</event>
<event>
 7    1  0.1692604E-013  0.7246161E+02  0.7816164E-02  0.1226708E+00
        -11   -1    0    0    0    0  0.00000000000E+00  0.00000000000E+00  0.45593999997E+02  0.45594000000E+02  0.51100000000E-03 0. -1.
         11   -1    0    0    0    0 -0.00000000000E+00 -0.00000000000E+00 -0.45593999997E+02  0.45594000000E+02  0.51100000000E-03 0.  1.
    9900012    2    1    2    0    0  0.12870828832E+02  0.12136143587E+02 -0.61427714469E+01  0.72461605338E+02  0.70000045651E+02 0.  0.
         12    1    1    2    0    0 -0.12870828832E+02 -0.12136143587E+02  0.61427714469E+01  0.18726394662E+02  0.00000000000E+00 0. -1.
         11    1    3    3    0    0  0.55450846109E+01  0.14350693082E+02  0.58928842147E+01  0.16474721239E+02  0.51100000000E-03 0. -1.
        -11    1    3    3    0    0 -0.11586932830E+02  0.50497111843E+01  0.16627744973E+02  0.20886323243E+02  0.51100000000E-03 0.  1.
        -12    1    3    3    0    0  0.18912677051E+02 -0.72642606797E+01 -0.28663400635E+02  0.35100560856E+02  0.00000000000E+00 0.  1.
</event>
<event>
 7    1  0.1726688E-013  0.7246154E+02  0.7816164E-02  0.1226708E+00
        -11   -1    0    0    0    0  0.00000000000E+00  0.00000000000E+00  0.45593999997E+02  0.45594000000E+02  0.51100000000E-03 0. -1.
         11   -1    0    0    0    0 -0.00000000000E+00 -0.00000000000E+00 -0.45593999997E+02  0.45594000000E+02  0.51100000000E-03 0.  1.
    9900012    2    1    2    0    0 -0.83203668879E+01  0.40988243020E+01 -0.16268105568E+02  0.72461544794E+02  0.69999966781E+02 0.  0.
         12    1    1    2    0    0  0.83203668879E+01 -0.40988243020E+01  0.16268105568E+02  0.18726455206E+02  0.00000000000E+00 0. -1.
         11    1    3    3    0    0  0.82810913356E+01 -0.17668168422E+02  0.58215088165E+01  0.20362480552E+02  0.51100000000E-03 0. -1.
        -11    1    3    3    0    0 -0.11105318726E+02 -0.70727454932E+01  0.29727770514E+01  0.13497749312E+02  0.51100000000E-03 0.  1.
        -12    1    3    3    0    0 -0.54961394971E+01  0.28839738217E+02 -0.25062391436E+02  0.38601314930E+02  0.00000000000E+00 0.  1.
</event>
<event>
 7    1  0.1692604E-013  0.7246141E+02  0.7816164E-02  0.1226708E+00
        -11   -1    0    0    0    0  0.00000000000E+00  0.00000000000E+00  0.45593999997E+02  0.45594000000E+02  0.51100000000E-03 0.  1.
         11   -1    0    0    0    0 -0.00000000000E+00 -0.00000000000E+00 -0.45593999997E+02  0.45594000000E+02  0.51100000000E-03 0. -1.
    9900012    2    1    2    0    0  0.13346461811E+02  0.13198461043E+01  0.13069625825E+02  0.72461410460E+02  0.69999791785E+02 0.  0.
         12    1    1    2    0    0 -0.13346461811E+02 -0.13198461043E+01 -0.13069625825E+02  0.18726589540E+02  0.00000000000E+00 0. -1.
         11    1    3    3    0    0 -0.65031517895E+01  0.80767755789E+01  0.11367674613E+01  0.10431563999E+02  0.51100000000E-03 0. -1.
        -11    1    3    3    0    0 -0.13186726422E+02 -0.20837701711E+02  0.78894794220E+01  0.25890991718E+02  0.51100000000E-03 0.  1.
        -12    1    3    3    0    0  0.33036340022E+02  0.14080772236E+02  0.40433789416E+01  0.36138854743E+02  0.00000000000E+00 0.  1.
</event>
<event>
 7    1  0.1692604E-013  0.7246157E+02  0.7816164E-02  0.1226708E+00
        -11   -1    0    0    0    0  0.00000000000E+00  0.00000000000E+00  0.45593999997E+02  0.45594000000E+02  0.51100000000E-03 0. -1.
         11   -1    0    0    0    0 -0.00000000000E+00 -0.00000000000E+00 -0.45593999997E+02  0.45594000000E+02  0.51100000000E-03 0.  1.
    9900012    2    1    2    0    0  0.12595177511E+02 -0.32601407524E+01  0.13468927394E+02  0.72461574302E+02  0.70000005221E+02 0.  0.
         12    1    1    2    0    0 -0.12595177511E+02  0.32601407524E+01 -0.13468927394E+02  0.18726425698E+02  0.00000000000E+00 0. -1.
         11    1    3    3    0    0 -0.39261277753E+01 -0.57902875346E+01  0.35252114610E+02  0.35939581158E+02  0.51100000000E-03 0. -1.
        -11    1    3    3    0    0 -0.47820503668E+01 -0.31562518596E+01 -0.30040027368E+00  0.57376103124E+01  0.51100000000E-03 0.  1.
        -12    1    3    3    0    0  0.21303355653E+02  0.56863986418E+01 -0.21482786942E+02  0.30784382832E+02  0.00000000000E+00 0.  1.
</event>
<event>
 7    1  0.1692604E-013  0.7246155E+02  0.7816164E-02  0.1226708E+00
        -11   -1    0    0    0    0  0.00000000000E+00  0.00000000000E+00  0.45593999997E+02  0.45594000000E+02  0.51100000000E-03 0.  1.
         11   -1    0    0    0    0 -0.00000000000E+00 -0.00000000000E+00 -0.45593999997E+02  0.45594000000E+02  0.51100000000E-03 0. -1.
    9900012    2    1    2    0    0  0.17715308564E+01  0.32176463355E+00  0.18639694190E+02  0.72461546690E+02  0.69999969252E+02 0.  0.
         12    1    1    2    0    0 -0.17715308564E+01 -0.32176463355E+00 -0.18639694190E+02  0.18726453310E+02  0.00000000000E+00 0. -1.
         11    1    3    3    0    0  0.61089340987E+01 -0.21049770784E+02 -0.11150238882E+02  0.24591456916E+02  0.51100000000E-03 0. -1.
        -11    1    3    3    0    0  0.97077108791E+01 -0.13998988329E+01  0.36491973068E+01  0.10464989656E+02  0.51100000000E-03 0.  1.
        -12    1    3    3    0    0 -0.14045114121E+02  0.22771434251E+02  0.26140735765E+02  0.37405100118E+02  0.00000000000E+00 0.  1.
</event>
<event>
 7    1  0.1692604E-013  0.7246157E+02  0.7816164E-02  0.1226708E+00
        -11   -1    0    0    0    0  0.00000000000E+00  0.00000000000E+00  0.45593999997E+02  0.45594000000E+02  0.51100000000E-03 0. -1.
         11   -1    0    0    0    0 -0.00000000000E+00 -0.00000000000E+00 -0.45593999997E+02  0.45594000000E+02  0.51100000000E-03 0.  1.
    9900012    2    1    2    0    0  0.84227496730E+01 -0.46161897557E+01 -0.16075675490E+02  0.72461567815E+02  0.69999996771E+02 0.  0.
         12    1    1    2    0    0 -0.84227496730E+01  0.46161897557E+01  0.16075675490E+02  0.18726432185E+02  0.00000000000E+00 0. -1.
         11    1    3    3    0    0  0.70115565800E+01  0.67250897477E-01  0.80570805151E+01  0.10680964144E+02  0.51100000000E-03 0. -1.
        -11    1    3    3    0    0 -0.66143828361E+01  0.25134741858E+02 -0.11313281504E+02  0.28345998787E+02  0.51100000000E-03 0.  1.
         12    1    3    3    0    0  0.80255759291E+01 -0.29818182512E+02 -0.12819474501E+02  0.33434604884E+02  0.00000000000E+00 0. -1.
</event>
<event>
 7    1  0.1692604E-013  0.7246158E+02  0.7816164E-02  0.1226708E+00
        -11   -1    0    0    0    0  0.00000000000E+00  0.00000000000E+00  0.45593999997E+02  0.45594000000E+02  0.51100000000E-03 0. -1.
         11   -1    0    0    0    0 -0.00000000000E+00 -0.00000000000E+00 -0.45593999997E+02  0.45594000000E+02  0.51100000000E-03 0.  1.
    9900012    2    1    2    0    0  0.12889181670E+02 -0.12816207275E+02 -0.45047449813E+01  0.72461577481E+02  0.70000009361E+02 0.  0.
         12    1    1    2    0    0 -0.12889181670E+02  0.12816207275E+02  0.45047449813E+01  0.18726422519E+02  0.00000000000E+00 0. -1.
         11    1    3    3    0    0 -0.55144205745E+01 -0.57622537646E+01  0.16013097521E+01  0.81348998706E+01  0.51100000000E-03 0. -1.
        -11    1    3    3    0    0  0.81382318678E+00 -0.32262924632E+02 -0.88520405487E+01  0.33465164517E+02  0.51100000000E-03 0.  1.
        -12    1    3    3    0    0  0.17589779058E+02  0.25208971122E+02  0.27459858154E+01  0.30861513093E+02  0.00000000000E+00 0.  1.
</event>
<event>
 7    1  0.1692604E-013  0.7246161E+02  0.7816164E-02  0.1226708E+00
        -11   -1    0    0    0    0  0.00000000000E+00  0.00000000000E+00  0.45593999997E+02  0.45594000000E+02  0.51100000000E-03 0.  1.
         11   -1    0    0    0    0 -0.00000000000E+00 -0.00000000000E+00 -0.45593999997E+02  0.45594000000E+02  0.51100000000E-03 0. -1.
    9900012    2    1    2    0    0 -0.93941578514E+01  0.23489844077E+01  0.16028407858E+02  0.72461607183E+02  0.70000048054E+02 0.  0.
         12    1    1    2    0    0  0.93941578514E+01 -0.23489844077E+01 -0.16028407858E+02  0.18726392817E+02  0.00000000000E+00 0. -1.
         11    1    3    3    0    0 -0.26206426275E+02  0.84844301007E+01  0.81100236070E+01  0.28714714266E+02  0.51100000000E-03 0. -1.
        -11    1    3    3    0    0 -0.11025365263E+02 -0.57738284881E+01 -0.45380664875E+01  0.13247257161E+02  0.51100000000E-03 0.  1.
        -12    1    3    3    0    0  0.27837633686E+02 -0.36161720492E+00  0.12456450738E+02  0.30499635756E+02  0.00000000000E+00 0.  1.
</event>
<event>
 7    1  0.1692604E-013  0.7246148E+02  0.7816164E-02  0.1226708E+00
        -11   -1    0    0    0    0  0.00000000000E+00  0.00000000000E+00  0.45593999997E+02  0.45594000000E+02  0.51100000000E-03 0. -1.
         11   -1    0    0    0    0 -0.00000000000E+00 -0.00000000000E+00 -0.45593999997E+02  0.45594000000E+02  0.51100000000E-03 0.  1.
    9900012    2    1    2    0    0 -0.10291752240E+02 -0.81773907989E+01 -0.13337634132E+02  0.72461484876E+02  0.69999888727E+02 0.  0.
         12    1    1    2    0    0  0.10291752240E+02  0.81773907989E+01  0.13337634132E+02  0.18726515124E+02  0.00000000000E+00 0. -1.
         11    1    3    3    0    0 -0.77648889715E+01 -0.44486619288E+01 -0.31018856750E+02  0.32283952175E+02  0.51100000000E-03 0.  1.
        -11    1    3    3    0    0 -0.99423710927E+00  0.16065763001E+02  0.96019191004E+01  0.18742841271E+02  0.51100000000E-03 0. -1.
        -12    1    3    3    0    0 -0.15326261589E+01 -0.19794491872E+02  0.80793035174E+01  0.21434691431E+02  0.00000000000E+00 0.  1.
</event>
<event>
 7    1  0.1692604E-013  0.7246111E+02  0.7816164E-02  0.1226709E+00
        -11   -1    0    0    0    0  0.00000000000E+00  0.00000000000E+00  0.45593999997E+02  0.45594000000E+02  0.51100000000E-03 0.  1.
         11   -1    0    0    0    0 -0.00000000000E+00 -0.00000000000E+00 -0.45593999997E+02  0.45594000000E+02  0.51100000000E-03 0. -1.
    9900012    2    1    2    0    0  0.17325443999E+02  0.67977877011E+01  0.20774143802E+01  0.72461105493E+02  0.69999394507E+02 0.  0.
         12    1    1    2    0    0 -0.17325443999E+02 -0.67977877011E+01 -0.20774143802E+01  0.18726894507E+02  0.00000000000E+00 0. -1.
         11    1    3    3    0    0  0.12236723105E+02 -0.68481892277E+01 -0.43773741025E+01  0.14690013354E+02  0.51100000000E-03 0. -1.
        -11    1    3    3    0    0 -0.68977972030E+01 -0.19981748431E+02 -0.15119551944E+01  0.21192826272E+02  0.51100000000E-03 0.  1.
         12    1    3    3    0    0  0.11986518097E+02  0.33627725360E+02  0.79667436772E+01  0.36578265866E+02  0.00000000000E+00 0. -1.
</event>
<event>
 7    1  0.1692604E-013  0.7246175E+02  0.7816164E-02  0.1226708E+00
        -11   -1    0    0    0    0  0.00000000000E+00  0.00000000000E+00  0.45593999997E+02  0.45594000000E+02  0.51100000000E-03 0.  1.
         11   -1    0    0    0    0 -0.00000000000E+00 -0.00000000000E+00 -0.45593999997E+02  0.45594000000E+02  0.51100000000E-03 0. -1.
    9900012    2    1    2    0    0  0.12836948196E+02  0.11069478503E+02  0.79593842414E+01  0.72461751289E+02  0.70000235778E+02 0.  0.
         12    1    1    2    0    0 -0.12836948196E+02 -0.11069478503E+02 -0.79593842414E+01  0.18726248711E+02  0.00000000000E+00 0. -1.
         11    1    3    3    0    0  0.19867598863E+02 -0.10210606049E+02 -0.47993517301E+00  0.22342969778E+02  0.51100000000E-03 0. -1.
        -11    1    3    3    0    0  0.53293952059E+01  0.31632696724E+01 -0.16073570180E+02  0.17226966850E+02  0.51100000000E-03 0.  1.
        -12    1    3    3    0    0 -0.12360045873E+02  0.18116814880E+02  0.24512889594E+02  0.32891814660E+02  0.00000000000E+00 0.  1.
</event>
<event>
 7    1  0.1692604E-013  0.7246156E+02  0.7816164E-02  0.1226708E+00
        -11   -1    0    0    0    0  0.00000000000E+00  0.00000000000E+00  0.45593999997E+02  0.45594000000E+02  0.51100000000E-03 0. -1.
         11   -1    0    0    0    0 -0.00000000000E+00 -0.00000000000E+00 -0.45593999997E+02  0.45594000000E+02  0.51100000000E-03 0.  1.
    9900012    2    1    2    0    0  0.12494853347E+02 -0.86425102701E+01 -0.10948293779E+02  0.72461561988E+02  0.69999989180E+02 0.  0.
         12    1    1    2    0    0 -0.12494853347E+02  0.86425102701E+01  0.10948293779E+02  0.18726438012E+02  0.00000000000E+00 0. -1.
         11    1    3    3    0    0 -0.20608844469E+02  0.55045486145E+00  0.15912378447E+02  0.26042873479E+02  0.51100000000E-03 0. -1.
        -11    1    3    3    0    0  0.20838351485E+01  0.33781914664E+01 -0.92451732324E+00  0.40754483253E+01  0.51100000000E-03 0.  1.
        -12    1    3    3    0    0  0.31019862668E+02 -0.12571156598E+02 -0.25936154903E+02  0.42343240184E+02  0.00000000000E+00 0.  1.
</event>
<event>
 7    1  0.1692604E-013  0.7246158E+02  0.7816164E-02  0.1226708E+00
        -11   -1    0    0    0    0  0.00000000000E+00  0.00000000000E+00  0.45593999997E+02  0.45594000000E+02  0.51100000000E-03 0.  1.
         11   -1    0    0    0    0 -0.00000000000E+00 -0.00000000000E+00 -0.45593999997E+02  0.45594000000E+02  0.51100000000E-03 0. -1.
    9900012    2    1    2    0    0 -0.16022432883E+02 -0.41944559667E+01  0.87388293315E+01  0.72461576037E+02  0.70000007481E+02 0.  0.
         12    1    1    2    0    0  0.16022432883E+02  0.41944559667E+01 -0.87388293315E+01  0.18726423963E+02  0.00000000000E+00 0. -1.
         11    1    3    3    0    0 -0.21972898689E+02  0.21260462232E+01  0.24918752044E+01  0.22215710469E+02  0.51100000000E-03 0. -1.
        -11    1    3    3    0    0 -0.21548156137E+02 -0.22628977395E+01  0.58667928569E+01  0.22446892831E+02  0.51100000000E-03 0.  1.
         12    1    3    3    0    0  0.27498621943E+02 -0.40576044504E+01  0.38016127018E+00  0.27798972737E+02  0.00000000000E+00 0. -1.
</event>
<event>
 7    1  0.1692604E-013  0.7246155E+02  0.7816164E-02  0.1226708E+00
        -11   -1    0    0    0    0  0.00000000000E+00  0.00000000000E+00  0.45593999997E+02  0.45594000000E+02  0.51100000000E-03 0. -1.
         11   -1    0    0    0    0 -0.00000000000E+00 -0.00000000000E+00 -0.45593999997E+02  0.45594000000E+02  0.51100000000E-03 0.  1.
    9900012    2    1    2    0    0  0.12725736661E+02  0.77268407159E+01  0.11359198727E+02  0.72461552480E+02  0.69999976793E+02 0.  0.
         12    1    1    2    0    0 -0.12725736661E+02 -0.77268407159E+01 -0.11359198727E+02  0.18726447520E+02  0.00000000000E+00 0. -1.
         11    1    3    3    0    0 -0.13289875508E+02  0.89127156483E+01  0.11037795947E+02  0.19439398933E+02  0.51100000000E-03 0. -1.
        -11    1    3    3    0    0  0.13031359753E+01 -0.26126091208E+01 -0.20481118281E+02  0.20688163188E+02  0.51100000000E-03 0.  1.
        -12    1    3    3    0    0  0.24712476194E+02  0.14267341884E+01  0.20802521061E+02  0.32333990359E+02  0.00000000000E+00 0.  1.
</event>
<event>
 7    1  0.1692604E-013  0.7246155E+02  0.7816164E-02  0.1226708E+00
        -11   -1    0    0    0    0  0.00000000000E+00  0.00000000000E+00  0.45593999997E+02  0.45594000000E+02  0.51100000000E-03 0. -1.
         11   -1    0    0    0    0 -0.00000000000E+00 -0.00000000000E+00 -0.45593999997E+02  0.45594000000E+02  0.51100000000E-03 0.  1.
    9900012    2    1    2    0    0  0.12360870653E+02  0.14060451275E+02 -0.43874773492E+00  0.72461550445E+02  0.69999974143E+02 0.  0.
         12    1    1    2    0    0 -0.12360870653E+02 -0.14060451275E+02  0.43874773492E+00  0.18726449555E+02  0.00000000000E+00 0. -1.
         11    1    3    3    0    0  0.11925444968E+02  0.23341975632E+01 -0.47663538442E+01  0.13053077996E+02  0.51100000000E-03 0. -1.
        -11    1    3    3    0    0  0.74465527543E+01 -0.13732713179E+02 -0.18703516223E+02  0.24369244521E+02  0.51100000000E-03 0.  1.
         12    1    3    3    0    0 -0.70111270696E+01  0.25458966891E+02  0.23031122332E+02  0.35039227928E+02  0.00000000000E+00 0. -1.
</event>
<event>
 7    1  0.1692604E-013  0.7246151E+02  0.7816164E-02  0.1226708E+00
        -11   -1    0    0    0    0  0.00000000000E+00  0.00000000000E+00  0.45593999997E+02  0.45594000000E+02  0.51100000000E-03 0.  1.
         11   -1    0    0    0    0 -0.00000000000E+00 -0.00000000000E+00 -0.45593999997E+02  0.45594000000E+02  0.51100000000E-03 0. -1.
    9900012    2    1    2    0    0 -0.52182734943E+00 -0.17730800341E+02  0.60023061217E+01  0.72461514391E+02  0.69999927175E+02 0.  0.
         12    1    1    2    0    0  0.52182734943E+00  0.17730800341E+02 -0.60023061217E+01  0.18726485609E+02  0.00000000000E+00 0. -1.
         11    1    3    3    0    0  0.19865368477E+02 -0.13113147965E+02  0.84763610261E+01  0.25267295280E+02  0.51100000000E-03 0. -1.
        -11    1    3    3    0    0  0.56325834650E+01  0.10214850730E+02  0.93948381736E+01  0.14977722006E+02  0.51100000000E-03 0.  1.
         12    1    3    3    0    0 -0.26019779292E+02 -0.14832503106E+02 -0.11868893078E+02  0.32216497104E+02  0.00000000000E+00 0. -1.
</event>
<event>
 7    1  0.1692604E-013  0.7246160E+02  0.7816164E-02  0.1226708E+00
        -11   -1    0    0    0    0  0.00000000000E+00  0.00000000000E+00  0.45593999997E+02  0.45594000000E+02  0.51100000000E-03 0. -1.
         11   -1    0    0    0    0 -0.00000000000E+00 -0.00000000000E+00 -0.45593999997E+02  0.45594000000E+02  0.51100000000E-03 0.  1.
    9900012    2    1    2    0    0  0.14860486675E+01 -0.13423535785E+02 -0.12972212558E+02  0.72461602795E+02  0.70000042338E+02 0.  0.
         12    1    1    2    0    0 -0.14860486675E+01  0.13423535785E+02  0.12972212558E+02  0.18726397205E+02  0.00000000000E+00 0. -1.
         11    1    3    3    0    0  0.25963347052E+02 -0.23696966454E+02  0.56386471533E+01  0.35601066715E+02  0.51100000000E-03 0. -1.
        -11    1    3    3    0    0  0.14158322233E+00 -0.32892389482E+01 -0.28084117836E+00  0.33042413193E+01  0.51100000000E-03 0.  1.
        -12    1    3    3    0    0 -0.24618881607E+02  0.13562669616E+02 -0.18330018533E+02  0.33556294761E+02  0.00000000000E+00 0.  1.
</event>
<event>
 7    1  0.1692604E-013  0.7246160E+02  0.7816164E-02  0.1226708E+00
        -11   -1    0    0    0    0  0.00000000000E+00  0.00000000000E+00  0.45593999997E+02  0.45594000000E+02  0.51100000000E-03 0.  1.
         11   -1    0    0    0    0 -0.00000000000E+00 -0.00000000000E+00 -0.45593999997E+02  0.45594000000E+02  0.51100000000E-03 0. -1.
    9900012    2    1    2    0    0  0.54296051890E+01 -0.13498441316E+02  0.11789381871E+02  0.72461600042E+02  0.70000038752E+02 0.  0.
         12    1    1    2    0    0 -0.54296051890E+01  0.13498441316E+02 -0.11789381871E+02  0.18726399958E+02  0.00000000000E+00 0. -1.
         11    1    3    3    0    0  0.18121380219E+02 -0.17224588167E+02 -0.10298925386E+01  0.25022620515E+02  0.51100000000E-03 0. -1.
        -11    1    3    3    0    0  0.48487379295E+01  0.17419176032E+02 -0.51905338363E+01  0.18811687721E+02  0.51100000000E-03 0.  1.
        -12    1    3    3    0    0 -0.17540512960E+02 -0.13693029182E+02  0.18009808246E+02  0.28627291806E+02  0.00000000000E+00 0.  1.
</event>
<event>
 7    1  0.1692604E-013  0.7246158E+02  0.7816164E-02  0.1226708E+00
        -11   -1    0    0    0    0  0.00000000000E+00  0.00000000000E+00  0.45593999997E+02  0.45594000000E+02  0.51100000000E-03 0. -1.
         11   -1    0    0    0    0 -0.00000000000E+00 -0.00000000000E+00 -0.45593999997E+02  0.45594000000E+02  0.51100000000E-03 0.  1.
    9900012    2    1    2    0    0 -0.24034543112E+00 -0.10504127224E+02 -0.15501102871E+02  0.72461584303E+02  0.70000018248E+02 0.  0.
         12    1    1    2    0    0  0.24034543112E+00  0.10504127224E+02  0.15501102871E+02  0.18726415697E+02  0.00000000000E+00 0. -1.
         11    1    3    3    0    0  0.13944081058E+01  0.51456003235E+01  0.36315698325E+01  0.64505717858E+01  0.51100000000E-03 0. -1.
        -11    1    3    3    0    0  0.22930066968E+01  0.14206665154E+02  0.14800094032E+02  0.20642916415E+02  0.51100000000E-03 0.  1.
        -12    1    3    3    0    0 -0.39277602337E+01 -0.29856392701E+02 -0.33932766736E+02  0.45368096102E+02  0.00000000000E+00 0.  1.
</event>
<event>
 7    1  0.1692604E-013  0.7246154E+02  0.7816164E-02  0.1226708E+00
        -11   -1    0    0    0    0  0.00000000000E+00  0.00000000000E+00  0.45593999997E+02  0.45594000000E+02  0.51100000000E-03 0.  1.
         11   -1    0    0    0    0 -0.00000000000E+00 -0.00000000000E+00 -0.45593999997E+02  0.45594000000E+02  0.51100000000E-03 0. -1.
    9900012    2    1    2    0    0  0.37046558332E+00 -0.68553079175E+01  0.17422620386E+02  0.72461542980E+02  0.69999964418E+02 0.  0.
         12    1    1    2    0    0 -0.37046558332E+00  0.68553079175E+01 -0.17422620386E+02  0.18726457020E+02  0.00000000000E+00 0. -1.
         11    1    3    3    0    0 -0.10673727330E+02  0.74839307358E+01  0.62751866735E+01  0.14467744898E+02  0.51100000000E-03 0. -1.
        -11    1    3    3    0    0 -0.19041685960E+02 -0.15086050544E+02  0.13525353481E+02  0.27804854113E+02  0.51100000000E-03 0.  1.
         12    1    3    3    0    0  0.30085878873E+02  0.74681189095E+00 -0.23779197683E+01  0.30188943969E+02  0.00000000000E+00 0. -1.
</event>
<event>
 7    1  0.1692604E-013  0.7246153E+02  0.7816164E-02  0.1226708E+00
        -11   -1    0    0    0    0  0.00000000000E+00  0.00000000000E+00  0.45593999997E+02  0.45594000000E+02  0.51100000000E-03 0.  1.
         11   -1    0    0    0    0 -0.00000000000E+00 -0.00000000000E+00 -0.45593999997E+02  0.45594000000E+02  0.51100000000E-03 0. -1.
    9900012    2    1    2    0    0  0.17631509082E+02 -0.33510998494E+01  0.53460851234E+01  0.72461531864E+02  0.69999949937E+02 0.  0.
         12    1    1    2    0    0 -0.17631509082E+02  0.33510998494E+01 -0.53460851234E+01  0.18726468136E+02  0.00000000000E+00 0. -1.
         11    1    3    3    0    0 -0.71242605667E+01 -0.15063882106E+02 -0.62531594978E+01  0.17798248136E+02  0.51100000000E-03 0. -1.
        -11    1    3    3    0    0 -0.12902566250E+02  0.83436585414E+01  0.10042643419E+01  0.15398097312E+02  0.51100000000E-03 0.  1.
        -12    1    3    3    0    0  0.37658335898E+02  0.33691237156E+01  0.10594980279E+02  0.39265186417E+02  0.00000000000E+00 0.  1.
</event>
<event>
 7    1  0.1692604E-013  0.7246162E+02  0.7816164E-02  0.1226708E+00
        -11   -1    0    0    0    0  0.00000000000E+00  0.00000000000E+00  0.45593999997E+02  0.45594000000E+02  0.51100000000E-03 0. -1.
         11   -1    0    0    0    0 -0.00000000000E+00 -0.00000000000E+00 -0.45593999997E+02  0.45594000000E+02  0.51100000000E-03 0.  1.
    9900012    2    1    2    0    0  0.17316585446E+01  0.44531215242E+01 -0.18106584855E+02  0.72461618936E+02  0.70000063365E+02 0.  0.
         12    1    1    2    0    0 -0.17316585446E+01 -0.44531215242E+01  0.18106584855E+02  0.18726381064E+02  0.00000000000E+00 0. -1.
         11    1    3    3    0    0 -0.26676232937E+02  0.94481264784E+01 -0.26030621675E+01  0.28419437548E+02  0.51100000000E-03 0. -1.
        -11    1    3    3    0    0  0.17286571177E+02  0.96995020563E+01 -0.16201085149E+02  0.25600411002E+02  0.51100000000E-03 0.  1.
        -12    1    3    3    0    0  0.11121320304E+02 -0.14694507011E+02  0.69756246115E+00  0.18441770386E+02  0.00000000000E+00 0.  1.
</event>
<event>
 7    1  0.1692604E-013  0.7246164E+02  0.7816164E-02  0.1226708E+00
        -11   -1    0    0    0    0  0.00000000000E+00  0.00000000000E+00  0.45593999997E+02  0.45594000000E+02  0.51100000000E-03 0.  1.
         11   -1    0    0    0    0 -0.00000000000E+00 -0.00000000000E+00 -0.45593999997E+02  0.45594000000E+02  0.51100000000E-03 0. -1.
    9900012    2    1    2    0    0  0.17010771664E+02 -0.65813952116E+01  0.42420882277E+01  0.72461643492E+02  0.70000095353E+02 0.  0.
         12    1    1    2    0    0 -0.17010771664E+02  0.65813952116E+01 -0.42420882277E+01  0.18726356508E+02  0.00000000000E+00 0. -1.
         11    1    3    3    0    0  0.28556753093E+02 -0.53793619137E+01  0.36293959751E+01  0.29284777569E+02  0.51100000000E-03 0. -1.
        -11    1    3    3    0    0 -0.37271445298E+01  0.12777885520E+02  0.16104478077E+02  0.20893065335E+02  0.51100000000E-03 0.  1.
         12    1    3    3    0    0 -0.78188368996E+01 -0.13979918818E+02 -0.15491785825E+02  0.22283800588E+02  0.00000000000E+00 0. -1.
</event>
<event>
 7    1  0.1692604E-013  0.7246155E+02  0.7816164E-02  0.1226708E+00
        -11   -1    0    0    0    0  0.00000000000E+00  0.00000000000E+00  0.45593999997E+02  0.45594000000E+02  0.51100000000E-03 0. -1.
         11   -1    0    0    0    0 -0.00000000000E+00 -0.00000000000E+00 -0.45593999997E+02  0.45594000000E+02  0.51100000000E-03 0.  1.
    9900012    2    1    2    0    0 -0.25124667090E+01  0.96728539677E+01 -0.15836776684E+02  0.72461545755E+02  0.69999968033E+02 0.  0.
         12    1    1    2    0    0  0.25124667090E+01 -0.96728539677E+01  0.15836776684E+02  0.18726454245E+02  0.00000000000E+00 0. -1.
         11    1    3    3    0    0 -0.23953159009E+02 -0.13726237711E+02  0.12808608962E+01  0.27637004778E+02  0.51100000000E-03 0. -1.
        -11    1    3    3    0    0 -0.97491529997E+00  0.15543094213E+02 -0.46167479140E-01  0.15573707627E+02  0.51100000000E-03 0.  1.
        -12    1    3    3    0    0  0.22415607600E+02  0.78559974653E+01 -0.17071470101E+02  0.29250833350E+02  0.00000000000E+00 0.  1.
</event>
<event>
 7    1  0.1692604E-013  0.7246160E+02  0.7816164E-02  0.1226708E+00
        -11   -1    0    0    0    0  0.00000000000E+00  0.00000000000E+00  0.45593999997E+02  0.45594000000E+02  0.51100000000E-03 0.  1.
         11   -1    0    0    0    0 -0.00000000000E+00 -0.00000000000E+00 -0.45593999997E+02  0.45594000000E+02  0.51100000000E-03 0. -1.
    9900012    2    1    2    0    0  0.32870011227E+01  0.10062601273E+02  0.15447254905E+02  0.72461601391E+02  0.70000040510E+02 0.  0.
         12    1    1    2    0    0 -0.32870011227E+01 -0.10062601273E+02 -0.15447254905E+02  0.18726398609E+02  0.00000000000E+00 0. -1.
         11    1    3    3    0    0 -0.75219797116E+00 -0.17812620147E+02  0.86391490423E+01  0.19811363777E+02  0.51100000000E-03 0. -1.
        -11    1    3    3    0    0  0.22051449793E+02  0.10809726449E+02  0.11948127893E+02  0.27310700911E+02  0.51100000000E-03 0.  1.
         12    1    3    3    0    0 -0.18012250699E+02  0.17065494971E+02 -0.51400220306E+01  0.25339536703E+02  0.00000000000E+00 0. -1.
</event>
<event>
 7    1  0.1692604E-013  0.7246156E+02  0.7816164E-02  0.1226708E+00
        -11   -1    0    0    0    0  0.00000000000E+00  0.00000000000E+00  0.45593999997E+02  0.45594000000E+02  0.51100000000E-03 0. -1.
         11   -1    0    0    0    0 -0.00000000000E+00 -0.00000000000E+00 -0.45593999997E+02  0.45594000000E+02  0.51100000000E-03 0.  1.
    9900012    2    1    2    0    0  0.12971064145E+02  0.33385337685E+01 -0.13087603295E+02  0.72461556857E+02  0.69999982495E+02 0.  0.
         12    1    1    2    0    0 -0.12971064145E+02 -0.33385337685E+01  0.13087603295E+02  0.18726443143E+02  0.00000000000E+00 0. -1.
         11    1    3    3    0    0 -0.10895025179E+02 -0.24572450454E+02 -0.18122393494E+02  0.32418020315E+02  0.51100000000E-03 0. -1.
        -11    1    3    3    0    0  0.14620637978E+02  0.84515843434E+01 -0.28017731848E+01  0.17118477329E+02  0.51100000000E-03 0.  1.
        -12    1    3    3    0    0  0.92454513462E+01  0.19459399879E+02  0.78365633839E+01  0.22925059213E+02  0.00000000000E+00 0.  1.
</event>
<event>
 7    1  0.1692604E-013  0.7246160E+02  0.7816164E-02  0.1226708E+00
        -11   -1    0    0    0    0  0.00000000000E+00  0.00000000000E+00  0.45593999997E+02  0.45594000000E+02  0.51100000000E-03 0. -1.
         11   -1    0    0    0    0 -0.00000000000E+00 -0.00000000000E+00 -0.45593999997E+02  0.45594000000E+02  0.51100000000E-03 0.  1.
    9900012    2    1    2    0    0 -0.92443725424E+01 -0.10607808343E+02 -0.12356943967E+02  0.72461599231E+02  0.70000037695E+02 0.  0.
         12    1    1    2    0    0  0.92443725424E+01  0.10607808343E+02  0.12356943967E+02  0.18726400769E+02  0.00000000000E+00 0. -1.
         11    1    3    3    0    0  0.40562570636E+01 -0.31429187800E+01 -0.26239769069E+01  0.57633683635E+01  0.51100000000E-03 0. -1.
        -11    1    3    3    0    0 -0.94051167973E+01  0.20129608165E+02 -0.26181143330E+02  0.34338165547E+02  0.51100000000E-03 0.  1.
         12    1    3    3    0    0 -0.38955128087E+01 -0.27594497729E+02  0.16448176269E+02  0.32360065320E+02  0.00000000000E+00 0. -1.
</event>
<event>
 7    1  0.1692604E-013  0.7246144E+02  0.7816164E-02  0.1226708E+00
        -11   -1    0    0    0    0  0.00000000000E+00  0.00000000000E+00  0.45593999997E+02  0.45594000000E+02  0.51100000000E-03 0.  1.
         11   -1    0    0    0    0 -0.00000000000E+00 -0.00000000000E+00 -0.45593999997E+02  0.45594000000E+02  0.51100000000E-03 0. -1.
    9900012    2    1    2    0    0 -0.18171759010E+02 -0.17516877974E+01  0.41716873161E+01  0.72461435693E+02  0.69999824657E+02 0.  0.
         12    1    1    2    0    0  0.18171759010E+02  0.17516877974E+01 -0.41716873161E+01  0.18726564307E+02  0.00000000000E+00 0. -1.
         11    1    3    3    0    0 -0.13167699507E+02 -0.11453967658E+02 -0.10237862666E+02  0.20233524598E+02  0.51100000000E-03 0. -1.
        -11    1    3    3    0    0  0.35808256509E+01 -0.18547966746E+02  0.12476702650E+02  0.22638849176E+02  0.51100000000E-03 0.  1.
        -12    1    3    3    0    0 -0.85848851541E+01  0.28250246607E+02  0.19328473323E+01  0.29589061919E+02  0.00000000000E+00 0.  1.
</event>
<event>
 7    1  0.1692604E-013  0.7246166E+02  0.7816164E-02  0.1226708E+00
        -11   -1    0    0    0    0  0.00000000000E+00  0.00000000000E+00  0.45593999997E+02  0.45594000000E+02  0.51100000000E-03 0.  1.
         11   -1    0    0    0    0 -0.00000000000E+00 -0.00000000000E+00 -0.45593999997E+02  0.45594000000E+02  0.51100000000E-03 0. -1.
    9900012    2    1    2    0    0  0.18069826865E+02  0.47902667459E+01 -0.11001619418E+01  0.72461664140E+02  0.70000122252E+02 0.  0.
         12    1    1    2    0    0 -0.18069826865E+02 -0.47902667459E+01  0.11001619418E+01  0.18726335860E+02  0.00000000000E+00 0. -1.
         11    1    3    3    0    0  0.10166836844E+02  0.18965128341E+02 -0.30678580727E+01  0.21735970598E+02  0.51100000000E-03 0. -1.
        -11    1    3    3    0    0  0.89333287523E+00  0.16886480247E+02 -0.59277713902E+01  0.17918976887E+02  0.51100000000E-03 0.  1.
        -12    1    3    3    0    0  0.70096571454E+01 -0.31061341842E+02  0.78954675211E+01  0.32806716656E+02  0.00000000000E+00 0.  1.
</event>
<event>
 7    1  0.1692604E-013  0.7246155E+02  0.7816164E-02  0.1226708E+00
        -11   -1    0    0    0    0  0.00000000000E+00  0.00000000000E+00  0.45593999997E+02  0.45594000000E+02  0.51100000000E-03 0.  1.
         11   -1    0    0    0    0 -0.00000000000E+00 -0.00000000000E+00 -0.45593999997E+02  0.45594000000E+02  0.51100000000E-03 0. -1.
    9900012    2    1    2    0    0  0.14071884179E+02 -0.69451062789E+01 -0.10218972008E+02  0.72461553073E+02  0.69999977567E+02 0.  0.
         12    1    1    2    0    0 -0.14071884179E+02  0.69451062789E+01  0.10218972008E+02  0.18726446927E+02  0.00000000000E+00 0. -1.
         11    1    3    3    0    0 -0.96910344026E+01 -0.17929772422E-01 -0.21611451237E+02  0.23684832575E+02  0.51100000000E-03 0. -1.
        -11    1    3    3    0    0 -0.12684474731E+00 -0.12267025712E+02 -0.10338740762E+02  0.16043240639E+02  0.51100000000E-03 0.  1.
        -12    1    3    3    0    0  0.23889763329E+02  0.53398492051E+01  0.21731219990E+02  0.32733479860E+02  0.00000000000E+00 0.  1.
</event>
<event>
 7    1  0.1692604E-013  0.7246162E+02  0.7816164E-02  0.1226708E+00
        -11   -1    0    0    0    0  0.00000000000E+00  0.00000000000E+00  0.45593999997E+02  0.45594000000E+02  0.51100000000E-03 0.  1.
         11   -1    0    0    0    0 -0.00000000000E+00 -0.00000000000E+00 -0.45593999997E+02  0.45594000000E+02  0.51100000000E-03 0. -1.
    9900012    2    1    2    0    0 -0.63454822095E+01  0.17618094035E+02  0.12173388454E+00  0.72461622854E+02  0.70000068468E+02 0.  0.
         12    1    1    2    0    0  0.63454822095E+01 -0.17618094035E+02 -0.12173388454E+00  0.18726377146E+02  0.00000000000E+00 0. -1.
         11    1    3    3    0    0 -0.61160664626E+01  0.23117880046E+01 -0.29680191599E+02  0.30391847696E+02  0.51100000000E-03 0. -1.
        -11    1    3    3    0    0 -0.20717031862E+00 -0.67683307275E+01  0.31647265295E+01  0.74745377546E+01  0.51100000000E-03 0.  1.
        -12    1    3    3    0    0 -0.22245428289E-01  0.22074636758E+02  0.26637198954E+02  0.34595237403E+02  0.00000000000E+00 0.  1.
</event>
<event>
 7    1  0.1692604E-013  0.7246160E+02  0.7816164E-02  0.1226708E+00
        -11   -1    0    0    0    0  0.00000000000E+00  0.00000000000E+00  0.45593999997E+02  0.45594000000E+02  0.51100000000E-03 0. -1.
         11   -1    0    0    0    0 -0.00000000000E+00 -0.00000000000E+00 -0.45593999997E+02  0.45594000000E+02  0.51100000000E-03 0.  1.
    9900012    2    1    2    0    0 -0.15837071907E+02  0.97582289527E+01  0.21545468948E+01  0.72461602824E+02  0.70000042375E+02 0.  0.
         12    1    1    2    0    0  0.15837071907E+02 -0.97582289527E+01 -0.21545468948E+01  0.18726397176E+02  0.00000000000E+00 0. -1.
         11    1    3    3    0    0 -0.18695923225E+02  0.19094967170E+02  0.92003657385E+01  0.28263086287E+02  0.51100000000E-03 0. -1.
        -11    1    3    3    0    0 -0.11454782307E+02  0.16158808029E+01 -0.19231269793E+02  0.22442478620E+02  0.51100000000E-03 0.  1.
        -12    1    3    3    0    0  0.14313633626E+02 -0.10952619021E+02  0.12185450950E+02  0.21756037917E+02  0.00000000000E+00 0.  1.
</event>
<event>
 7    1  0.1692604E-013  0.7246159E+02  0.7816164E-02  0.1226708E+00
        -11   -1    0    0    0    0  0.00000000000E+00  0.00000000000E+00  0.45593999997E+02  0.45594000000E+02  0.51100000000E-03 0. -1.
         11   -1    0    0    0    0 -0.00000000000E+00 -0.00000000000E+00 -0.45593999997E+02  0.45594000000E+02  0.51100000000E-03 0.  1.
    9900012    2    1    2    0    0 -0.51103056296E+01  0.69438586774E+01 -0.16623658070E+02  0.72461590719E+02  0.70000026606E+02 0.  0.
         12    1    1    2    0    0  0.51103056296E+01 -0.69438586774E+01  0.16623658070E+02  0.18726409281E+02  0.00000000000E+00 0. -1.
         11    1    3    3    0    0 -0.88535437202E+01 -0.12125798187E+02  0.11274534782E+02  0.18775924821E+02  0.51100000000E-03 0. -1.
        -11    1    3    3    0    0  0.20461659830E+02  0.44895809033E+00 -0.91596418714E+01  0.22422759104E+02  0.51100000000E-03 0.  1.
         12    1    3    3    0    0 -0.16718421740E+02  0.18620698774E+02 -0.18738550980E+02  0.31262906793E+02  0.00000000000E+00 0. -1.
</event>
<event>
 7    1  0.1692604E-013  0.7246160E+02  0.7816164E-02  0.1226708E+00
        -11   -1    0    0    0    0  0.00000000000E+00  0.00000000000E+00  0.45593999997E+02  0.45594000000E+02  0.51100000000E-03 0. -1.
         11   -1    0    0    0    0 -0.00000000000E+00 -0.00000000000E+00 -0.45593999997E+02  0.45594000000E+02  0.51100000000E-03 0.  1.
    9900012    2    1    2    0    0 -0.41055952927E+01 -0.11274554637E+02 -0.14377296668E+02  0.72461597397E+02  0.70000035307E+02 0.  0.
         12    1    1    2    0    0  0.41055952927E+01  0.11274554637E+02  0.14377296668E+02  0.18726402603E+02  0.00000000000E+00 0. -1.
         11    1    3    3    0    0 -0.15332671077E+01 -0.16828017355E+02 -0.87542854205E+01  0.19030780058E+02  0.51100000000E-03 0. -1.
        -11    1    3    3    0    0  0.23437090248E+02 -0.38148332809E+01 -0.93809706507E+01  0.25531407381E+02  0.51100000000E-03 0.  1.
         12    1    3    3    0    0 -0.26009418433E+02  0.93682959997E+01  0.37579594034E+01  0.27899409958E+02  0.00000000000E+00 0. -1.
</event>
<event>
 7    1  0.1692604E-013  0.7246161E+02  0.7816164E-02  0.1226708E+00
        -11   -1    0    0    0    0  0.00000000000E+00  0.00000000000E+00  0.45593999997E+02  0.45594000000E+02  0.51100000000E-03 0.  1.
         11   -1    0    0    0    0 -0.00000000000E+00 -0.00000000000E+00 -0.45593999997E+02  0.45594000000E+02  0.51100000000E-03 0. -1.
    9900012    2    1    2    0    0  0.93788707696E+01 -0.12092318272E+02  0.10793060971E+02  0.72461613716E+02  0.70000056565E+02 0.  0.
         12    1    1    2    0    0 -0.93788707696E+01  0.12092318272E+02 -0.10793060971E+02  0.18726386284E+02  0.00000000000E+00 0. -1.
         11    1    3    3    0    0 -0.49339795558E+01 -0.59630510087E+01  0.15817403525E+02  0.17609440256E+02  0.51100000000E-03 0. -1.
        -11    1    3    3    0    0  0.22044293269E+02 -0.19791166259E+02  0.11757408693E+02  0.31872837763E+02  0.51100000000E-03 0.  1.
         12    1    3    3    0    0 -0.77314429437E+01  0.13661898996E+02 -0.16781751247E+02  0.22979335697E+02  0.00000000000E+00 0. -1.
</event>
<event>
 7    1  0.1692604E-013  0.7246153E+02  0.7816164E-02  0.1226708E+00
        -11   -1    0    0    0    0  0.00000000000E+00  0.00000000000E+00  0.45593999997E+02  0.45594000000E+02  0.51100000000E-03 0.  1.
         11   -1    0    0    0    0 -0.00000000000E+00 -0.00000000000E+00 -0.45593999997E+02  0.45594000000E+02  0.51100000000E-03 0. -1.
    9900012    2    1    2    0    0  0.10402880902E+02  0.67621230627E+01  0.14026208570E+02  0.72461527662E+02  0.69999944464E+02 0.  0.
         12    1    1    2    0    0 -0.10402880902E+02 -0.67621230627E+01 -0.14026208570E+02  0.18726472338E+02  0.00000000000E+00 0. -1.
         11    1    3    3    0    0  0.92655533308E+01  0.24050562438E+02  0.50148635690E+01  0.26256977911E+02  0.51100000000E-03 0. -1.
        -11    1    3    3    0    0 -0.17664533355E+02  0.24371716901E+01  0.58701896349E+01  0.18773243490E+02  0.51100000000E-03 0.  1.
        -12    1    3    3    0    0  0.18801860926E+02 -0.19725611066E+02  0.31411553661E+01  0.27431306262E+02  0.00000000000E+00 0.  1.
</event>
<event>
 7    1  0.1692604E-013  0.7246157E+02  0.7816164E-02  0.1226708E+00
        -11   -1    0    0    0    0  0.00000000000E+00  0.00000000000E+00  0.45593999997E+02  0.45594000000E+02  0.51100000000E-03 0. -1.
         11   -1    0    0    0    0 -0.00000000000E+00 -0.00000000000E+00 -0.45593999997E+02  0.45594000000E+02  0.51100000000E-03 0.  1.
    9900012    2    1    2    0    0  0.74145442442E+01  0.59536900237E+00 -0.17185724151E+02  0.72461573614E+02  0.70000004324E+02 0.  0.
         12    1    1    2    0    0 -0.74145442442E+01 -0.59536900237E+00  0.17185724151E+02  0.18726426386E+02  0.00000000000E+00 0. -1.
         11    1    3    3    0    0  0.51242883085E+01  0.11502844714E+02 -0.40490903439E+02  0.42403856296E+02  0.51100000000E-03 0.  1.
        -11    1    3    3    0    0 -0.44473557846E+01  0.11187534645E+01  0.28774458192E+01  0.54138967013E+01  0.51100000000E-03 0. -1.
        -12    1    3    3    0    0  0.67376117203E+01 -0.12026229176E+02  0.20427733469E+02  0.24643820616E+02  0.00000000000E+00 0.  1.
</event>
<event>
 7    1  0.1692604E-013  0.7246174E+02  0.7816164E-02  0.1226708E+00
        -11   -1    0    0    0    0  0.00000000000E+00  0.00000000000E+00  0.45593999997E+02  0.45594000000E+02  0.51100000000E-03 0. -1.
         11   -1    0    0    0    0 -0.00000000000E+00 -0.00000000000E+00 -0.45593999997E+02  0.45594000000E+02  0.51100000000E-03 0.  1.
    9900012    2    1    2    0    0 -0.17051250860E+02  0.28834954505E+01  0.71842246098E+01  0.72461740760E+02  0.70000222062E+02 0.  0.
         12    1    1    2    0    0  0.17051250860E+02 -0.28834954505E+01 -0.71842246098E+01  0.18726259240E+02  0.00000000000E+00 0. -1.
         11    1    3    3    0    0 -0.60362463700E+01 -0.43594277164E+01 -0.35406261119E+01  0.82448113246E+01  0.51100000000E-03 0. -1.
        -11    1    3    3    0    0 -0.13809331269E+02 -0.13023284060E+02 -0.19826854068E+02  0.27448273176E+02  0.51100000000E-03 0.  1.
         12    1    3    3    0    0  0.27943267795E+01  0.20266207227E+02  0.30551704790E+02  0.36768656259E+02  0.00000000000E+00 0. -1.
</event>
<event>
 7    1  0.1692604E-013  0.7246161E+02  0.7816164E-02  0.1226708E+00
        -11   -1    0    0    0    0  0.00000000000E+00  0.00000000000E+00  0.45593999997E+02  0.45594000000E+02  0.51100000000E-03 0.  1.
         11   -1    0    0    0    0 -0.00000000000E+00 -0.00000000000E+00 -0.45593999997E+02  0.45594000000E+02  0.51100000000E-03 0. -1.
    9900012    2    1    2    0    0 -0.50643241861E+01 -0.16423272862E+02 -0.74368405860E+01  0.72461605022E+02  0.70000045240E+02 0.  0.
         12    1    1    2    0    0  0.50643241861E+01  0.16423272862E+02  0.74368405860E+01  0.18726394978E+02  0.00000000000E+00 0. -1.
         11    1    3    3    0    0 -0.11724975895E+02 -0.14966495635E+02 -0.35233312449E+02  0.40035701039E+02  0.51100000000E-03 0. -1.
        -11    1    3    3    0    0  0.92983808972E+00  0.20194478471E+00 -0.19059353223E+01  0.21302512254E+01  0.51100000000E-03 0.  1.
        -12    1    3    3    0    0  0.57308136194E+01 -0.16587220114E+01  0.29702407185E+02  0.30295652758E+02  0.00000000000E+00 0.  1.
</event>
<event>
 7    1  0.1692604E-013  0.7246162E+02  0.7816164E-02  0.1226708E+00
        -11   -1    0    0    0    0  0.00000000000E+00  0.00000000000E+00  0.45593999997E+02  0.45594000000E+02  0.51100000000E-03 0. -1.
         11   -1    0    0    0    0 -0.00000000000E+00 -0.00000000000E+00 -0.45593999997E+02  0.45594000000E+02  0.51100000000E-03 0.  1.
    9900012    2    1    2    0    0  0.10314070083E+01 -0.18486234572E+02 -0.28058508248E+01  0.72461615727E+02  0.70000059185E+02 0.  0.
         12    1    1    2    0    0 -0.10314070083E+01  0.18486234572E+02  0.28058508248E+01  0.18726384273E+02  0.00000000000E+00 0. -1.
         11    1    3    3    0    0  0.21059830693E+02  0.65689484480E+01  0.11952395695E+02  0.25090382932E+02  0.51100000000E-03 0. -1.
        -11    1    3    3    0    0  0.26738681311E+01 -0.68796397000E+01  0.76707515572E+01  0.10645160539E+02  0.51100000000E-03 0.  1.
        -12    1    3    3    0    0 -0.22702291816E+02 -0.18175543320E+02 -0.22428998077E+02  0.36726072257E+02  0.00000000000E+00 0.  1.
</event>
<event>
 7    1  0.1692604E-013  0.7246163E+02  0.7816164E-02  0.1226708E+00
        -11   -1    0    0    0    0  0.00000000000E+00  0.00000000000E+00  0.45593999997E+02  0.45594000000E+02  0.51100000000E-03 0.  1.
         11   -1    0    0    0    0 -0.00000000000E+00 -0.00000000000E+00 -0.45593999997E+02  0.45594000000E+02  0.51100000000E-03 0. -1.
    9900012    2    1    2    0    0 -0.17618095100E+02  0.37101700619E+01  0.51492126411E+01  0.72461627482E+02  0.70000074498E+02 0.  0.
         12    1    1    2    0    0  0.17618095100E+02 -0.37101700619E+01 -0.51492126411E+01  0.18726372518E+02  0.00000000000E+00 0. -1.
         11    1    3    3    0    0 -0.29718833975E+02 -0.78747944515E+00 -0.18493924934E+02  0.35012204678E+02  0.51100000000E-03 0. -1.
        -11    1    3    3    0    0  0.23228363562E+01  0.85754866826E+01 -0.25097854896E+01  0.92322025566E+01  0.51100000000E-03 0.  1.
        -12    1    3    3    0    0  0.97779025182E+01 -0.40778371755E+01  0.26152923065E+02  0.28217220248E+02  0.00000000000E+00 0.  1.
</event>
<event>
 7    1  0.1692604E-013  0.7246162E+02  0.7816164E-02  0.1226708E+00
        -11   -1    0    0    0    0  0.00000000000E+00  0.00000000000E+00  0.45593999997E+02  0.45594000000E+02  0.51100000000E-03 0. -1.
         11   -1    0    0    0    0 -0.00000000000E+00 -0.00000000000E+00 -0.45593999997E+02  0.45594000000E+02  0.51100000000E-03 0.  1.
    9900012    2    1    2    0    0 -0.70162266648E+01  0.56867118935E+01 -0.16404610738E+02  0.72461618015E+02  0.70000062165E+02 0.  0.
         12    1    1    2    0    0  0.70162266648E+01 -0.56867118935E+01  0.16404610738E+02  0.18726381985E+02  0.00000000000E+00 0. -1.
         11    1    3    3    0    0 -0.14871917595E+02  0.29563385763E+01 -0.15109146722E+02  0.21405611079E+02  0.51100000000E-03 0. -1.
        -11    1    3    3    0    0 -0.18954871326E+02  0.22448890286E+01 -0.11592594160E+02  0.22331925877E+02  0.51100000000E-03 0.  1.
        -12    1    3    3    0    0  0.26810562256E+02  0.48548428847E+00  0.10297130144E+02  0.28724081059E+02  0.00000000000E+00 0.  1.
</event>
<event>
 7    1  0.1692604E-013  0.7246156E+02  0.7816164E-02  0.1226708E+00
        -11   -1    0    0    0    0  0.00000000000E+00  0.00000000000E+00  0.45593999997E+02  0.45594000000E+02  0.51100000000E-03 0.  1.
         11   -1    0    0    0    0 -0.00000000000E+00 -0.00000000000E+00 -0.45593999997E+02  0.45594000000E+02  0.51100000000E-03 0. -1.
    9900012    2    1    2    0    0 -0.17480545568E+02 -0.66495061569E+01 -0.94567578809E+00  0.72461555912E+02  0.69999981265E+02 0.  0.
         12    1    1    2    0    0  0.17480545568E+02  0.66495061569E+01  0.94567578809E+00  0.18726444088E+02  0.00000000000E+00 0. -1.
         11    1    3    3    0    0 -0.81636655395E+00  0.10300788499E+02  0.70436224924E+01  0.12505411473E+02  0.51100000000E-03 0.  1.
        -11    1    3    3    0    0 -0.14159532117E+02 -0.36620745492E+02 -0.23152859550E+01  0.39331055153E+02  0.51100000000E-03 0. -1.
         12    1    3    3    0    0 -0.25046468967E+01  0.19670450836E+02 -0.56740123255E+01  0.20625089286E+02  0.00000000000E+00 0. -1.
</event>
<event>
 7    1  0.1692604E-013  0.7246156E+02  0.7816164E-02  0.1226708E+00
        -11   -1    0    0    0    0  0.00000000000E+00  0.00000000000E+00  0.45593999997E+02  0.45594000000E+02  0.51100000000E-03 0.  1.
         11   -1    0    0    0    0 -0.00000000000E+00 -0.00000000000E+00 -0.45593999997E+02  0.45594000000E+02  0.51100000000E-03 0. -1.
    9900012    2    1    2    0    0 -0.17904192506E+02  0.31386037513E+01 -0.45020478937E+01  0.72461564727E+02  0.69999992748E+02 0.  0.
         12    1    1    2    0    0  0.17904192506E+02 -0.31386037513E+01  0.45020478937E+01  0.18726435273E+02  0.00000000000E+00 0. -1.
         11    1    3    3    0    0  0.84087012670E+01 -0.92942609909E+01  0.31227064830E+01  0.12916688446E+02  0.51100000000E-03 0. -1.
        -11    1    3    3    0    0 -0.16356818925E+02 -0.19528234648E+02 -0.50576420599E+01  0.25970699207E+02  0.51100000000E-03 0.  1.
         12    1    3    3    0    0 -0.99560748475E+01  0.31961099390E+02 -0.25671123169E+01  0.33574177075E+02  0.00000000000E+00 0. -1.
</event>
<event>
 7    1  0.1692604E-013  0.7246157E+02  0.7816164E-02  0.1226708E+00
        -11   -1    0    0    0    0  0.00000000000E+00  0.00000000000E+00  0.45593999997E+02  0.45594000000E+02  0.51100000000E-03 0.  1.
         11   -1    0    0    0    0 -0.00000000000E+00 -0.00000000000E+00 -0.45593999997E+02  0.45594000000E+02  0.51100000000E-03 0. -1.
    9900012    2    1    2    0    0  0.74410028083E+01  0.15049554162E+02  0.82958701449E+01  0.72461573092E+02  0.70000003645E+02 0.  0.
         12    1    1    2    0    0 -0.74410028083E+01 -0.15049554162E+02 -0.82958701449E+01  0.18726426908E+02  0.00000000000E+00 0. -1.
         11    1    3    3    0    0 -0.14345173209E+01 -0.27302891226E+01 -0.22579426785E+02  0.22789094604E+02  0.51100000000E-03 0. -1.
        -11    1    3    3    0    0  0.14343782995E+02  0.32132137315E+01 -0.43888240943E+00  0.14705831194E+02  0.51100000000E-03 0.  1.
        -12    1    3    3    0    0 -0.54682628654E+01  0.14566629553E+02  0.31314179340E+02  0.34966647295E+02  0.00000000000E+00 0.  1.
</event>
<event>
 7    1  0.1692604E-013  0.7246160E+02  0.7816164E-02  0.1226708E+00
        -11   -1    0    0    0    0  0.00000000000E+00  0.00000000000E+00  0.45593999997E+02  0.45594000000E+02  0.51100000000E-03 0.  1.
         11   -1    0    0    0    0 -0.00000000000E+00 -0.00000000000E+00 -0.45593999997E+02  0.45594000000E+02  0.51100000000E-03 0. -1.
    9900012    2    1    2    0    0 -0.12522389171E+02 -0.92728193948E+01  0.10386654481E+02  0.72461601484E+02  0.70000040630E+02 0.  0.
         12    1    1    2    0    0  0.12522389171E+02  0.92728193948E+01 -0.10386654481E+02  0.18726398516E+02  0.00000000000E+00 0. -1.
         11    1    3    3    0    0  0.37052363300E+01 -0.13217195208E+02  0.16421964983E+02  0.21403363277E+02  0.51100000000E-03 0. -1.
        -11    1    3    3    0    0  0.32493087823E+01 -0.16313736320E+02  0.92860572211E+01  0.19050639340E+02  0.51100000000E-03 0.  1.
         12    1    3    3    0    0 -0.19476934283E+02  0.20258112134E+02 -0.15321367723E+02  0.32007598866E+02  0.00000000000E+00 0. -1.
</event>
<event>
 7    1  0.1692604E-013  0.7246159E+02  0.7816164E-02  0.1226708E+00
        -11   -1    0    0    0    0  0.00000000000E+00  0.00000000000E+00  0.45593999997E+02  0.45594000000E+02  0.51100000000E-03 0.  1.
         11   -1    0    0    0    0 -0.00000000000E+00 -0.00000000000E+00 -0.45593999997E+02  0.45594000000E+02  0.51100000000E-03 0. -1.
    9900012    2    1    2    0    0 -0.14236121489E+02  0.16668539940E+01 -0.12051260551E+02  0.72461589822E+02  0.70000025438E+02 0.  0.
         12    1    1    2    0    0  0.14236121489E+02 -0.16668539940E+01  0.12051260551E+02  0.18726410178E+02  0.00000000000E+00 0. -1.
         11    1    3    3    0    0  0.16637059644E+02 -0.52755903055E+01 -0.22292806397E+02  0.28312414662E+02  0.51100000000E-03 0. -1.
        -11    1    3    3    0    0  0.42125762117E+01 -0.31813021465E+01 -0.19847535164E+01  0.56396567687E+01  0.51100000000E-03 0.  1.
        -12    1    3    3    0    0 -0.35085757346E+02  0.10123746446E+02  0.12226299362E+02  0.38509518391E+02  0.00000000000E+00 0.  1.
</event>
<event>
 7    1  0.1692604E-013  0.7246160E+02  0.7816164E-02  0.1226708E+00
        -11   -1    0    0    0    0  0.00000000000E+00  0.00000000000E+00  0.45593999997E+02  0.45594000000E+02  0.51100000000E-03 0.  1.
         11   -1    0    0    0    0 -0.00000000000E+00 -0.00000000000E+00 -0.45593999997E+02  0.45594000000E+02  0.51100000000E-03 0. -1.
    9900012    2    1    2    0    0  0.48790223390E+01 -0.16496026931E+02  0.73996115509E+01  0.72461601131E+02  0.70000040170E+02 0.  0.
         12    1    1    2    0    0 -0.48790223390E+01  0.16496026931E+02 -0.73996115509E+01  0.18726398869E+02  0.00000000000E+00 0. -1.
         11    1    3    3    0    0 -0.17989822261E+01 -0.31587725037E+02  0.21523428377E+01  0.31712036990E+02  0.51100000000E-03 0.  1.
        -11    1    3    3    0    0  0.16166599379E+02 -0.51134729640E+00 -0.81390999103E+01  0.18107052746E+02  0.51100000000E-03 0. -1.
         12    1    3    3    0    0 -0.94885948136E+01  0.15603045403E+02  0.13386368623E+02  0.22642511395E+02  0.00000000000E+00 0. -1.
</event>
<event>
 7    1  0.1692604E-013  0.7246159E+02  0.7816164E-02  0.1226708E+00
        -11   -1    0    0    0    0  0.00000000000E+00  0.00000000000E+00  0.45593999997E+02  0.45594000000E+02  0.51100000000E-03 0.  1.
         11   -1    0    0    0    0 -0.00000000000E+00 -0.00000000000E+00 -0.45593999997E+02  0.45594000000E+02  0.51100000000E-03 0. -1.
    9900012    2    1    2    0    0  0.59352063125E+01 -0.19822491614E+01  0.17649995079E+02  0.72461593190E+02  0.70000029826E+02 0.  0.
         12    1    1    2    0    0 -0.59352063125E+01  0.19822491614E+01 -0.17649995079E+02  0.18726406810E+02  0.00000000000E+00 0. -1.
         11    1    3    3    0    0  0.86458580049E+01 -0.77066515140E+00  0.48580199147E+00  0.86937212546E+01  0.51100000000E-03 0. -1.
        -11    1    3    3    0    0  0.25336719094E+02  0.67088854214E+01 -0.55822432207E+01  0.26797759564E+02  0.51100000000E-03 0.  1.
        -12    1    3    3    0    0 -0.28047370786E+02 -0.79204694314E+01  0.22746436308E+02  0.36970112371E+02  0.00000000000E+00 0.  1.
</event>
<event>
 7    1  0.1692604E-013  0.7246156E+02  0.7816164E-02  0.1226708E+00
        -11   -1    0    0    0    0  0.00000000000E+00  0.00000000000E+00  0.45593999997E+02  0.45594000000E+02  0.51100000000E-03 0.  1.
         11   -1    0    0    0    0 -0.00000000000E+00 -0.00000000000E+00 -0.45593999997E+02  0.45594000000E+02  0.51100000000E-03 0. -1.
    9900012    2    1    2    0    0  0.31879996377E+01 -0.18397284761E+02  0.14339352262E+01  0.72461558841E+02  0.69999985080E+02 0.  0.
         12    1    1    2    0    0 -0.31879996377E+01  0.18397284761E+02 -0.14339352262E+01  0.18726441159E+02  0.00000000000E+00 0. -1.
         11    1    3    3    0    0 -0.28705784796E+02 -0.13320383843E+02  0.14456022831E+02  0.34791253252E+02  0.51100000000E-03 0. -1.
        -11    1    3    3    0    0 -0.14882423947E+01 -0.55163043308E+00 -0.11184986165E+01  0.19417005372E+01  0.51100000000E-03 0.  1.
        -12    1    3    3    0    0  0.33382026829E+02 -0.45252704845E+01 -0.11903588988E+02  0.35728605052E+02  0.00000000000E+00 0.  1.
</event>
<event>
 7    1  0.1692604E-013  0.7246156E+02  0.7816164E-02  0.1226708E+00
        -11   -1    0    0    0    0  0.00000000000E+00  0.00000000000E+00  0.45593999997E+02  0.45594000000E+02  0.51100000000E-03 0. -1.
         11   -1    0    0    0    0 -0.00000000000E+00 -0.00000000000E+00 -0.45593999997E+02  0.45594000000E+02  0.51100000000E-03 0.  1.
    9900012    2    1    2    0    0 -0.16006074984E+02  0.77164954894E+01 -0.59110599178E+01  0.72461564984E+02  0.69999993083E+02 0.  0.
         12    1    1    2    0    0  0.16006074984E+02 -0.77164954894E+01  0.59110599178E+01  0.18726435016E+02  0.00000000000E+00 0. -1.
         11    1    3    3    0    0 -0.20452025024E+02  0.26382656753E+01  0.12071895392E+01  0.20656792592E+02  0.51100000000E-03 0. -1.
        -11    1    3    3    0    0 -0.31369617567E+00 -0.22439965633E+02 -0.81041533102E+01  0.23860590186E+02  0.51100000000E-03 0.  1.
         12    1    3    3    0    0  0.47596462155E+01  0.27518195447E+02  0.98590385320E+00  0.27944182206E+02  0.00000000000E+00 0. -1.
</event>
<event>
 7    1  0.1692604E-013  0.7246159E+02  0.7816164E-02  0.1226708E+00
        -11   -1    0    0    0    0  0.00000000000E+00  0.00000000000E+00  0.45593999997E+02  0.45594000000E+02  0.51100000000E-03 0.  1.
         11   -1    0    0    0    0 -0.00000000000E+00 -0.00000000000E+00 -0.45593999997E+02  0.45594000000E+02  0.51100000000E-03 0. -1.
    9900012    2    1    2    0    0 -0.26567760673E+01 -0.87744670602E+01  0.16328766651E+02  0.72461592133E+02  0.70000028449E+02 0.  0.
         12    1    1    2    0    0  0.26567760673E+01  0.87744670602E+01 -0.16328766651E+02  0.18726407867E+02  0.00000000000E+00 0. -1.
         11    1    3    3    0    0  0.30244754232E+01 -0.54387097820E+01 -0.25795425163E+01  0.67365462615E+01  0.51100000000E-03 0. -1.
        -11    1    3    3    0    0 -0.22325431845E+02  0.13315150734E+01  0.35374441429E+02  0.41851510680E+02  0.51100000000E-03 0.  1.
         12    1    3    3    0    0  0.16644180355E+02 -0.46672723517E+01 -0.16466132262E+02  0.23873535192E+02  0.00000000000E+00 0. -1.
</event>
<event>
 7    1  0.1692604E-013  0.7246112E+02  0.7816164E-02  0.1226709E+00
        -11   -1    0    0    0    0  0.00000000000E+00  0.00000000000E+00  0.45593999997E+02  0.45594000000E+02  0.51100000000E-03 0.  1.
         11   -1    0    0    0    0 -0.00000000000E+00 -0.00000000000E+00 -0.45593999997E+02  0.45594000000E+02  0.51100000000E-03 0. -1.
    9900012    2    1    2    0    0  0.25686729662E+01 -0.15907040773E+02  0.95427414434E+01  0.72461122491E+02  0.69999416651E+02 0.  0.
         12    1    1    2    0    0 -0.25686729662E+01  0.15907040773E+02 -0.95427414434E+01  0.18726877509E+02  0.00000000000E+00 0. -1.
         11    1    3    3    0    0 -0.22650911046E+01  0.12332763140E+02 -0.12343445584E+02  0.17595122436E+02  0.51100000000E-03 0. -1.
        -11    1    3    3    0    0 -0.15148328621E+02 -0.52325377503E+01 -0.19946172473E+01  0.16150226300E+02  0.51100000000E-03 0.  1.
        -12    1    3    3    0    0  0.19982092692E+02 -0.23007266163E+02  0.23880804275E+02  0.38715773755E+02  0.00000000000E+00 0.  1.
</event>
<event>
 7    1  0.1692604E-013  0.7246153E+02  0.7816164E-02  0.1226708E+00
        -11   -1    0    0    0    0  0.00000000000E+00  0.00000000000E+00  0.45593999997E+02  0.45594000000E+02  0.51100000000E-03 0.  1.
         11   -1    0    0    0    0 -0.00000000000E+00 -0.00000000000E+00 -0.45593999997E+02  0.45594000000E+02  0.51100000000E-03 0. -1.
    9900012    2    1    2    0    0  0.13444085227E+02  0.12112067660E+02  0.48202591353E+01  0.72461534537E+02  0.69999953419E+02 0.  0.
         12    1    1    2    0    0 -0.13444085227E+02 -0.12112067660E+02 -0.48202591353E+01  0.18726465463E+02  0.00000000000E+00 0. -1.
         11    1    3    3    0    0  0.88206195012E+01 -0.73929604061E+01  0.15154476590E+02  0.19029381307E+02  0.51100000000E-03 0.  1.
        -11    1    3    3    0    0  0.69244462137E+01  0.14163378271E+02 -0.29475441585E+02  0.33426799073E+02  0.51100000000E-03 0. -1.
         12    1    3    3    0    0 -0.23009804875E+01  0.53416497957E+01  0.19141224130E+02  0.20005354157E+02  0.00000000000E+00 0. -1.
</event>
<event>
 7    1  0.1692604E-013  0.7246156E+02  0.7816164E-02  0.1226708E+00
        -11   -1    0    0    0    0  0.00000000000E+00  0.00000000000E+00  0.45593999997E+02  0.45594000000E+02  0.51100000000E-03 0.  1.
         11   -1    0    0    0    0 -0.00000000000E+00 -0.00000000000E+00 -0.45593999997E+02  0.45594000000E+02  0.51100000000E-03 0. -1.
    9900012    2    1    2    0    0 -0.73305232341E+01 -0.17036520022E+02  0.25883975024E+01  0.72461564488E+02  0.69999992436E+02 0.  0.
         12    1    1    2    0    0  0.73305232341E+01  0.17036520022E+02 -0.25883975024E+01  0.18726435512E+02  0.00000000000E+00 0. -1.
         11    1    3    3    0    0 -0.49322283586E+01  0.94451847214E+01 -0.52691310822E+01  0.11887057400E+02  0.51100000000E-03 0.  1.
        -11    1    3    3    0    0 -0.53386654738E+01 -0.35196183382E+02 -0.12905335617E+02  0.37865820489E+02  0.51100000000E-03 0. -1.
         12    1    3    3    0    0  0.29403705983E+01  0.87144786378E+01  0.20762864202E+02  0.22708686599E+02  0.00000000000E+00 0. -1.
</event>
<event>
 7    1  0.1692604E-013  0.7246157E+02  0.7816164E-02  0.1226708E+00
        -11   -1    0    0    0    0  0.00000000000E+00  0.00000000000E+00  0.45593999997E+02  0.45594000000E+02  0.51100000000E-03 0.  1.
         11   -1    0    0    0    0 -0.00000000000E+00 -0.00000000000E+00 -0.45593999997E+02  0.45594000000E+02  0.51100000000E-03 0. -1.
    9900012    2    1    2    0    0 -0.31899412693E+01 -0.11912601811E+02  0.14092315761E+02  0.72461570262E+02  0.69999999958E+02 0.  0.
         12    1    1    2    0    0  0.31899412693E+01  0.11912601811E+02 -0.14092315761E+02  0.18726429738E+02  0.00000000000E+00 0. -1.
         11    1    3    3    0    0 -0.16693922896E+01 -0.73872195500E+01 -0.13556662359E+02  0.15528714624E+02  0.51100000000E-03 0. -1.
        -11    1    3    3    0    0 -0.68874772358E+01  0.18847113031E+02  0.26072600975E+02  0.32900327265E+02  0.51100000000E-03 0.  1.
         12    1    3    3    0    0  0.53669282560E+01 -0.23372495292E+02  0.15763771452E+01  0.24032528373E+02  0.00000000000E+00 0. -1.
</event>
<event>
 7    1  0.1692604E-013  0.7246161E+02  0.7816164E-02  0.1226708E+00
        -11   -1    0    0    0    0  0.00000000000E+00  0.00000000000E+00  0.45593999997E+02  0.45594000000E+02  0.51100000000E-03 0. -1.
         11   -1    0    0    0    0 -0.00000000000E+00 -0.00000000000E+00 -0.45593999997E+02  0.45594000000E+02  0.51100000000E-03 0.  1.
    9900012    2    1    2    0    0  0.76612856953E+01 -0.11694223987E+02  0.12459037195E+02  0.72461607369E+02  0.70000048296E+02 0.  0.
         12    1    1    2    0    0 -0.76612856953E+01  0.11694223987E+02 -0.12459037195E+02  0.18726392631E+02  0.00000000000E+00 0. -1.
         11    1    3    3    0    0 -0.17350498537E+02  0.16216110005E+02  0.15348233071E+02  0.28276673811E+02  0.51100000000E-03 0. -1.
        -11    1    3    3    0    0  0.12371090189E+02 -0.10879011889E+02  0.10090507565E+02  0.19318776237E+02  0.51100000000E-03 0.  1.
        -12    1    3    3    0    0  0.12640694044E+02 -0.17031322103E+02 -0.12979703441E+02  0.24866157320E+02  0.00000000000E+00 0.  1.
</event>
<event>
 7    1  0.1692604E-013  0.7246154E+02  0.7816164E-02  0.1226708E+00
        -11   -1    0    0    0    0  0.00000000000E+00  0.00000000000E+00  0.45593999997E+02  0.45594000000E+02  0.51100000000E-03 0.  1.
         11   -1    0    0    0    0 -0.00000000000E+00 -0.00000000000E+00 -0.45593999997E+02  0.45594000000E+02  0.51100000000E-03 0. -1.
    9900012    2    1    2    0    0  0.76648372215E+01 -0.14969058498E+02 -0.82375780771E+01  0.72461544528E+02  0.69999966435E+02 0.  0.
         12    1    1    2    0    0 -0.76648372215E+01  0.14969058498E+02  0.82375780771E+01  0.18726455472E+02  0.00000000000E+00 0. -1.
         11    1    3    3    0    0  0.39259794934E+01  0.30989961450E+01  0.29509765870E+01  0.58073535425E+01  0.51100000000E-03 0. -1.
        -11    1    3    3    0    0  0.15388568235E+02 -0.23174596665E+02  0.19139533215E+02  0.33766724669E+02  0.51100000000E-03 0.  1.
         12    1    3    3    0    0 -0.11649710507E+02  0.51065420219E+01 -0.30328087879E+02  0.32887466317E+02  0.00000000000E+00 0. -1.
</event>
<event>
 7    1  0.1692604E-013  0.7246157E+02  0.7816164E-02  0.1226708E+00
        -11   -1    0    0    0    0  0.00000000000E+00  0.00000000000E+00  0.45593999997E+02  0.45594000000E+02  0.51100000000E-03 0.  1.
         11   -1    0    0    0    0 -0.00000000000E+00 -0.00000000000E+00 -0.45593999997E+02  0.45594000000E+02  0.51100000000E-03 0. -1.
    9900012    2    1    2    0    0 -0.15919547694E+02  0.92203855703E+01  0.34973646368E+01  0.72461572999E+02  0.70000003523E+02 0.  0.
         12    1    1    2    0    0  0.15919547694E+02 -0.92203855703E+01 -0.34973646368E+01  0.18726427001E+02  0.00000000000E+00 0. -1.
         11    1    3    3    0    0 -0.89650512509E+01  0.15091843557E+02  0.17866801893E+01  0.17644492405E+02  0.51100000000E-03 0. -1.
        -11    1    3    3    0    0 -0.26356693704E+02  0.61119786424E+00 -0.13218680072E+02  0.29492072985E+02  0.51100000000E-03 0.  1.
         12    1    3    3    0    0  0.19402197261E+02 -0.64826558506E+01  0.14929364519E+02  0.25325007609E+02  0.00000000000E+00 0. -1.
</event>
<event>
 7    1  0.1692604E-013  0.7246159E+02  0.7816164E-02  0.1226708E+00
        -11   -1    0    0    0    0  0.00000000000E+00  0.00000000000E+00  0.45593999997E+02  0.45594000000E+02  0.51100000000E-03 0.  1.
         11   -1    0    0    0    0 -0.00000000000E+00 -0.00000000000E+00 -0.45593999997E+02  0.45594000000E+02  0.51100000000E-03 0. -1.
    9900012    2    1    2    0    0  0.85209449616E+00  0.91803509459E+01  0.16299490077E+02  0.72461593904E+02  0.70000030756E+02 0.  0.
         12    1    1    2    0    0 -0.85209449616E+00 -0.91803509459E+01 -0.16299490077E+02  0.18726406096E+02  0.00000000000E+00 0. -1.
         11    1    3    3    0    0  0.26542661930E+02 -0.12506414552E+02  0.48404122413E+01  0.29738071528E+02  0.51100000000E-03 0. -1.
        -11    1    3    3    0    0 -0.53299018121E+01  0.10755688594E+02 -0.63203678677E+01  0.13566124749E+02  0.51100000000E-03 0.  1.
        -12    1    3    3    0    0 -0.20360665622E+02  0.10931076905E+02  0.17779445703E+02  0.29157397627E+02  0.00000000000E+00 0.  1.
</event>
<event>
 7    1  0.1692604E-013  0.7246180E+02  0.7816164E-02  0.1226707E+00
        -11   -1    0    0    0    0  0.00000000000E+00  0.00000000000E+00  0.45593999997E+02  0.45594000000E+02  0.51100000000E-03 0. -1.
         11   -1    0    0    0    0 -0.00000000000E+00 -0.00000000000E+00 -0.45593999997E+02  0.45594000000E+02  0.51100000000E-03 0.  1.
    9900012    2    1    2    0    0  0.17329849758E+02 -0.23504919885E+01 -0.66949391688E+01  0.72461796015E+02  0.70000294042E+02 0.  0.
         12    1    1    2    0    0 -0.17329849758E+02  0.23504919885E+01  0.66949391688E+01  0.18726203985E+02  0.00000000000E+00 0. -1.
         11    1    3    3    0    0  0.26568459009E+02  0.20985231756E+02  0.13343955865E+02  0.36391264396E+02  0.51100000000E-03 0. -1.
        -11    1    3    3    0    0  0.17210966594E+01  0.18274322666E+01 -0.12116527562E+01  0.27874334185E+01  0.51100000000E-03 0.  1.
        -12    1    3    3    0    0 -0.10959705910E+02 -0.25163156011E+02 -0.18827242277E+02  0.33283098200E+02  0.00000000000E+00 0.  1.
</event>
<event>
 7    1  0.1692604E-013  0.7246159E+02  0.7816164E-02  0.1226708E+00
        -11   -1    0    0    0    0  0.00000000000E+00  0.00000000000E+00  0.45593999997E+02  0.45594000000E+02  0.51100000000E-03 0. -1.
         11   -1    0    0    0    0 -0.00000000000E+00 -0.00000000000E+00 -0.45593999997E+02  0.45594000000E+02  0.51100000000E-03 0.  1.
    9900012    2    1    2    0    0  0.47430685240E+01 -0.59221011585E+01 -0.17120468542E+02  0.72461590193E+02  0.70000025922E+02 0.  0.
         12    1    1    2    0    0 -0.47430685240E+01  0.59221011585E+01  0.17120468542E+02  0.18726409807E+02  0.00000000000E+00 0. -1.
         11    1    3    3    0    0  0.87846104733E+01 -0.65603788685E+00  0.62218309027E+01  0.10784755302E+02  0.51100000000E-03 0. -1.
        -11    1    3    3    0    0  0.19821068645E+02 -0.82746130401E+01  0.73334785353E+01  0.22696340914E+02  0.51100000000E-03 0.  1.
         12    1    3    3    0    0 -0.23862610594E+02  0.30085497684E+01 -0.30675777980E+02  0.38980493978E+02  0.00000000000E+00 0. -1.
</event>
<event>
 7    1  0.1692604E-013  0.7246160E+02  0.7816164E-02  0.1226708E+00
        -11   -1    0    0    0    0  0.00000000000E+00  0.00000000000E+00  0.45593999997E+02  0.45594000000E+02  0.51100000000E-03 0.  1.
         11   -1    0    0    0    0 -0.00000000000E+00 -0.00000000000E+00 -0.45593999997E+02  0.45594000000E+02  0.51100000000E-03 0. -1.
    9900012    2    1    2    0    0 -0.61332505357E+01  0.14701079529E+02  0.98457972772E+01  0.72461595501E+02  0.70000032836E+02 0.  0.
         12    1    1    2    0    0  0.61332505357E+01 -0.14701079529E+02 -0.98457972772E+01  0.18726404499E+02  0.00000000000E+00 0. -1.
         11    1    3    3    0    0 -0.11312641633E+02  0.55838477684E+01 -0.11882459954E+02  0.17330553120E+02  0.51100000000E-03 0. -1.
        -11    1    3    3    0    0 -0.17510815370E+02 -0.10708904044E+02  0.93720919236E+01  0.22564250221E+02  0.51100000000E-03 0.  1.
        -12    1    3    3    0    0  0.22690206468E+02  0.19826135804E+02  0.12356165308E+02  0.32566792160E+02  0.00000000000E+00 0.  1.
</event>
<event>
 7    1  0.1692604E-013  0.7246158E+02  0.7816164E-02  0.1226708E+00
        -11   -1    0    0    0    0  0.00000000000E+00  0.00000000000E+00  0.45593999997E+02  0.45594000000E+02  0.51100000000E-03 0.  1.
         11   -1    0    0    0    0 -0.00000000000E+00 -0.00000000000E+00 -0.45593999997E+02  0.45594000000E+02  0.51100000000E-03 0. -1.
    9900012    2    1    2    0    0 -0.57281527921E+01  0.66484854081E+01  0.16542819045E+02  0.72461576033E+02  0.70000007476E+02 0.  0.
         12    1    1    2    0    0  0.57281527921E+01 -0.66484854081E+01 -0.16542819045E+02  0.18726423967E+02  0.00000000000E+00 0. -1.
         11    1    3    3    0    0 -0.11070010728E+02  0.24351805457E+01  0.75651229995E+01  0.13627410909E+02  0.51100000000E-03 0. -1.
        -11    1    3    3    0    0 -0.19499164749E+02 -0.28395948883E+01  0.22315496208E+02  0.29770154456E+02  0.51100000000E-03 0.  1.
         12    1    3    3    0    0  0.24841022686E+02  0.70528997507E+01 -0.13337800163E+02  0.29064010669E+02  0.00000000000E+00 0. -1.
</event>
<event>
 7    1  0.1692604E-013  0.7246161E+02  0.7816164E-02  0.1226708E+00
        -11   -1    0    0    0    0  0.00000000000E+00  0.00000000000E+00  0.45593999997E+02  0.45594000000E+02  0.51100000000E-03 0. -1.
         11   -1    0    0    0    0 -0.00000000000E+00 -0.00000000000E+00 -0.45593999997E+02  0.45594000000E+02  0.51100000000E-03 0.  1.
    9900012    2    1    2    0    0 -0.13695426900E+02  0.83327395881E+01  0.96787687512E+01  0.72461606018E+02  0.70000046537E+02 0.  0.
         12    1    1    2    0    0  0.13695426900E+02 -0.83327395881E+01 -0.96787687512E+01  0.18726393982E+02  0.00000000000E+00 0. -1.
         11    1    3    3    0    0  0.82458239688E+01 -0.55715990892E+01  0.19433697887E+02  0.21833573760E+02  0.51100000000E-03 0. -1.
        -11    1    3    3    0    0 -0.22118768196E+02 -0.10571717970E+02 -0.68491434939E+00  0.24524890117E+02  0.51100000000E-03 0.  1.
        -12    1    3    3    0    0  0.17751732631E+00  0.24476056647E+02 -0.90700147862E+01  0.26103142141E+02  0.00000000000E+00 0.  1.
</event>
<event>
 7    1  0.1692604E-013  0.7246142E+02  0.7816164E-02  0.1226708E+00
        -11   -1    0    0    0    0  0.00000000000E+00  0.00000000000E+00  0.45593999997E+02  0.45594000000E+02  0.51100000000E-03 0.  1.
         11   -1    0    0    0    0 -0.00000000000E+00 -0.00000000000E+00 -0.45593999997E+02  0.45594000000E+02  0.51100000000E-03 0. -1.
    9900012    2    1    2    0    0  0.71032577113E+01  0.43540529948E+01  0.16771125087E+02  0.72461423050E+02  0.69999808187E+02 0.  0.
         12    1    1    2    0    0 -0.71032577113E+01 -0.43540529948E+01 -0.16771125087E+02  0.18726576950E+02  0.00000000000E+00 0. -1.
         11    1    3    3    0    0  0.23232109539E+02 -0.19688372640E+02  0.23846027601E+02  0.38678107030E+02  0.51100000000E-03 0. -1.
        -11    1    3    3    0    0 -0.10027989363E+01  0.18864485275E+01  0.41774663935E+01  0.46920698507E+01  0.51100000000E-03 0.  1.
         12    1    3    3    0    0 -0.15126052891E+02  0.22155977107E+02 -0.11252368908E+02  0.29091246169E+02  0.00000000000E+00 0. -1.
</event>
<event>
 7    1  0.1692604E-013  0.7246143E+02  0.7816164E-02  0.1226708E+00
        -11   -1    0    0    0    0  0.00000000000E+00  0.00000000000E+00  0.45593999997E+02  0.45594000000E+02  0.51100000000E-03 0. -1.
         11   -1    0    0    0    0 -0.00000000000E+00 -0.00000000000E+00 -0.45593999997E+02  0.45594000000E+02  0.51100000000E-03 0.  1.
    9900012    2    1    2    0    0  0.35868776057E+01 -0.15432140673E+02 -0.99833659511E+01  0.72461434580E+02  0.69999823206E+02 0.  0.
         12    1    1    2    0    0 -0.35868776057E+01  0.15432140673E+02  0.99833659511E+01  0.18726565420E+02  0.00000000000E+00 0. -1.
         11    1    3    3    0    0 -0.24667845829E+01 -0.14868205517E+02 -0.68911044022E+01  0.16572141733E+02  0.51100000000E-03 0. -1.
        -11    1    3    3    0    0  0.70043690387E+01 -0.26820447703E+02 -0.86419413017E+01  0.29035852844E+02  0.51100000000E-03 0.  1.
         12    1    3    3    0    0 -0.95070685008E+00  0.26256512547E+02  0.55496797528E+01  0.26853440003E+02  0.00000000000E+00 0. -1.
</event>
<event>
 7    1  0.1692604E-013  0.7246158E+02  0.7816164E-02  0.1226708E+00
        -11   -1    0    0    0    0  0.00000000000E+00  0.00000000000E+00  0.45593999997E+02  0.45594000000E+02  0.51100000000E-03 0.  1.
         11   -1    0    0    0    0 -0.00000000000E+00 -0.00000000000E+00 -0.45593999997E+02  0.45594000000E+02  0.51100000000E-03 0. -1.
    9900012    2    1    2    0    0 -0.15945420729E+02  0.81567190051E+01  0.54672106471E+01  0.72461577506E+02  0.70000009395E+02 0.  0.
         12    1    1    2    0    0  0.15945420729E+02 -0.81567190051E+01 -0.54672106471E+01  0.18726422494E+02  0.00000000000E+00 0. -1.
         11    1    3    3    0    0  0.91681409179E+01  0.33905359536E+00 -0.12312031331E+02  0.15354344043E+02  0.51100000000E-03 0. -1.
        -11    1    3    3    0    0  0.74759703616E+01 -0.87369268498E+01  0.17027297015E+02  0.20546358985E+02  0.51100000000E-03 0.  1.
        -12    1    3    3    0    0 -0.32589532009E+02  0.16554592260E+02  0.75194496326E+00  0.36560874479E+02  0.00000000000E+00 0.  1.
</event>
<event>
 7    1  0.1692604E-013  0.7246185E+02  0.7816164E-02  0.1226707E+00
        -11   -1    0    0    0    0  0.00000000000E+00  0.00000000000E+00  0.45593999997E+02  0.45594000000E+02  0.51100000000E-03 0. -1.
         11   -1    0    0    0    0 -0.00000000000E+00 -0.00000000000E+00 -0.45593999997E+02  0.45594000000E+02  0.51100000000E-03 0.  1.
    9900012    2    1    2    0    0  0.11034439081E+02 -0.11713588613E+01 -0.15084358203E+02  0.72461847437E+02  0.70000361029E+02 0.  0.
         12    1    1    2    0    0 -0.11034439081E+02  0.11713588613E+01  0.15084358203E+02  0.18726152563E+02  0.00000000000E+00 0. -1.
         11    1    3    3    0    0  0.95219822278E+01 -0.20456691337E+02 -0.20111462770E+02  0.30226069890E+02  0.51100000000E-03 0. -1.
        -11    1    3    3    0    0  0.15240979387E+02 -0.29523057668E+01  0.42273517687E+01  0.16089563861E+02  0.51100000000E-03 0.  1.
        -12    1    3    3    0    0 -0.13728522533E+02  0.22237638243E+02  0.79975279838E+00  0.26146213686E+02  0.00000000000E+00 0.  1.
</event>
<event>
 7    1  0.1692604E-013  0.7246159E+02  0.7816164E-02  0.1226708E+00
        -11   -1    0    0    0    0  0.00000000000E+00  0.00000000000E+00  0.45593999997E+02  0.45594000000E+02  0.51100000000E-03 0.  1.
         11   -1    0    0    0    0 -0.00000000000E+00 -0.00000000000E+00 -0.45593999997E+02  0.45594000000E+02  0.51100000000E-03 0. -1.
    9900012    2    1    2    0    0  0.10798372759E+02  0.12951111251E+02  0.81450730733E+01  0.72461592116E+02  0.70000028427E+02 0.  0.
         12    1    1    2    0    0 -0.10798372759E+02 -0.12951111251E+02 -0.81450730733E+01  0.18726407884E+02  0.00000000000E+00 0. -1.
         11    1    3    3    0    0  0.15041504925E+02  0.14466649273E+02  0.22833064194E+02  0.30933471069E+02  0.51100000000E-03 0. -1.
        -11    1    3    3    0    0  0.10192796672E+02  0.13439394788E+02 -0.15501666184E+01  0.16938519802E+02  0.51100000000E-03 0.  1.
         12    1    3    3    0    0 -0.14435928838E+02 -0.14954932811E+02 -0.13137824502E+02  0.24589601246E+02  0.00000000000E+00 0. -1.
</event>
<event>
 7    1  0.1692604E-013  0.7246153E+02  0.7816164E-02  0.1226708E+00
        -11   -1    0    0    0    0  0.00000000000E+00  0.00000000000E+00  0.45593999997E+02  0.45594000000E+02  0.51100000000E-03 0. -1.
         11   -1    0    0    0    0 -0.00000000000E+00 -0.00000000000E+00 -0.45593999997E+02  0.45594000000E+02  0.51100000000E-03 0.  1.
    9900012    2    1    2    0    0  0.16953213396E+02 -0.77472652548E+01  0.18025214939E+01  0.72461530842E+02  0.69999948606E+02 0.  0.
         12    1    1    2    0    0 -0.16953213396E+02  0.77472652548E+01 -0.18025214939E+01  0.18726469158E+02  0.00000000000E+00 0. -1.
         11    1    3    3    0    0  0.87701514288E+01 -0.74721867522E+01 -0.82864493167E+01  0.14192053181E+02  0.51100000000E-03 0. -1.
        -11    1    3    3    0    0  0.24634456865E+02 -0.83396955709E+01 -0.12770264919E+02  0.28973896072E+02  0.51100000000E-03 0.  1.
         12    1    3    3    0    0 -0.16451394897E+02  0.80646170684E+01  0.22859235729E+02  0.29295581589E+02  0.00000000000E+00 0. -1.
</event>
<event>
 7    1  0.1692604E-013  0.7246158E+02  0.7816164E-02  0.1226708E+00
        -11   -1    0    0    0    0  0.00000000000E+00  0.00000000000E+00  0.45593999997E+02  0.45594000000E+02  0.51100000000E-03 0. -1.
         11   -1    0    0    0    0 -0.00000000000E+00 -0.00000000000E+00 -0.45593999997E+02  0.45594000000E+02  0.51100000000E-03 0.  1.
    9900012    2    1    2    0    0  0.13652248545E+02  0.10326380528E+02 -0.75934589317E+01  0.72461584334E+02  0.70000018290E+02 0.  0.
         12    1    1    2    0    0 -0.13652248545E+02 -0.10326380528E+02  0.75934589317E+01  0.18726415666E+02  0.00000000000E+00 0. -1.
         11    1    3    3    0    0 -0.14149369862E-01 -0.31231928748E+01 -0.46363817779E+01  0.55902209428E+01  0.51100000000E-03 0. -1.
        -11    1    3    3    0    0  0.27245694824E+02 -0.17890881906E+02 -0.28056984717E+01  0.32715187390E+02  0.51100000000E-03 0.  1.
         12    1    3    3    0    0 -0.13579296909E+02  0.31340455309E+02 -0.15137868204E+00  0.34156176001E+02  0.00000000000E+00 0. -1.
</event>
<event>
 7    1  0.1692604E-013  0.7246157E+02  0.7816164E-02  0.1226708E+00
        -11   -1    0    0    0    0  0.00000000000E+00  0.00000000000E+00  0.45593999997E+02  0.45594000000E+02  0.51100000000E-03 0.  1.
         11   -1    0    0    0    0 -0.00000000000E+00 -0.00000000000E+00 -0.45593999997E+02  0.45594000000E+02  0.51100000000E-03 0. -1.
    9900012    2    1    2    0    0  0.36648240508E+00 -0.93998065293E+01  0.16192237692E+02  0.72461568583E+02  0.69999997771E+02 0.  0.
         12    1    1    2    0    0 -0.36648240508E+00  0.93998065293E+01 -0.16192237692E+02  0.18726431417E+02  0.00000000000E+00 0. -1.
         11    1    3    3    0    0 -0.20763498633E+02  0.91847564067E+01  0.89454356323E+01  0.24402939262E+02  0.51100000000E-03 0. -1.
        -11    1    3    3    0    0 -0.68251974072E+01 -0.14229674947E+01 -0.90553915153E+01  0.11428397608E+02  0.51100000000E-03 0.  1.
         12    1    3    3    0    0  0.27955178445E+02 -0.17161595441E+02  0.16302193575E+02  0.36630231713E+02  0.00000000000E+00 0. -1.
</event>
<event>
 7    1  0.1692604E-013  0.7246156E+02  0.7816164E-02  0.1226708E+00
        -11   -1    0    0    0    0  0.00000000000E+00  0.00000000000E+00  0.45593999997E+02  0.45594000000E+02  0.51100000000E-03 0. -1.
         11   -1    0    0    0    0 -0.00000000000E+00 -0.00000000000E+00 -0.45593999997E+02  0.45594000000E+02  0.51100000000E-03 0.  1.
    9900012    2    1    2    0    0 -0.10535473694E+02 -0.15297220566E+02 -0.23829663412E+01  0.72461556355E+02  0.69999981842E+02 0.  0.
         12    1    1    2    0    0  0.10535473694E+02  0.15297220566E+02  0.23829663412E+01  0.18726443645E+02  0.00000000000E+00 0. -1.
         11    1    3    3    0    0  0.38878953600E+00 -0.27496170272E+02  0.16061971434E+02  0.31846153041E+02  0.51100000000E-03 0. -1.
        -11    1    3    3    0    0  0.11040281321E+02  0.90270853623E+00 -0.29681489767E+01  0.11467894443E+02  0.51100000000E-03 0.  1.
        -12    1    3    3    0    0 -0.21964544551E+02  0.11296241170E+02 -0.15476788798E+02  0.29147508871E+02  0.00000000000E+00 0.  1.
</event>
<event>
 7    1  0.1692604E-013  0.7246126E+02  0.7816164E-02  0.1226709E+00
        -11   -1    0    0    0    0  0.00000000000E+00  0.00000000000E+00  0.45593999997E+02  0.45594000000E+02  0.51100000000E-03 0. -1.
         11   -1    0    0    0    0 -0.00000000000E+00 -0.00000000000E+00 -0.45593999997E+02  0.45594000000E+02  0.51100000000E-03 0.  1.
    9900012    2    1    2    0    0  0.15733000253E+02  0.73197489065E+01 -0.70416559069E+01  0.72461256051E+02  0.69999590639E+02 0.  0.
         12    1    1    2    0    0 -0.15733000253E+02 -0.73197489065E+01  0.70416559069E+01  0.18726743949E+02  0.00000000000E+00 0. -1.
         11    1    3    3    0    0  0.79412884824E+01 -0.37912219609E+01  0.11579042838E+02  0.14543440447E+02  0.51100000000E-03 0. -1.
        -11    1    3    3    0    0 -0.16685954830E+02  0.97451597292E+01  0.87162770925E+01  0.21198177123E+02  0.51100000000E-03 0.  1.
        -12    1    3    3    0    0  0.24477666600E+02  0.13658111382E+01 -0.27336975837E+02  0.36719638481E+02  0.00000000000E+00 0.  1.
</event>
<event>
 7    1  0.1692604E-013  0.7246149E+02  0.7816164E-02  0.1226708E+00
        -11   -1    0    0    0    0  0.00000000000E+00  0.00000000000E+00  0.45593999997E+02  0.45594000000E+02  0.51100000000E-03 0.  1.
         11   -1    0    0    0    0 -0.00000000000E+00 -0.00000000000E+00 -0.45593999997E+02  0.45594000000E+02  0.51100000000E-03 0. -1.
    9900012    2    1    2    0    0 -0.44817969357E+01  0.15537846435E+02  0.94430346340E+01  0.72461492618E+02  0.69999898812E+02 0.  0.
         12    1    1    2    0    0  0.44817969357E+01 -0.15537846435E+02 -0.94430346340E+01  0.18726507382E+02  0.00000000000E+00 0. -1.
         11    1    3    3    0    0  0.18664733574E+02  0.13240811661E+02  0.18290632574E+02  0.29295709806E+02  0.51100000000E-03 0. -1.
        -11    1    3    3    0    0  0.59121468194E+01  0.40033888364E+01  0.70200666308E+01  0.10013088332E+02  0.51100000000E-03 0.  1.
        -12    1    3    3    0    0 -0.29058677330E+02 -0.17063540625E+01 -0.15867664570E+02  0.33152694479E+02  0.00000000000E+00 0.  1.
</event>
<event>
 7    1  0.1692604E-013  0.7246147E+02  0.7816164E-02  0.1226708E+00
        -11   -1    0    0    0    0  0.00000000000E+00  0.00000000000E+00  0.45593999997E+02  0.45594000000E+02  0.51100000000E-03 0.  1.
         11   -1    0    0    0    0 -0.00000000000E+00 -0.00000000000E+00 -0.45593999997E+02  0.45594000000E+02  0.51100000000E-03 0. -1.
    9900012    2    1    2    0    0  0.12566728821E+02 -0.60911686082E+01  0.12476292958E+02  0.72461470843E+02  0.69999870447E+02 0.  0.
         12    1    1    2    0    0 -0.12566728821E+02  0.60911686082E+01 -0.12476292958E+02  0.18726529157E+02  0.00000000000E+00 0. -1.
         11    1    3    3    0    0  0.28890630663E+02 -0.21329316016E+02 -0.44039832111E+01  0.36180151053E+02  0.51100000000E-03 0. -1.
        -11    1    3    3    0    0  0.59049866317E+01  0.39873008588E+01  0.48159298799E+01  0.86000358213E+01  0.51100000000E-03 0.  1.
        -12    1    3    3    0    0 -0.22228888473E+02  0.11250846549E+02  0.12064346289E+02  0.27681283969E+02  0.00000000000E+00 0.  1.
</event>
<event>
 7    1  0.1692604E-013  0.7246157E+02  0.7816164E-02  0.1226708E+00
        -11   -1    0    0    0    0  0.00000000000E+00  0.00000000000E+00  0.45593999997E+02  0.45594000000E+02  0.51100000000E-03 0.  1.
         11   -1    0    0    0    0 -0.00000000000E+00 -0.00000000000E+00 -0.45593999997E+02  0.45594000000E+02  0.51100000000E-03 0. -1.
    9900012    2    1    2    0    0  0.13518692077E+02 -0.85180766407E+01  0.97655867711E+01  0.72461565472E+02  0.69999993718E+02 0.  0.
         12    1    1    2    0    0 -0.13518692077E+02  0.85180766407E+01 -0.97655867711E+01  0.18726434528E+02  0.00000000000E+00 0. -1.
         11    1    3    3    0    0  0.95626976768E+01  0.10377254724E+02 -0.28361950909E+01  0.14393630721E+02  0.51100000000E-03 0. -1.
        -11    1    3    3    0    0 -0.19557454609E+02  0.48275401252E+01 -0.43533926226E+01  0.20609493008E+02  0.51100000000E-03 0.  1.
        -12    1    3    3    0    0  0.23513449010E+02 -0.23722871490E+02  0.16955174485E+02  0.37458441744E+02  0.00000000000E+00 0.  1.
</event>
<event>
 7    1  0.1692604E-013  0.7246163E+02  0.7816164E-02  0.1226708E+00
        -11   -1    0    0    0    0  0.00000000000E+00  0.00000000000E+00  0.45593999997E+02  0.45594000000E+02  0.51100000000E-03 0. -1.
         11   -1    0    0    0    0 -0.00000000000E+00 -0.00000000000E+00 -0.45593999997E+02  0.45594000000E+02  0.51100000000E-03 0.  1.
    9900012    2    1    2    0    0 -0.13791871584E+02  0.12604813229E+02  0.12569994118E+01  0.72461625929E+02  0.70000072474E+02 0.  0.
         12    1    1    2    0    0  0.13791871584E+02 -0.12604813229E+02 -0.12569994118E+01  0.18726374071E+02  0.00000000000E+00 0. -1.
         11    1    3    3    0    0 -0.66051433395E+01  0.25390187771E+02  0.16221700831E+02  0.30845309720E+02  0.51100000000E-03 0. -1.
        -11    1    3    3    0    0 -0.39394260261E+01  0.69854280283E+01  0.78711140082E+01  0.11236979939E+02  0.51100000000E-03 0.  1.
        -12    1    3    3    0    0 -0.32473022187E+01 -0.19770802571E+02 -0.22835815428E+02  0.30379336270E+02  0.00000000000E+00 0.  1.
</event>
<event>
 7    1  0.1692604E-013  0.7246157E+02  0.7816164E-02  0.1226708E+00
        -11   -1    0    0    0    0  0.00000000000E+00  0.00000000000E+00  0.45593999997E+02  0.45594000000E+02  0.51100000000E-03 0. -1.
         11   -1    0    0    0    0 -0.00000000000E+00 -0.00000000000E+00 -0.45593999997E+02  0.45594000000E+02  0.51100000000E-03 0.  1.
    9900012    2    1    2    0    0 -0.14162242564E+02 -0.13797038695E+01 -0.12174013933E+02  0.72461566478E+02  0.69999995029E+02 0.  0.
         12    1    1    2    0    0  0.14162242564E+02  0.13797038695E+01  0.12174013933E+02  0.18726433522E+02  0.00000000000E+00 0. -1.
         11    1    3    3    0    0 -0.19129652760E+02  0.28161133793E+02  0.82968559002E+01  0.35040417938E+02  0.51100000000E-03 0. -1.
        -11    1    3    3    0    0  0.36769157479E+01 -0.95409485592E+01 -0.11717436247E+02  0.15551453993E+02  0.51100000000E-03 0.  1.
        -12    1    3    3    0    0  0.12904944476E+01 -0.19999889103E+02 -0.87534335858E+01  0.21869694547E+02  0.00000000000E+00 0.  1.
</event>
<event>
 7    1  0.1692604E-013  0.7246160E+02  0.7816164E-02  0.1226708E+00
        -11   -1    0    0    0    0  0.00000000000E+00  0.00000000000E+00  0.45593999997E+02  0.45594000000E+02  0.51100000000E-03 0.  1.
         11   -1    0    0    0    0 -0.00000000000E+00 -0.00000000000E+00 -0.45593999997E+02  0.45594000000E+02  0.51100000000E-03 0. -1.
    9900012    2    1    2    0    0  0.10771924579E+02  0.83716972131E+01  0.12828033899E+02  0.72461598128E+02  0.70000036258E+02 0.  0.
         12    1    1    2    0    0 -0.10771924579E+02 -0.83716972131E+01 -0.12828033899E+02  0.18726401872E+02  0.00000000000E+00 0. -1.
         11    1    3    3    0    0  0.80855772833E+00  0.24446204656E+02  0.83038207897E+01  0.25830681904E+02  0.51100000000E-03 0. -1.
        -11    1    3    3    0    0  0.46883971884E+01  0.89520067548E+01  0.15738934635E+02  0.18703838024E+02  0.51100000000E-03 0.  1.
         12    1    3    3    0    0  0.52749696626E+01 -0.25026514198E+02 -0.11214721526E+02  0.27927078199E+02  0.00000000000E+00 0. -1.
</event>
<event>
 7    1  0.1692604E-013  0.7246157E+02  0.7816164E-02  0.1226708E+00
        -11   -1    0    0    0    0  0.00000000000E+00  0.00000000000E+00  0.45593999997E+02  0.45594000000E+02  0.51100000000E-03 0.  1.
         11   -1    0    0    0    0 -0.00000000000E+00 -0.00000000000E+00 -0.45593999997E+02  0.45594000000E+02  0.51100000000E-03 0. -1.
    9900012    2    1    2    0    0  0.16564599250E+02 -0.19707489216E+01  0.85093767986E+01  0.72461566994E+02  0.69999995701E+02 0.  0.
         12    1    1    2    0    0 -0.16564599250E+02  0.19707489216E+01 -0.85093767986E+01  0.18726433006E+02  0.00000000000E+00 0. -1.
         11    1    3    3    0    0 -0.44342795842E+01 -0.13351388967E+02 -0.10598459159E+02  0.17613908129E+02  0.51100000000E-03 0. -1.
        -11    1    3    3    0    0 -0.91179227369E+01 -0.72778245053E+01 -0.42456095993E+01  0.12414847792E+02  0.51100000000E-03 0.  1.
        -12    1    3    3    0    0  0.30116801571E+02  0.18658464551E+02  0.23353445556E+02  0.42432811074E+02  0.00000000000E+00 0.  1.
</event>
<event>
 7    1  0.1692604E-013  0.7246147E+02  0.7816164E-02  0.1226708E+00
        -11   -1    0    0    0    0  0.00000000000E+00  0.00000000000E+00  0.45593999997E+02  0.45594000000E+02  0.51100000000E-03 0.  1.
         11   -1    0    0    0    0 -0.00000000000E+00 -0.00000000000E+00 -0.45593999997E+02  0.45594000000E+02  0.51100000000E-03 0. -1.
    9900012    2    1    2    0    0 -0.25572605167E+01 -0.58208176645E+01  0.17614243177E+02  0.72461466356E+02  0.69999864601E+02 0.  0.
         12    1    1    2    0    0  0.25572605167E+01  0.58208176645E+01 -0.17614243177E+02  0.18726533644E+02  0.00000000000E+00 0. -1.
         11    1    3    3    0    0  0.14532341644E+02 -0.98151310707E+01  0.95702824209E+01  0.19977889215E+02  0.51100000000E-03 0. -1.
        -11    1    3    3    0    0 -0.14792427982E+02  0.30339954316E+01  0.28299171430E+02  0.32075912423E+02  0.51100000000E-03 0.  1.
        -12    1    3    3    0    0 -0.22971741793E+01  0.96031797456E+00 -0.20255210674E+02  0.20407664718E+02  0.00000000000E+00 0.  1.
</event>
<event>
 7    1  0.1692604E-013  0.7246153E+02  0.7816164E-02  0.1226708E+00
        -11   -1    0    0    0    0  0.00000000000E+00  0.00000000000E+00  0.45593999997E+02  0.45594000000E+02  0.51100000000E-03 0.  1.
         11   -1    0    0    0    0 -0.00000000000E+00 -0.00000000000E+00 -0.45593999997E+02  0.45594000000E+02  0.51100000000E-03 0. -1.
    9900012    2    1    2    0    0  0.88642010357E+01  0.11786943382E+02  0.11540129590E+02  0.72461529824E+02  0.69999947280E+02 0.  0.
         12    1    1    2    0    0 -0.88642010357E+01 -0.11786943382E+02 -0.11540129590E+02  0.18726470176E+02  0.00000000000E+00 0. -1.
         11    1    3    3    0    0  0.30514605713E+01  0.16810564333E+02  0.86176598632E+01  0.19135583257E+02  0.51100000000E-03 0. -1.
        -11    1    3    3    0    0  0.28434394327E+02 -0.73818603571E+01 -0.37690818321E+01  0.29617775426E+02  0.51100000000E-03 0.  1.
        -12    1    3    3    0    0 -0.22621653863E+02  0.23582394061E+01  0.66915515592E+01  0.23708171141E+02  0.00000000000E+00 0.  1.
</event>
<event>
 7    1  0.1692604E-013  0.7246158E+02  0.7816164E-02  0.1226708E+00
        -11   -1    0    0    0    0  0.00000000000E+00  0.00000000000E+00  0.45593999997E+02  0.45594000000E+02  0.51100000000E-03 0.  1.
         11   -1    0    0    0    0 -0.00000000000E+00 -0.00000000000E+00 -0.45593999997E+02  0.45594000000E+02  0.51100000000E-03 0. -1.
    9900012    2    1    2    0    0  0.71418309917E+01  0.17180180372E+02  0.21246917708E+01  0.72461583828E+02  0.70000017630E+02 0.  0.
         12    1    1    2    0    0 -0.71418309917E+01 -0.17180180372E+02 -0.21246917708E+01  0.18726416172E+02  0.00000000000E+00 0. -1.
         11    1    3    3    0    0  0.19356737941E+01  0.23214498810E+02  0.14240654880E+02  0.27303040851E+02  0.51100000000E-03 0. -1.
        -11    1    3    3    0    0 -0.13942984665E+01 -0.15411185448E+02  0.11249370108E+02  0.19131048931E+02  0.51100000000E-03 0.  1.
         12    1    3    3    0    0  0.66004556641E+01  0.93768670101E+01 -0.23365333218E+02  0.26027494045E+02  0.00000000000E+00 0. -1.
</event>
<event>
 7    1  0.1692604E-013  0.7246139E+02  0.7816164E-02  0.1226708E+00
        -11   -1    0    0    0    0  0.00000000000E+00  0.00000000000E+00  0.45593999997E+02  0.45594000000E+02  0.51100000000E-03 0. -1.
         11   -1    0    0    0    0 -0.00000000000E+00 -0.00000000000E+00 -0.45593999997E+02  0.45594000000E+02  0.51100000000E-03 0.  1.
    9900012    2    1    2    0    0  0.20289667484E+01 -0.83075350173E+01 -0.16659952849E+02  0.72461391309E+02  0.69999766838E+02 0.  0.
         12    1    1    2    0    0 -0.20289667484E+01  0.83075350173E+01  0.16659952849E+02  0.18726608691E+02  0.00000000000E+00 0. -1.
         11    1    3    3    0    0 -0.11536171327E+02 -0.27242750667E+02  0.85714891026E+01  0.30801317155E+02  0.51100000000E-03 0.  1.
        -11    1    3    3    0    0 -0.63788628683E+01  0.44169667240E+01 -0.26000919287E+01  0.81829068694E+01  0.51100000000E-03 0. -1.
         12    1    3    3    0    0  0.19944000944E+02  0.14518248925E+02 -0.22631350023E+02  0.33477167284E+02  0.00000000000E+00 0. -1.
</event>
<event>
 7    1  0.1692604E-013  0.7246158E+02  0.7816164E-02  0.1226708E+00
        -11   -1    0    0    0    0  0.00000000000E+00  0.00000000000E+00  0.45593999997E+02  0.45594000000E+02  0.51100000000E-03 0.  1.
         11   -1    0    0    0    0 -0.00000000000E+00 -0.00000000000E+00 -0.45593999997E+02  0.45594000000E+02  0.51100000000E-03 0. -1.
    9900012    2    1    2    0    0  0.59368400842E+01  0.13631711275E+02  0.11384609812E+02  0.72461575807E+02  0.70000007182E+02 0.  0.
         12    1    1    2    0    0 -0.59368400842E+01 -0.13631711275E+02 -0.11384609812E+02  0.18726424193E+02  0.00000000000E+00 0. -1.
         11    1    3    3    0    0 -0.12333417719E+02  0.37257177275E+01  0.15689184530E+01  0.12979047369E+02  0.51100000000E-03 0. -1.
        -11    1    3    3    0    0 -0.80817411123E+01 -0.13403589476E+02  0.17492850191E+02  0.23472762051E+02  0.51100000000E-03 0.  1.
        -12    1    3    3    0    0  0.26351998916E+02  0.23309583023E+02 -0.76771588322E+01  0.36009766388E+02  0.00000000000E+00 0.  1.
</event>
<event>
 7    1  0.1692604E-013  0.7246166E+02  0.7816164E-02  0.1226708E+00
        -11   -1    0    0    0    0  0.00000000000E+00  0.00000000000E+00  0.45593999997E+02  0.45594000000E+02  0.51100000000E-03 0.  1.
         11   -1    0    0    0    0 -0.00000000000E+00 -0.00000000000E+00 -0.45593999997E+02  0.45594000000E+02  0.51100000000E-03 0. -1.
    9900012    2    1    2    0    0 -0.36859671520E+01 -0.17672731047E+02 -0.49763314388E+01  0.72461664237E+02  0.70000122378E+02 0.  0.
         12    1    1    2    0    0  0.36859671520E+01  0.17672731047E+02  0.49763314388E+01  0.18726335763E+02  0.00000000000E+00 0. -1.
         11    1    3    3    0    0  0.96697026064E+01 -0.12179945852E+02 -0.14037239101E+02  0.20949900031E+02  0.51100000000E-03 0. -1.
        -11    1    3    3    0    0 -0.24026314640E+02  0.60847616151E+00 -0.12200149734E+02  0.26953250124E+02  0.51100000000E-03 0.  1.
        -12    1    3    3    0    0  0.10670644882E+02 -0.61012613564E+01  0.21261057396E+02  0.24558514083E+02  0.00000000000E+00 0.  1.
</event>
<event>
 7    1  0.1692604E-013  0.7246160E+02  0.7816164E-02  0.1226708E+00
        -11   -1    0    0    0    0  0.00000000000E+00  0.00000000000E+00  0.45593999997E+02  0.45594000000E+02  0.51100000000E-03 0.  1.
         11   -1    0    0    0    0 -0.00000000000E+00 -0.00000000000E+00 -0.45593999997E+02  0.45594000000E+02  0.51100000000E-03 0. -1.
    9900012    2    1    2    0    0 -0.12472411720E+02  0.81156133555E-01 -0.13968190165E+02  0.72461602137E+02  0.70000041480E+02 0.  0.
         12    1    1    2    0    0  0.12472411720E+02 -0.81156133555E-01  0.13968190165E+02  0.18726397863E+02  0.00000000000E+00 0. -1.
         11    1    3    3    0    0 -0.14302169298E+01 -0.12782238527E+02 -0.91152091563E+01  0.15764459409E+02  0.51100000000E-03 0. -1.
        -11    1    3    3    0    0 -0.27974801654E+02  0.12943118606E+02 -0.17607253132E+02  0.35498298691E+02  0.51100000000E-03 0.  1.
        -12    1    3    3    0    0  0.16932606864E+02 -0.79723945354E-01  0.12754272123E+02  0.21198844037E+02  0.00000000000E+00 0.  1.
</event>
<event>
 7    1  0.1692604E-013  0.7246150E+02  0.7816164E-02  0.1226708E+00
        -11   -1    0    0    0    0  0.00000000000E+00  0.00000000000E+00  0.45593999997E+02  0.45594000000E+02  0.51100000000E-03 0. -1.
         11   -1    0    0    0    0 -0.00000000000E+00 -0.00000000000E+00 -0.45593999997E+02  0.45594000000E+02  0.51100000000E-03 0.  1.
    9900012    2    1    2    0    0 -0.84323165143E+01 -0.16281170358E+02  0.38080524392E+01  0.72461501838E+02  0.69999910823E+02 0.  0.
         12    1    1    2    0    0  0.84323165143E+01  0.16281170358E+02 -0.38080524392E+01  0.18726498162E+02  0.00000000000E+00 0. -1.
         11    1    3    3    0    0 -0.50105393379E+01  0.28977216400E+01 -0.17394488258E+02  0.18332226193E+02  0.51100000000E-03 0. -1.
        -11    1    3    3    0    0 -0.24804442501E+01  0.72709219104E+01 -0.10386096747E+02  0.12918587965E+02  0.51100000000E-03 0.  1.
         12    1    3    3    0    0 -0.94133292627E+00 -0.26449813909E+02  0.31588637445E+02  0.41210687680E+02  0.00000000000E+00 0. -1.
</event>
<event>
 7    1  0.1692604E-013  0.7246158E+02  0.7816164E-02  0.1226708E+00
        -11   -1    0    0    0    0  0.00000000000E+00  0.00000000000E+00  0.45593999997E+02  0.45594000000E+02  0.51100000000E-03 0.  1.
         11   -1    0    0    0    0 -0.00000000000E+00 -0.00000000000E+00 -0.45593999997E+02  0.45594000000E+02  0.51100000000E-03 0. -1.
    9900012    2    1    2    0    0  0.11463967418E+02  0.28179783739E+01  0.14536682352E+02  0.72461583235E+02  0.70000016857E+02 0.  0.
         12    1    1    2    0    0 -0.11463967418E+02 -0.28179783739E+01 -0.14536682352E+02  0.18726416765E+02  0.00000000000E+00 0. -1.
         11    1    3    3    0    0 -0.77108093121E+01  0.15394856048E+02  0.28694882069E+02  0.33464226126E+02  0.51100000000E-03 0.  1.
        -11    1    3    3    0    0  0.14368202638E+02  0.62638525018E+01 -0.13899949441E+01  0.15735729453E+02  0.51100000000E-03 0. -1.
        -12    1    3    3    0    0  0.48065740919E+01 -0.18840730176E+02 -0.12768204773E+02  0.23261627656E+02  0.00000000000E+00 0.  1.
</event>
<event>
 7    1  0.1692604E-013  0.7246151E+02  0.7816164E-02  0.1226708E+00
        -11   -1    0    0    0    0  0.00000000000E+00  0.00000000000E+00  0.45593999997E+02  0.45594000000E+02  0.51100000000E-03 0. -1.
         11   -1    0    0    0    0 -0.00000000000E+00 -0.00000000000E+00 -0.45593999997E+02  0.45594000000E+02  0.51100000000E-03 0.  1.
    9900012    2    1    2    0    0  0.69560724485E+01 -0.88069030879E+00 -0.17364304030E+02  0.72461505033E+02  0.69999914984E+02 0.  0.
         12    1    1    2    0    0 -0.69560724485E+01  0.88069030879E+00  0.17364304030E+02  0.18726494967E+02  0.00000000000E+00 0. -1.
         11    1    3    3    0    0 -0.99370628199E+01  0.30294081209E+02 -0.12874408980E+02  0.34383527751E+02  0.51100000000E-03 0. -1.
        -11    1    3    3    0    0 -0.21249391040E+01 -0.51323402435E+01 -0.34910755932E+00  0.55658026304E+01  0.51100000000E-03 0.  1.
        -12    1    3    3    0    0  0.19018074372E+02 -0.26042431274E+02 -0.41407874900E+01  0.32512174651E+02  0.00000000000E+00 0.  1.
</event>
<event>
 7    1  0.1692604E-013  0.7246165E+02  0.7816164E-02  0.1226708E+00
        -11   -1    0    0    0    0  0.00000000000E+00  0.00000000000E+00  0.45593999997E+02  0.45594000000E+02  0.51100000000E-03 0.  1.
         11   -1    0    0    0    0 -0.00000000000E+00 -0.00000000000E+00 -0.45593999997E+02  0.45594000000E+02  0.51100000000E-03 0. -1.
    9900012    2    1    2    0    0  0.14141554861E+02 -0.78836889394E+01  0.94095653634E+01  0.72461653707E+02  0.70000108660E+02 0.  0.
         12    1    1    2    0    0 -0.14141554861E+02  0.78836889394E+01 -0.94095653634E+01  0.18726346293E+02  0.00000000000E+00 0. -1.
         11    1    3    3    0    0 -0.55315994043E+01 -0.17762692525E+02  0.14888177481E+02  0.23827917799E+02  0.51100000000E-03 0. -1.
        -11    1    3    3    0    0 -0.11374969327E+02 -0.58371121179E+01 -0.52837772612E+01  0.13834019932E+02  0.51100000000E-03 0.  1.
        -12    1    3    3    0    0  0.31048123592E+02  0.15716115703E+02 -0.19483485616E+00  0.34799715976E+02  0.00000000000E+00 0.  1.
</event>
<event>
 7    1  0.1692604E-013  0.7246159E+02  0.7816164E-02  0.1226708E+00
        -11   -1    0    0    0    0  0.00000000000E+00  0.00000000000E+00  0.45593999997E+02  0.45594000000E+02  0.51100000000E-03 0. -1.
         11   -1    0    0    0    0 -0.00000000000E+00 -0.00000000000E+00 -0.45593999997E+02  0.45594000000E+02  0.51100000000E-03 0.  1.
    9900012    2    1    2    0    0  0.24802210658E+01  0.39362348772E+01 -0.18139269404E+02  0.72461587209E+02  0.70000022034E+02 0.  0.
         12    1    1    2    0    0 -0.24802210658E+01 -0.39362348772E+01  0.18139269404E+02  0.18726412791E+02  0.00000000000E+00 0. -1.
         11    1    3    3    0    0 -0.22239398977E+02  0.82869185879E+01  0.12941597806E+02  0.27032366537E+02  0.51100000000E-03 0. -1.
        -11    1    3    3    0    0 -0.40012879762E+01 -0.14575975379E+01 -0.43400643681E+01  0.60803828031E+01  0.51100000000E-03 0.  1.
        -12    1    3    3    0    0  0.28720908019E+02 -0.28930861729E+01 -0.26740802841E+02  0.39348837869E+02  0.00000000000E+00 0.  1.
</event>
<event>
 7    1  0.1692604E-013  0.7246147E+02  0.7816164E-02  0.1226708E+00
        -11   -1    0    0    0    0  0.00000000000E+00  0.00000000000E+00  0.45593999997E+02  0.45594000000E+02  0.51100000000E-03 0. -1.
         11   -1    0    0    0    0 -0.00000000000E+00 -0.00000000000E+00 -0.45593999997E+02  0.45594000000E+02  0.51100000000E-03 0.  1.
    9900012    2    1    2    0    0 -0.99313750712E+01  0.58012946561E+01  0.14778215470E+02  0.72461471144E+02  0.69999870839E+02 0.  0.
         12    1    1    2    0    0  0.99313750712E+01 -0.58012946561E+01 -0.14778215470E+02  0.18726528856E+02  0.00000000000E+00 0. -1.
         11    1    3    3    0    0  0.15321445719E+02 -0.63031680337E+01  0.69348636765E+01  0.17960204917E+02  0.51100000000E-03 0. -1.
        -11    1    3    3    0    0 -0.96429135903E+01  0.60339523596E+01 -0.19418825970E+02  0.22505225302E+02  0.51100000000E-03 0.  1.
         12    1    3    3    0    0 -0.15609907200E+02  0.60705103301E+01  0.27262177764E+02  0.31996040925E+02  0.00000000000E+00 0. -1.
</event>
<event>
 7    1  0.1692604E-013  0.7246154E+02  0.7816164E-02  0.1226708E+00
        -11   -1    0    0    0    0  0.00000000000E+00  0.00000000000E+00  0.45593999997E+02  0.45594000000E+02  0.51100000000E-03 0.  1.
         11   -1    0    0    0    0 -0.00000000000E+00 -0.00000000000E+00 -0.45593999997E+02  0.45594000000E+02  0.51100000000E-03 0. -1.
    9900012    2    1    2    0    0  0.12934408524E+02  0.13163082096E+02  0.31803394692E+01  0.72461542426E+02  0.69999963696E+02 0.  0.
         12    1    1    2    0    0 -0.12934408524E+02 -0.13163082096E+02 -0.31803394692E+01  0.18726457574E+02  0.00000000000E+00 0. -1.
         11    1    3    3    0    0  0.66808091328E+01  0.40812555645E+01 -0.12342239905E+01  0.79254758073E+01  0.51100000000E-03 0. -1.
        -11    1    3    3    0    0  0.30135103062E+01 -0.13139065220E+02  0.28548288676E+02  0.31570889532E+02  0.51100000000E-03 0.  1.
         12    1    3    3    0    0  0.32400890853E+01  0.22220891751E+02 -0.24133725217E+02  0.32965177087E+02  0.00000000000E+00 0. -1.
</event>
<event>
 7    1  0.1692604E-013  0.7246158E+02  0.7816164E-02  0.1226708E+00
        -11   -1    0    0    0    0  0.00000000000E+00  0.00000000000E+00  0.45593999997E+02  0.45594000000E+02  0.51100000000E-03 0.  1.
         11   -1    0    0    0    0 -0.00000000000E+00 -0.00000000000E+00 -0.45593999997E+02  0.45594000000E+02  0.51100000000E-03 0. -1.
    9900012    2    1    2    0    0  0.57207162368E+01  0.12433415211E+02  0.12781331931E+02  0.72461578719E+02  0.70000010974E+02 0.  0.
         12    1    1    2    0    0 -0.57207162368E+01 -0.12433415211E+02 -0.12781331931E+02  0.18726421281E+02  0.00000000000E+00 0. -1.
         11    1    3    3    0    0  0.22213225593E+00 -0.55101966790E+01 -0.92770181344E+01  0.10792343393E+02  0.51100000000E-03 0. -1.
        -11    1    3    3    0    0  0.25500641442E+02  0.34293164539E+01  0.26073895438E+02  0.36631829723E+02  0.51100000000E-03 0.  1.
         12    1    3    3    0    0 -0.20002057461E+02  0.14514295437E+02 -0.40155453733E+01  0.25037405603E+02  0.00000000000E+00 0. -1.
</event>
<event>
 7    1  0.1692604E-013  0.7246158E+02  0.7816164E-02  0.1226708E+00
        -11   -1    0    0    0    0  0.00000000000E+00  0.00000000000E+00  0.45593999997E+02  0.45594000000E+02  0.51100000000E-03 0.  1.
         11   -1    0    0    0    0 -0.00000000000E+00 -0.00000000000E+00 -0.45593999997E+02  0.45594000000E+02  0.51100000000E-03 0. -1.
    9900012    2    1    2    0    0 -0.47042970430E+01 -0.14178997773E+02  0.11291789216E+02  0.72461577698E+02  0.70000009645E+02 0.  0.
         12    1    1    2    0    0  0.47042970430E+01  0.14178997773E+02 -0.11291789216E+02  0.18726422302E+02  0.00000000000E+00 0. -1.
         11    1    3    3    0    0 -0.31303911812E+01  0.78315563801E+01  0.39128502533E+00  0.84430876173E+01  0.51100000000E-03 0. -1.
        -11    1    3    3    0    0  0.45602609417E+01  0.65964612531E+01  0.28681680940E+02  0.29781673941E+02  0.51100000000E-03 0.  1.
         12    1    3    3    0    0 -0.61341668035E+01 -0.28607015406E+02 -0.17781176749E+02  0.34236816140E+02  0.00000000000E+00 0. -1.
</event>
<event>
 7    1  0.1692604E-013  0.7246158E+02  0.7816164E-02  0.1226708E+00
        -11   -1    0    0    0    0  0.00000000000E+00  0.00000000000E+00  0.45593999997E+02  0.45594000000E+02  0.51100000000E-03 0.  1.
         11   -1    0    0    0    0 -0.00000000000E+00 -0.00000000000E+00 -0.45593999997E+02  0.45594000000E+02  0.51100000000E-03 0. -1.
    9900012    2    1    2    0    0 -0.85857261318E+01 -0.12616918481E+02 -0.10852541441E+02  0.72461575330E+02  0.70000006561E+02 0.  0.
         12    1    1    2    0    0  0.85857261318E+01  0.12616918481E+02  0.10852541441E+02  0.18726424670E+02  0.00000000000E+00 0. -1.
         11    1    3    3    0    0  0.65543057026E+01  0.71212573429E+01 -0.94512465831E+01  0.13527649154E+02  0.51100000000E-03 0. -1.
        -11    1    3    3    0    0  0.21741934105E+01  0.14518051525E+02  0.11276604987E+02  0.18511152243E+02  0.51100000000E-03 0.  1.
        -12    1    3    3    0    0 -0.17314225245E+02 -0.34256227349E+02 -0.12677899845E+02  0.40422773934E+02  0.00000000000E+00 0.  1.
</event>
<event>
 7    1  0.1692604E-013  0.7246155E+02  0.7816164E-02  0.1226708E+00
        -11   -1    0    0    0    0  0.00000000000E+00  0.00000000000E+00  0.45593999997E+02  0.45594000000E+02  0.51100000000E-03 0. -1.
         11   -1    0    0    0    0 -0.00000000000E+00 -0.00000000000E+00 -0.45593999997E+02  0.45594000000E+02  0.51100000000E-03 0.  1.
    9900012    2    1    2    0    0 -0.17152859104E+02  0.53316120007E+01  0.52946348983E+01  0.72461552908E+02  0.69999977352E+02 0.  0.
         12    1    1    2    0    0  0.17152859104E+02 -0.53316120007E+01 -0.52946348983E+01  0.18726447092E+02  0.00000000000E+00 0. -1.
         11    1    3    3    0    0 -0.24908650623E+02  0.22569117292E+01  0.12560613439E+02  0.27987560391E+02  0.51100000000E-03 0. -1.
        -11    1    3    3    0    0 -0.14934250426E+02  0.10955934933E+02 -0.85915590624E+01  0.20417620660E+02  0.51100000000E-03 0.  1.
         12    1    3    3    0    0  0.22690041945E+02 -0.78812346616E+01  0.13255805221E+01  0.24056371858E+02  0.00000000000E+00 0. -1.
</event>
<event>
 7    1  0.1692604E-013  0.7246159E+02  0.7816164E-02  0.1226708E+00
        -11   -1    0    0    0    0  0.00000000000E+00  0.00000000000E+00  0.45593999997E+02  0.45594000000E+02  0.51100000000E-03 0. -1.
         11   -1    0    0    0    0 -0.00000000000E+00 -0.00000000000E+00 -0.45593999997E+02  0.45594000000E+02  0.51100000000E-03 0.  1.
    9900012    2    1    2    0    0  0.12784322577E+02 -0.13636477176E+02  0.11339610325E+01  0.72461594014E+02  0.70000030899E+02 0.  0.
         12    1    1    2    0    0 -0.12784322577E+02  0.13636477176E+02 -0.11339610325E+01  0.18726405986E+02  0.00000000000E+00 0. -1.
         11    1    3    3    0    0 -0.60920378791E+00  0.98400196727E+01  0.16258048916E+02  0.19013712716E+02  0.51100000000E-03 0. -1.
        -11    1    3    3    0    0  0.10659985277E+02 -0.11578837246E+02  0.14504493509E+02  0.21402922471E+02  0.51100000000E-03 0.  1.
        -12    1    3    3    0    0  0.27335410874E+01 -0.11897659603E+02 -0.29628581393E+02  0.32044958828E+02  0.00000000000E+00 0.  1.
</event>
<event>
 7    1  0.1692604E-013  0.7246156E+02  0.7816164E-02  0.1226708E+00
        -11   -1    0    0    0    0  0.00000000000E+00  0.00000000000E+00  0.45593999997E+02  0.45594000000E+02  0.51100000000E-03 0.  1.
         11   -1    0    0    0    0 -0.00000000000E+00 -0.00000000000E+00 -0.45593999997E+02  0.45594000000E+02  0.51100000000E-03 0. -1.
    9900012    2    1    2    0    0 -0.47645205130E+01 -0.12691603124E+02  0.12919059275E+02  0.72461560452E+02  0.69999987179E+02 0.  0.
         12    1    1    2    0    0  0.47645205130E+01  0.12691603124E+02 -0.12919059275E+02  0.18726439548E+02  0.00000000000E+00 0. -1.
         11    1    3    3    0    0  0.21952266899E+02  0.50875403264E+01  0.94052152495E+01  0.24418090890E+02  0.51100000000E-03 0. -1.
        -11    1    3    3    0    0  0.71764332078E+01 -0.72184780662E+01  0.70283501671E+01  0.12369532146E+02  0.51100000000E-03 0.  1.
         12    1    3    3    0    0 -0.33893220620E+02 -0.10560665385E+02 -0.35145061419E+01  0.35673937416E+02  0.00000000000E+00 0. -1.
</event>
<event>
 7    1  0.1692604E-013  0.7246157E+02  0.7816164E-02  0.1226708E+00
        -11   -1    0    0    0    0  0.00000000000E+00  0.00000000000E+00  0.45593999997E+02  0.45594000000E+02  0.51100000000E-03 0.  1.
         11   -1    0    0    0    0 -0.00000000000E+00 -0.00000000000E+00 -0.45593999997E+02  0.45594000000E+02  0.51100000000E-03 0. -1.
    9900012    2    1    2    0    0 -0.41556170959E+01 -0.13297666441E+02  0.12513278241E+02  0.72461568985E+02  0.69999998294E+02 0.  0.
         12    1    1    2    0    0  0.41556170959E+01  0.13297666441E+02 -0.12513278241E+02  0.18726431015E+02  0.00000000000E+00 0. -1.
         11    1    3    3    0    0 -0.12466883377E+02 -0.13523024277E+02 -0.12143420798E+01  0.18432850937E+02  0.51100000000E-03 0. -1.
        -11    1    3    3    0    0  0.11068414644E+02 -0.21087183351E+02  0.20576764257E+02  0.31473517947E+02  0.51100000000E-03 0.  1.
        -12    1    3    3    0    0 -0.27571483634E+01  0.21312541187E+02 -0.68491439359E+01  0.22555200101E+02  0.00000000000E+00 0.  1.
</event>
<event>
 7    1  0.1692604E-013  0.7246158E+02  0.7816164E-02  0.1226708E+00
        -11   -1    0    0    0    0  0.00000000000E+00  0.00000000000E+00  0.45593999997E+02  0.45594000000E+02  0.51100000000E-03 0. -1.
         11   -1    0    0    0    0 -0.00000000000E+00 -0.00000000000E+00 -0.45593999997E+02  0.45594000000E+02  0.51100000000E-03 0.  1.
    9900012    2    1    2    0    0  0.92296757034E+01 -0.72786440104E+01 -0.14577829023E+02  0.72461583598E+02  0.70000017331E+02 0.  0.
         12    1    1    2    0    0 -0.92296757034E+01  0.72786440104E+01  0.14577829023E+02  0.18726416402E+02  0.00000000000E+00 0. -1.
         11    1    3    3    0    0  0.17431014292E+02  0.50247002287E+01 -0.31774203616E+02  0.36588083953E+02  0.51100000000E-03 0. -1.
        -11    1    3    3    0    0  0.46186903583E+01 -0.11326721283E+02 -0.23711790132E+01  0.12459911951E+02  0.51100000000E-03 0.  1.
         12    1    3    3    0    0 -0.12820028947E+02 -0.97662295567E+00  0.19567553606E+02  0.23413587694E+02  0.00000000000E+00 0. -1.
</event>
<event>
 7    1  0.1692604E-013  0.7246158E+02  0.7816164E-02  0.1226708E+00
        -11   -1    0    0    0    0  0.00000000000E+00  0.00000000000E+00  0.45593999997E+02  0.45594000000E+02  0.51100000000E-03 0. -1.
         11   -1    0    0    0    0 -0.00000000000E+00 -0.00000000000E+00 -0.45593999997E+02  0.45594000000E+02  0.51100000000E-03 0.  1.
    9900012    2    1    2    0    0 -0.12082893310E+02  0.67421989930E+01 -0.12618441862E+02  0.72461584619E+02  0.70000018660E+02 0.  0.
         12    1    1    2    0    0  0.12082893310E+02 -0.67421989930E+01  0.12618441862E+02  0.18726415381E+02  0.00000000000E+00 0. -1.
         11    1    3    3    0    0  0.59912602739E+01  0.20585043323E+02  0.83211472682E+01  0.22997406384E+02  0.51100000000E-03 0. -1.
        -11    1    3    3    0    0 -0.12795752686E+01  0.10636075629E+02  0.32234095526E+01  0.11187215340E+02  0.51100000000E-03 0.  1.
        -12    1    3    3    0    0 -0.16794578315E+02 -0.24478919959E+02 -0.24162998683E+02  0.38276962895E+02  0.00000000000E+00 0.  1.
</event>
<event>
 7    1  0.1692604E-013  0.7246161E+02  0.7816164E-02  0.1226708E+00
        -11   -1    0    0    0    0  0.00000000000E+00  0.00000000000E+00  0.45593999997E+02  0.45594000000E+02  0.51100000000E-03 0. -1.
         11   -1    0    0    0    0 -0.00000000000E+00 -0.00000000000E+00 -0.45593999997E+02  0.45594000000E+02  0.51100000000E-03 0.  1.
    9900012    2    1    2    0    0 -0.53222295873E+01  0.26303822479E+01 -0.17760423197E+02  0.72461610314E+02  0.70000052133E+02 0.  0.
         12    1    1    2    0    0  0.53222295873E+01 -0.26303822479E+01  0.17760423197E+02  0.18726389686E+02  0.00000000000E+00 0. -1.
         11    1    3    3    0    0  0.11905233987E+02  0.19026051769E+01  0.13688621645E+02  0.18240966683E+02  0.51100000000E-03 0. -1.
        -11    1    3    3    0    0 -0.14015306395E+02 -0.12820010327E+02  0.88642184898E+00  0.19014921038E+02  0.51100000000E-03 0.  1.
         12    1    3    3    0    0 -0.32121571801E+01  0.13547787399E+02 -0.32335466690E+02  0.35205722592E+02  0.00000000000E+00 0. -1.
</event>
<event>
 7    1  0.1692604E-013  0.7246155E+02  0.7816164E-02  0.1226708E+00
        -11   -1    0    0    0    0  0.00000000000E+00  0.00000000000E+00  0.45593999997E+02  0.45594000000E+02  0.51100000000E-03 0.  1.
         11   -1    0    0    0    0 -0.00000000000E+00 -0.00000000000E+00 -0.45593999997E+02  0.45594000000E+02  0.51100000000E-03 0. -1.
    9900012    2    1    2    0    0 -0.66613894654E+01 -0.10966126630E+02  0.13640005818E+02  0.72461553419E+02  0.69999978016E+02 0.  0.
         12    1    1    2    0    0  0.66613894654E+01  0.10966126630E+02 -0.13640005818E+02  0.18726446581E+02  0.00000000000E+00 0. -1.
         11    1    3    3    0    0  0.98555809675E+01  0.87153714040E+01 -0.16828139529E+02  0.21360628624E+02  0.51100000000E-03 0. -1.
        -11    1    3    3    0    0  0.93119003624E+01 -0.92759129825E+01  0.87992359956E+01  0.15817098482E+02  0.51100000000E-03 0.  1.
        -12    1    3    3    0    0 -0.25828870795E+02 -0.10405585051E+02  0.21668909351E+02  0.35283826313E+02  0.00000000000E+00 0.  1.
</event>
<event>
 7    1  0.1692604E-013  0.7246136E+02  0.7816164E-02  0.1226709E+00
        -11   -1    0    0    0    0  0.00000000000E+00  0.00000000000E+00  0.45593999997E+02  0.45594000000E+02  0.51100000000E-03 0.  1.
         11   -1    0    0    0    0 -0.00000000000E+00 -0.00000000000E+00 -0.45593999997E+02  0.45594000000E+02  0.51100000000E-03 0. -1.
    9900012    2    1    2    0    0  0.16204201696E+02 -0.28211194344E+01  0.89527757859E+01  0.72461359571E+02  0.69999725494E+02 0.  0.
         12    1    1    2    0    0 -0.16204201696E+02  0.28211194344E+01 -0.89527757859E+01  0.18726640429E+02  0.00000000000E+00 0. -1.
         11    1    3    3    0    0 -0.62740530468E+01  0.15226940660E+00 -0.21571890740E+02  0.22466272454E+02  0.51100000000E-03 0. -1.
        -11    1    3    3    0    0  0.17100977639E+01 -0.14719827866E+02  0.66530230295E+01  0.16243782887E+02  0.51100000000E-03 0.  1.
        -12    1    3    3    0    0  0.20768156979E+02  0.11746439025E+02  0.23871643496E+02  0.33751304231E+02  0.00000000000E+00 0.  1.
</event>
<event>
 7    1  0.1692604E-013  0.7246158E+02  0.7816164E-02  0.1226708E+00
        -11   -1    0    0    0    0  0.00000000000E+00  0.00000000000E+00  0.45593999997E+02  0.45594000000E+02  0.51100000000E-03 0. -1.
         11   -1    0    0    0    0 -0.00000000000E+00 -0.00000000000E+00 -0.45593999997E+02  0.45594000000E+02  0.51100000000E-03 0.  1.
    9900012    2    1    2    0    0  0.27128589506E+00 -0.14515623762E+02 -0.11828005357E+02  0.72461584434E+02  0.70000018419E+02 0.  0.
         12    1    1    2    0    0 -0.27128589506E+00  0.14515623762E+02  0.11828005357E+02  0.18726415566E+02  0.00000000000E+00 0. -1.
         11    1    3    3    0    0  0.95119079752E+01  0.93134772083E+01  0.39384077091E+01  0.13882662086E+02  0.51100000000E-03 0. -1.
        -11    1    3    3    0    0  0.17711971741E+02  0.31457414299E+01 -0.78806732022E+01  0.19639619204E+02  0.51100000000E-03 0.  1.
         12    1    3    3    0    0 -0.26952593821E+02 -0.26974842400E+02 -0.78857398636E+01  0.38939303145E+02  0.00000000000E+00 0. -1.
</event>
<event>
 7    1  0.1692604E-013  0.7246164E+02  0.7816164E-02  0.1226708E+00
        -11   -1    0    0    0    0  0.00000000000E+00  0.00000000000E+00  0.45593999997E+02  0.45594000000E+02  0.51100000000E-03 0.  1.
         11   -1    0    0    0    0 -0.00000000000E+00 -0.00000000000E+00 -0.45593999997E+02  0.45594000000E+02  0.51100000000E-03 0. -1.
    9900012    2    1    2    0    0  0.94486202039E+01 -0.15084220717E+02  0.58194805344E+01  0.72461641783E+02  0.70000093127E+02 0.  0.
         12    1    1    2    0    0 -0.94486202039E+01  0.15084220717E+02 -0.58194805344E+01  0.18726358217E+02  0.00000000000E+00 0. -1.
         11    1    3    3    0    0 -0.14145057436E+02 -0.59903380775E+01  0.26756885255E+01  0.15592501708E+02  0.51100000000E-03 0. -1.
        -11    1    3    3    0    0 -0.96556872689E+01 -0.33598398259E+01  0.17447554325E+02  0.20222214826E+02  0.51100000000E-03 0.  1.
         12    1    3    3    0    0  0.33249364909E+02 -0.57340428135E+01 -0.14303762316E+02  0.36646925249E+02  0.00000000000E+00 0. -1.
</event>
<event>
 7    1  0.1692604E-013  0.7246155E+02  0.7816164E-02  0.1226708E+00
        -11   -1    0    0    0    0  0.00000000000E+00  0.00000000000E+00  0.45593999997E+02  0.45594000000E+02  0.51100000000E-03 0.  1.
         11   -1    0    0    0    0 -0.00000000000E+00 -0.00000000000E+00 -0.45593999997E+02  0.45594000000E+02  0.51100000000E-03 0. -1.
    9900012    2    1    2    0    0  0.68569813502E+01  0.89811899404E+01  0.14933184892E+02  0.72461548735E+02  0.69999971915E+02 0.  0.
         12    1    1    2    0    0 -0.68569813502E+01 -0.89811899404E+01 -0.14933184892E+02  0.18726451265E+02  0.00000000000E+00 0. -1.
         11    1    3    3    0    0  0.38482702529E+01 -0.48876545777E+01 -0.18617203202E+02  0.19629024594E+02  0.51100000000E-03 0. -1.
        -11    1    3    3    0    0  0.30133456055E+01 -0.97149448760E+01 -0.18076494906E+01  0.10330924577E+02  0.51100000000E-03 0.  1.
        -12    1    3    3    0    0 -0.46345081988E-02  0.23583789394E+02  0.35358037584E+02  0.42501599563E+02  0.00000000000E+00 0.  1.
</event>
<event>
 7    1  0.1692604E-013  0.7246194E+02  0.7816164E-02  0.1226707E+00
        -11   -1    0    0    0    0  0.00000000000E+00  0.00000000000E+00  0.45593999997E+02  0.45594000000E+02  0.51100000000E-03 0. -1.
         11   -1    0    0    0    0 -0.00000000000E+00 -0.00000000000E+00 -0.45593999997E+02  0.45594000000E+02  0.51100000000E-03 0.  1.
    9900012    2    1    2    0    0  0.53397342553E+01  0.45007452865E+01 -0.17375147410E+02  0.72461942818E+02  0.70000485280E+02 0.  0.
         12    1    1    2    0    0 -0.53397342553E+01 -0.45007452865E+01  0.17375147410E+02  0.18726057182E+02  0.00000000000E+00 0. -1.
         11    1    3    3    0    0  0.17381783996E+02  0.87089474130E+00 -0.22749183138E+02  0.28642803743E+02  0.51100000000E-03 0. -1.
        -11    1    3    3    0    0 -0.18554304975E+02 -0.12779088624E+02 -0.53598983364E+01  0.23158062303E+02  0.51100000000E-03 0.  1.
         12    1    3    3    0    0  0.65122552341E+01  0.16408939169E+02  0.10733934064E+02  0.20661076772E+02  0.00000000000E+00 0. -1.
</event>
<event>
 7    1  0.1692604E-013  0.7246156E+02  0.7816164E-02  0.1226708E+00
        -11   -1    0    0    0    0  0.00000000000E+00  0.00000000000E+00  0.45593999997E+02  0.45594000000E+02  0.51100000000E-03 0. -1.
         11   -1    0    0    0    0 -0.00000000000E+00 -0.00000000000E+00 -0.45593999997E+02  0.45594000000E+02  0.51100000000E-03 0.  1.
    9900012    2    1    2    0    0  0.45101379098E+00 -0.17434897349E+02 -0.68191187157E+01  0.72461563097E+02  0.69999990625E+02 0.  0.
         12    1    1    2    0    0 -0.45101379098E+00  0.17434897349E+02  0.68191187157E+01  0.18726436903E+02  0.00000000000E+00 0. -1.
         11    1    3    3    0    0 -0.73148495581E+01 -0.11842648511E+02 -0.31442401806E+02  0.34385752564E+02  0.51100000000E-03 0. -1.
        -11    1    3    3    0    0 -0.17181413496E+01 -0.17569912941E+01 -0.56282393081E+01  0.61413439958E+01  0.51100000000E-03 0.  1.
        -12    1    3    3    0    0  0.94840046986E+01 -0.38352575443E+01  0.30251522399E+02  0.31934466537E+02  0.00000000000E+00 0.  1.
</event>
<event>
 7    1  0.1692604E-013  0.7246135E+02  0.7816164E-02  0.1226709E+00
        -11   -1    0    0    0    0  0.00000000000E+00  0.00000000000E+00  0.45593999997E+02  0.45594000000E+02  0.51100000000E-03 0.  1.
         11   -1    0    0    0    0 -0.00000000000E+00 -0.00000000000E+00 -0.45593999997E+02  0.45594000000E+02  0.51100000000E-03 0. -1.
    9900012    2    1    2    0    0  0.13575642145E+02  0.11521553715E+01  0.12847640117E+02  0.72461351121E+02  0.69999714486E+02 0.  0.
         12    1    1    2    0    0 -0.13575642145E+02 -0.11521553715E+01 -0.12847640117E+02  0.18726648879E+02  0.00000000000E+00 0. -1.
         11    1    3    3    0    0 -0.16292895350E+00  0.52322669076E+00  0.59582546281E+01  0.59834029188E+01  0.51100000000E-03 0. -1.
        -11    1    3    3    0    0 -0.16422139857E+02  0.48841131060E+00  0.26011772864E+02  0.30765850401E+02  0.51100000000E-03 0.  1.
         12    1    3    3    0    0  0.30160710955E+02  0.14051737018E+00 -0.19122387375E+02  0.35712097801E+02  0.00000000000E+00 0. -1.
</event>
<event>
 7    1  0.1692604E-013  0.7246157E+02  0.7816164E-02  0.1226708E+00
        -11   -1    0    0    0    0  0.00000000000E+00  0.00000000000E+00  0.45593999997E+02  0.45594000000E+02  0.51100000000E-03 0. -1.
         11   -1    0    0    0    0 -0.00000000000E+00 -0.00000000000E+00 -0.45593999997E+02  0.45594000000E+02  0.51100000000E-03 0.  1.
    9900012    2    1    2    0    0 -0.17468000700E+02  0.26027868991E+00  0.67439192645E+01  0.72461568399E+02  0.69999997531E+02 0.  0.
         12    1    1    2    0    0  0.17468000700E+02 -0.26027868991E+00 -0.67439192645E+01  0.18726431601E+02  0.00000000000E+00 0. -1.
         11    1    3    3    0    0 -0.18763675820E+00  0.12229110124E+01 -0.16164490757E+01  0.20355900306E+01  0.51100000000E-03 0. -1.
        -11    1    3    3    0    0 -0.24762252583E+02 -0.35072849543E+01 -0.25463487391E+02  0.35691166850E+02  0.51100000000E-03 0.  1.
         12    1    3    3    0    0  0.74818886406E+01  0.25446526318E+01  0.33823855732E+02  0.34734811518E+02  0.00000000000E+00 0. -1.
</event>
<event>
 7    1  0.1692604E-013  0.7246157E+02  0.7816164E-02  0.1226708E+00
        -11   -1    0    0    0    0  0.00000000000E+00  0.00000000000E+00  0.45593999997E+02  0.45594000000E+02  0.51100000000E-03 0. -1.
         11   -1    0    0    0    0 -0.00000000000E+00 -0.00000000000E+00 -0.45593999997E+02  0.45594000000E+02  0.51100000000E-03 0.  1.
    9900012    2    1    2    0    0 -0.15402033733E+02 -0.27007923013E+01  0.10303509500E+02  0.72461568675E+02  0.69999997891E+02 0.  0.
         12    1    1    2    0    0  0.15402033733E+02  0.27007923013E+01 -0.10303509500E+02  0.18726431325E+02  0.00000000000E+00 0. -1.
         11    1    3    3    0    0 -0.24276083090E+02 -0.76419815413E+01 -0.22056030258E+02  0.33677834893E+02  0.51100000000E-03 0. -1.
        -11    1    3    3    0    0  0.22338166167E+01  0.63575495516E+01  0.11398762442E+01  0.68343025315E+01  0.51100000000E-03 0.  1.
         12    1    3    3    0    0  0.66402327406E+01 -0.14163603116E+01  0.31219663513E+02  0.31949431251E+02  0.00000000000E+00 0. -1.
</event>
<event>
 7    1  0.1692604E-013  0.7246164E+02  0.7816164E-02  0.1226708E+00
        -11   -1    0    0    0    0  0.00000000000E+00  0.00000000000E+00  0.45593999997E+02  0.45594000000E+02  0.51100000000E-03 0.  1.
         11   -1    0    0    0    0 -0.00000000000E+00 -0.00000000000E+00 -0.45593999997E+02  0.45594000000E+02  0.51100000000E-03 0. -1.
    9900012    2    1    2    0    0  0.12607359646E+02 -0.68594151697E+01  0.12028273211E+02  0.72461642902E+02  0.70000094585E+02 0.  0.
         12    1    1    2    0    0 -0.12607359646E+02  0.68594151697E+01 -0.12028273211E+02  0.18726357098E+02  0.00000000000E+00 0. -1.
         11    1    3    3    0    0  0.13006204083E+02 -0.11929125678E+02  0.51372556751E+01  0.18380880834E+02  0.51100000000E-03 0. -1.
        -11    1    3    3    0    0  0.22522953752E+02 -0.11068527433E+02  0.69771751842E+01  0.26047585667E+02  0.51100000000E-03 0.  1.
         12    1    3    3    0    0 -0.22921798189E+02  0.16138237941E+02 -0.86157648561E-01  0.28033176402E+02  0.00000000000E+00 0. -1.
</event>
<event>
 7    1  0.1692604E-013  0.7246161E+02  0.7816164E-02  0.1226708E+00
        -11   -1    0    0    0    0  0.00000000000E+00  0.00000000000E+00  0.45593999997E+02  0.45594000000E+02  0.51100000000E-03 0.  1.
         11   -1    0    0    0    0 -0.00000000000E+00 -0.00000000000E+00 -0.45593999997E+02  0.45594000000E+02  0.51100000000E-03 0. -1.
    9900012    2    1    2    0    0  0.92504026962E+01  0.13400425182E+02  0.92485828184E+01  0.72461611420E+02  0.70000053573E+02 0.  0.
         12    1    1    2    0    0 -0.92504026962E+01 -0.13400425182E+02 -0.92485828184E+01  0.18726388580E+02  0.00000000000E+00 0. -1.
         11    1    3    3    0    0  0.14330773779E+02  0.78206339424E+00  0.20854207932E+02  0.25315621441E+02  0.51100000000E-03 0. -1.
        -11    1    3    3    0    0  0.15341917627E+02  0.66677510452E+00 -0.16966306487E+02  0.22883937196E+02  0.51100000000E-03 0.  1.
         12    1    3    3    0    0 -0.20422288710E+02  0.11951586684E+02  0.53606813741E+01  0.24262052782E+02  0.00000000000E+00 0. -1.
</event>
<event>
 7    1  0.1692604E-013  0.7246160E+02  0.7816164E-02  0.1226708E+00
        -11   -1    0    0    0    0  0.00000000000E+00  0.00000000000E+00  0.45593999997E+02  0.45594000000E+02  0.51100000000E-03 0.  1.
         11   -1    0    0    0    0 -0.00000000000E+00 -0.00000000000E+00 -0.45593999997E+02  0.45594000000E+02  0.51100000000E-03 0. -1.
    9900012    2    1    2    0    0 -0.17767674288E+02 -0.46596919250E+01 -0.36434872323E+01  0.72461602118E+02  0.70000041456E+02 0.  0.
         12    1    1    2    0    0  0.17767674288E+02  0.46596919250E+01  0.36434872323E+01  0.18726397882E+02  0.00000000000E+00 0. -1.
         11    1    3    3    0    0 -0.73002120868E+01 -0.12213371302E+02 -0.11966553707E+02  0.18591878414E+02  0.51100000000E-03 0. -1.
        -11    1    3    3    0    0  0.85686239064E+01 -0.93243777897E+00  0.25464872217E+02  0.26884018918E+02  0.51100000000E-03 0.  1.
         12    1    3    3    0    0 -0.19036086108E+02  0.84861171560E+01 -0.17141805743E+02  0.26985704786E+02  0.00000000000E+00 0. -1.
</event>
<event>
 7    1  0.1692604E-013  0.7246159E+02  0.7816164E-02  0.1226708E+00
        -11   -1    0    0    0    0  0.00000000000E+00  0.00000000000E+00  0.45593999997E+02  0.45594000000E+02  0.51100000000E-03 0. -1.
         11   -1    0    0    0    0 -0.00000000000E+00 -0.00000000000E+00 -0.45593999997E+02  0.45594000000E+02  0.51100000000E-03 0.  1.
    9900012    2    1    2    0    0 -0.15410499412E+02  0.10030597115E+02 -0.35471300820E+01  0.72461588106E+02  0.70000023203E+02 0.  0.
         12    1    1    2    0    0  0.15410499412E+02 -0.10030597115E+02  0.35471300820E+01  0.18726411894E+02  0.00000000000E+00 0. -1.
         11    1    3    3    0    0 -0.36184616483E+00 -0.74811521810E+01  0.68772925786E+01  0.10168368801E+02  0.51100000000E-03 0. -1.
        -11    1    3    3    0    0  0.19815948303E+02 -0.15709153632E+01  0.34909769094E+01  0.20182331438E+02  0.51100000000E-03 0.  1.
         12    1    3    3    0    0 -0.34864601550E+02  0.19082664659E+02 -0.13915399570E+02  0.42110887867E+02  0.00000000000E+00 0. -1.
</event>
<event>
 7    1  0.1692604E-013  0.7246161E+02  0.7816164E-02  0.1226708E+00
        -11   -1    0    0    0    0  0.00000000000E+00  0.00000000000E+00  0.45593999997E+02  0.45594000000E+02  0.51100000000E-03 0.  1.
         11   -1    0    0    0    0 -0.00000000000E+00 -0.00000000000E+00 -0.45593999997E+02  0.45594000000E+02  0.51100000000E-03 0. -1.
    9900012    2    1    2    0    0  0.18693708932E+02 -0.35487877102E+00  0.10474242725E+01  0.72461607123E+02  0.70000047976E+02 0.  0.
         12    1    1    2    0    0 -0.18693708932E+02  0.35487877102E+00 -0.10474242725E+01  0.18726392877E+02  0.00000000000E+00 0. -1.
         11    1    3    3    0    0  0.28422521470E+02  0.44287911256E+01 -0.25116545091E+02  0.38187625680E+02  0.51100000000E-03 0. -1.
        -11    1    3    3    0    0  0.35584743445E+00  0.49160438986E+01  0.38686354472E+00  0.49440649948E+01  0.51100000000E-03 0.  1.
        -12    1    3    3    0    0 -0.10084659972E+02 -0.96997137952E+01  0.25777105818E+02  0.29329916448E+02  0.00000000000E+00 0.  1.
</event>
<event>
 7    1  0.1692604E-013  0.7246157E+02  0.7816164E-02  0.1226708E+00
        -11   -1    0    0    0    0  0.00000000000E+00  0.00000000000E+00  0.45593999997E+02  0.45594000000E+02  0.51100000000E-03 0. -1.
         11   -1    0    0    0    0 -0.00000000000E+00 -0.00000000000E+00 -0.45593999997E+02  0.45594000000E+02  0.51100000000E-03 0.  1.
    9900012    2    1    2    0    0 -0.18429418100E+02 -0.28555251139E+01 -0.16975856167E+01  0.72461567555E+02  0.69999996432E+02 0.  0.
         12    1    1    2    0    0  0.18429418100E+02  0.28555251139E+01  0.16975856167E+01  0.18726432445E+02  0.00000000000E+00 0. -1.
         11    1    3    3    0    0  0.13640769133E+02 -0.10970376388E+02 -0.88160300083E+01  0.19599544025E+02  0.51100000000E-03 0. -1.
        -11    1    3    3    0    0 -0.19326233461E+02 -0.15946558681E+02  0.18074755506E+01  0.25120967371E+02  0.51100000000E-03 0.  1.
        -12    1    3    3    0    0 -0.12743953772E+02  0.24061409955E+02  0.53109688410E+01  0.27741056159E+02  0.00000000000E+00 0.  1.
</event>
<event>
 7    1  0.1692604E-013  0.7246154E+02  0.7816164E-02  0.1226708E+00
        -11   -1    0    0    0    0  0.00000000000E+00  0.00000000000E+00  0.45593999997E+02  0.45594000000E+02  0.51100000000E-03 0. -1.
         11   -1    0    0    0    0 -0.00000000000E+00 -0.00000000000E+00 -0.45593999997E+02  0.45594000000E+02  0.51100000000E-03 0.  1.
    9900012    2    1    2    0    0 -0.16613574437E+02  0.19925528001E+01  0.84082895220E+01  0.72461535974E+02  0.69999955291E+02 0.  0.
         12    1    1    2    0    0  0.16613574437E+02 -0.19925528001E+01 -0.84082895220E+01  0.18726464026E+02  0.00000000000E+00 0. -1.
         11    1    3    3    0    0 -0.60169618316E+01  0.18794583885E+02  0.10882158631E+02  0.22535784651E+02  0.51100000000E-03 0. -1.
        -11    1    3    3    0    0 -0.20300823889E+02  0.68354841011E+01  0.72080761094E+01  0.22600965797E+02  0.51100000000E-03 0.  1.
        -12    1    3    3    0    0  0.97042112837E+01 -0.23637515186E+02 -0.96819452188E+01  0.27324785526E+02  0.00000000000E+00 0.  1.
</event>
<event>
 7    1  0.1692604E-013  0.7246164E+02  0.7816164E-02  0.1226708E+00
        -11   -1    0    0    0    0  0.00000000000E+00  0.00000000000E+00  0.45593999997E+02  0.45594000000E+02  0.51100000000E-03 0.  1.
         11   -1    0    0    0    0 -0.00000000000E+00 -0.00000000000E+00 -0.45593999997E+02  0.45594000000E+02  0.51100000000E-03 0. -1.
    9900012    2    1    2    0    0 -0.17820597043E+02  0.38615908731E+01  0.42651013426E+01  0.72461637500E+02  0.70000087547E+02 0.  0.
         12    1    1    2    0    0  0.17820597043E+02 -0.38615908731E+01 -0.42651013426E+01  0.18726362500E+02  0.00000000000E+00 0. -1.
         11    1    3    3    0    0 -0.25244258084E+02  0.16960006986E+02 -0.19145423807E+01  0.30472608618E+02  0.51100000000E-03 0. -1.
        -11    1    3    3    0    0 -0.42166364456E+01  0.10132293562E+02  0.11026205276E+02  0.15557011243E+02  0.51100000000E-03 0.  1.
        -12    1    3    3    0    0  0.11640297486E+02 -0.23230709676E+02 -0.48465615531E+01  0.26432017639E+02  0.00000000000E+00 0.  1.
</event>
<event>
 7    1  0.1692604E-013  0.7246155E+02  0.7816164E-02  0.1226708E+00
        -11   -1    0    0    0    0  0.00000000000E+00  0.00000000000E+00  0.45593999997E+02  0.45594000000E+02  0.51100000000E-03 0. -1.
         11   -1    0    0    0    0 -0.00000000000E+00 -0.00000000000E+00 -0.45593999997E+02  0.45594000000E+02  0.51100000000E-03 0.  1.
    9900012    2    1    2    0    0 -0.14217433745E+02 -0.11196472297E+02 -0.48149420892E+01  0.72461545944E+02  0.69999968279E+02 0.  0.
         12    1    1    2    0    0  0.14217433745E+02  0.11196472297E+02  0.48149420892E+01  0.18726454056E+02  0.00000000000E+00 0. -1.
         11    1    3    3    0    0 -0.28908229077E+02 -0.10473723502E+02  0.14190515472E+02  0.33863775956E+02  0.51100000000E-03 0. -1.
        -11    1    3    3    0    0  0.75867031822E+01 -0.14833244032E+02 -0.47648278222E+01  0.17328784669E+02  0.51100000000E-03 0.  1.
        -12    1    3    3    0    0  0.71040921499E+01  0.14110495237E+02 -0.14240629739E+02  0.21268985318E+02  0.00000000000E+00 0.  1.
</event>
<event>
 7    1  0.1692604E-013  0.7246180E+02  0.7816164E-02  0.1226707E+00
        -11   -1    0    0    0    0  0.00000000000E+00  0.00000000000E+00  0.45593999997E+02  0.45594000000E+02  0.51100000000E-03 0.  1.
         11   -1    0    0    0    0 -0.00000000000E+00 -0.00000000000E+00 -0.45593999997E+02  0.45594000000E+02  0.51100000000E-03 0. -1.
    9900012    2    1    2    0    0 -0.12767504706E+02 -0.39858726850E+01  0.13106272610E+02  0.72461795387E+02  0.70000293225E+02 0.  0.
         12    1    1    2    0    0  0.12767504706E+02  0.39858726850E+01 -0.13106272610E+02  0.18726204613E+02  0.00000000000E+00 0. -1.
         11    1    3    3    0    0  0.33480455889E+01  0.25309435865E+02 -0.72452814916E+01  0.26538105758E+02  0.51100000000E-03 0. -1.
        -11    1    3    3    0    0 -0.12790779588E+01 -0.10136222683E+02 -0.45444664555E+01  0.11181736285E+02  0.51100000000E-03 0.  1.
        -12    1    3    3    0    0 -0.14836472336E+02 -0.19159085866E+02  0.24896020557E+02  0.34741953344E+02  0.00000000000E+00 0.  1.
</event>
<event>
 7    1  0.1692604E-013  0.7246158E+02  0.7816164E-02  0.1226708E+00
        -11   -1    0    0    0    0  0.00000000000E+00  0.00000000000E+00  0.45593999997E+02  0.45594000000E+02  0.51100000000E-03 0.  1.
         11   -1    0    0    0    0 -0.00000000000E+00 -0.00000000000E+00 -0.45593999997E+02  0.45594000000E+02  0.51100000000E-03 0. -1.
    9900012    2    1    2    0    0  0.13081470319E+02 -0.13365522173E+02  0.95747982509E+00  0.72461579726E+02  0.70000012286E+02 0.  0.
         12    1    1    2    0    0 -0.13081470319E+02  0.13365522173E+02 -0.95747982509E+00  0.18726420274E+02  0.00000000000E+00 0. -1.
         11    1    3    3    0    0 -0.79147936380E+01 -0.15562753568E+02 -0.26248380050E+02  0.31524922085E+02  0.51100000000E-03 0. -1.
        -11    1    3    3    0    0 -0.31470253720E+01  0.43577181876E+01  0.14483767241E+01  0.55669805003E+01  0.51100000000E-03 0.  1.
        -12    1    3    3    0    0  0.24143289329E+02 -0.21604867929E+01  0.25757483151E+02  0.35369677141E+02  0.00000000000E+00 0.  1.
</event>
<event>
 7    1  0.1692604E-013  0.7246161E+02  0.7816164E-02  0.1226708E+00
        -11   -1    0    0    0    0  0.00000000000E+00  0.00000000000E+00  0.45593999997E+02  0.45594000000E+02  0.51100000000E-03 0.  1.
         11   -1    0    0    0    0 -0.00000000000E+00 -0.00000000000E+00 -0.45593999997E+02  0.45594000000E+02  0.51100000000E-03 0. -1.
    9900012    2    1    2    0    0  0.18271065672E+02  0.98752658454E+00 -0.39837954475E+01  0.72461610179E+02  0.70000051958E+02 0.  0.
         12    1    1    2    0    0 -0.18271065672E+02 -0.98752658454E+00  0.39837954475E+01  0.18726389821E+02  0.00000000000E+00 0. -1.
         11    1    3    3    0    0  0.87474535239E+01 -0.30966113939E+02 -0.56398903813E+01  0.32668433072E+02  0.51100000000E-03 0. -1.
        -11    1    3    3    0    0  0.14925876295E+01 -0.32457117004E+01 -0.58386212124E+00  0.36198560070E+01  0.51100000000E-03 0.  1.
        -12    1    3    3    0    0  0.80310245186E+01  0.35199352224E+02  0.22399570550E+01  0.36173321100E+02  0.00000000000E+00 0.  1.
</event>
<event>
 7    1  0.1692604E-013  0.7246132E+02  0.7816164E-02  0.1226709E+00
        -11   -1    0    0    0    0  0.00000000000E+00  0.00000000000E+00  0.45593999997E+02  0.45594000000E+02  0.51100000000E-03 0. -1.
         11   -1    0    0    0    0 -0.00000000000E+00 -0.00000000000E+00 -0.45593999997E+02  0.45594000000E+02  0.51100000000E-03 0.  1.
    9900012    2    1    2    0    0 -0.70922065255E+01 -0.17302963674E+02 -0.99832787350E+00  0.72461318397E+02  0.69999671856E+02 0.  0.
         12    1    1    2    0    0  0.70922065255E+01  0.17302963674E+02  0.99832787350E+00  0.18726681603E+02  0.00000000000E+00 0. -1.
         11    1    3    3    0    0 -0.99232647980E+01  0.96709034689E+01 -0.15765011213E+02  0.20988881270E+02  0.51100000000E-03 0. -1.
        -11    1    3    3    0    0 -0.17443528032E+02 -0.19116410782E+02  0.14630273191E+02  0.29728079744E+02  0.51100000000E-03 0.  1.
         12    1    3    3    0    0  0.20274586304E+02 -0.78574563608E+01  0.13641014838E+00  0.21744357383E+02  0.00000000000E+00 0. -1.
</event>
<event>
 7    1  0.1692604E-013  0.7246153E+02  0.7816164E-02  0.1226708E+00
        -11   -1    0    0    0    0  0.00000000000E+00  0.00000000000E+00  0.45593999997E+02  0.45594000000E+02  0.51100000000E-03 0.  1.
         11   -1    0    0    0    0 -0.00000000000E+00 -0.00000000000E+00 -0.45593999997E+02  0.45594000000E+02  0.51100000000E-03 0. -1.
    9900012    2    1    2    0    0  0.69939476479E+01  0.16055871575E+02 -0.66313039271E+01  0.72461534570E+02  0.69999953462E+02 0.  0.
         12    1    1    2    0    0 -0.69939476479E+01 -0.16055871575E+02  0.66313039271E+01  0.18726465430E+02  0.00000000000E+00 0. -1.
         11    1    3    3    0    0  0.91951727317E+01  0.13378050417E+01 -0.19446907496E+02  0.21552798781E+02  0.51100000000E-03 0. -1.
        -11    1    3    3    0    0  0.21349569495E+01 -0.15278418407E+02  0.13635756241E+02  0.20589365185E+02  0.51100000000E-03 0.  1.
        -12    1    3    3    0    0 -0.43361820333E+01  0.29996484940E+02 -0.82015267250E+00  0.30319370603E+02  0.00000000000E+00 0.  1.
</event>
<event>
 7    1  0.1692604E-013  0.7246156E+02  0.7816164E-02  0.1226708E+00
        -11   -1    0    0    0    0  0.00000000000E+00  0.00000000000E+00  0.45593999997E+02  0.45594000000E+02  0.51100000000E-03 0.  1.
         11   -1    0    0    0    0 -0.00000000000E+00 -0.00000000000E+00 -0.45593999997E+02  0.45594000000E+02  0.51100000000E-03 0. -1.
    9900012    2    1    2    0    0 -0.14258840323E+02  0.14850605717E+01  0.12048217858E+02  0.72461561849E+02  0.69999988999E+02 0.  0.
         12    1    1    2    0    0  0.14258840323E+02 -0.14850605717E+01 -0.12048217858E+02  0.18726438151E+02  0.00000000000E+00 0. -1.
         11    1    3    3    0    0 -0.18605479551E+02  0.14875218572E+02  0.13825988960E+02  0.27542584626E+02  0.51100000000E-03 0. -1.
        -11    1    3    3    0    0 -0.86614688548E+01  0.50212037703E+01  0.14137855493E+02  0.17323755027E+02  0.51100000000E-03 0.  1.
         12    1    3    3    0    0  0.13008108083E+02 -0.18411361771E+02 -0.15915626596E+02  0.27595222196E+02  0.00000000000E+00 0. -1.
</event>
<event>
 7    1  0.1692604E-013  0.7246157E+02  0.7816164E-02  0.1226708E+00
        -11   -1    0    0    0    0  0.00000000000E+00  0.00000000000E+00  0.45593999997E+02  0.45594000000E+02  0.51100000000E-03 0.  1.
         11   -1    0    0    0    0 -0.00000000000E+00 -0.00000000000E+00 -0.45593999997E+02  0.45594000000E+02  0.51100000000E-03 0. -1.
    9900012    2    1    2    0    0 -0.80545517948E+01  0.28116522479E+01  0.16670270745E+02  0.72461571625E+02  0.70000001733E+02 0.  0.
         12    1    1    2    0    0  0.80545517948E+01 -0.28116522479E+01 -0.16670270745E+02  0.18726428375E+02  0.00000000000E+00 0. -1.
         11    1    3    3    0    0 -0.17992244581E+02 -0.71653199101E+01  0.24148451652E+02  0.30954973621E+02  0.51100000000E-03 0. -1.
        -11    1    3    3    0    0 -0.11093372406E+02 -0.39195463414E+01  0.56874620176E+01  0.13068013596E+02  0.51100000000E-03 0.  1.
        -12    1    3    3    0    0  0.21031065192E+02  0.13896518499E+02 -0.13165642924E+02  0.28438584408E+02  0.00000000000E+00 0.  1.
</event>
<event>
 7    1  0.1692604E-013  0.7246147E+02  0.7816164E-02  0.1226708E+00
        -11   -1    0    0    0    0  0.00000000000E+00  0.00000000000E+00  0.45593999997E+02  0.45594000000E+02  0.51100000000E-03 0.  1.
         11   -1    0    0    0    0 -0.00000000000E+00 -0.00000000000E+00 -0.45593999997E+02  0.45594000000E+02  0.51100000000E-03 0. -1.
    9900012    2    1    2    0    0 -0.58148280814E+01  0.59081025805E+01  0.16791816834E+02  0.72461467638E+02  0.69999866271E+02 0.  0.
         12    1    1    2    0    0  0.58148280814E+01 -0.59081025805E+01 -0.16791816834E+02  0.18726532362E+02  0.00000000000E+00 0. -1.
         11    1    3    3    0    0 -0.48063822966E+01  0.14170203566E+01  0.11495909129E+02  0.12540541633E+02  0.51100000000E-03 0. -1.
        -11    1    3    3    0    0 -0.51501440655E+01 -0.23202394927E+02  0.17359131010E+02  0.29431522963E+02  0.51100000000E-03 0.  1.
         12    1    3    3    0    0  0.41416982808E+01  0.27693477151E+02 -0.12063223305E+02  0.30489403042E+02  0.00000000000E+00 0. -1.
</event>
<event>
 7    1  0.1692604E-013  0.7246164E+02  0.7816164E-02  0.1226708E+00
        -11   -1    0    0    0    0  0.00000000000E+00  0.00000000000E+00  0.45593999997E+02  0.45594000000E+02  0.51100000000E-03 0.  1.
         11   -1    0    0    0    0 -0.00000000000E+00 -0.00000000000E+00 -0.45593999997E+02  0.45594000000E+02  0.51100000000E-03 0. -1.
    9900012    2    1    2    0    0  0.12731827470E+02 -0.25048501160E+01  0.13501957637E+02  0.72461639839E+02  0.70000090595E+02 0.  0.
         12    1    1    2    0    0 -0.12731827470E+02  0.25048501160E+01 -0.13501957637E+02  0.18726360161E+02  0.00000000000E+00 0. -1.
         11    1    3    3    0    0 -0.39277323924E-01  0.17459538921E+02  0.18090333161E+01  0.17553052266E+02  0.51100000000E-03 0. -1.
        -11    1    3    3    0    0 -0.38995876008E+01  0.14502155109E+02  0.52470210632E+00  0.15026463284E+02  0.51100000000E-03 0.  1.
         12    1    3    3    0    0  0.16670692395E+02 -0.34466544147E+02  0.11168222215E+02  0.39882124289E+02  0.00000000000E+00 0. -1.
</event>
<event>
 7    1  0.1924852E-013  0.7246156E+02  0.7816164E-02  0.1226708E+00
        -11   -1    0    0    0    0  0.00000000000E+00  0.00000000000E+00  0.45593999997E+02  0.45594000000E+02  0.51100000000E-03 0. -1.
         11   -1    0    0    0    0 -0.00000000000E+00 -0.00000000000E+00 -0.45593999997E+02  0.45594000000E+02  0.51100000000E-03 0.  1.
    9900012    2    1    2    0    0  0.67400350834E+01 -0.79674176534E+01 -0.15549007341E+02  0.72461562905E+02  0.69999990374E+02 0.  0.
         12    1    1    2    0    0 -0.67400350834E+01  0.79674176534E+01  0.15549007341E+02  0.18726437095E+02  0.00000000000E+00 0. -1.
         11    1    3    3    0    0  0.22592190583E+02 -0.73449855512E+01  0.14315453283E+02  0.27736043176E+02  0.51100000000E-03 0. -1.
        -11    1    3    3    0    0  0.30940888144E+01  0.10714881380E+02 -0.87524601945E+01  0.14177010556E+02  0.51100000000E-03 0.  1.
        -12    1    3    3    0    0 -0.18946244314E+02 -0.11337313482E+02 -0.21112000430E+02  0.30548509174E+02  0.00000000000E+00 0.  1.
</event>
<event>
 7    1  0.1692604E-013  0.7246154E+02  0.7816164E-02  0.1226708E+00
        -11   -1    0    0    0    0  0.00000000000E+00  0.00000000000E+00  0.45593999997E+02  0.45594000000E+02  0.51100000000E-03 0. -1.
         11   -1    0    0    0    0 -0.00000000000E+00 -0.00000000000E+00 -0.45593999997E+02  0.45594000000E+02  0.51100000000E-03 0.  1.
    9900012    2    1    2    0    0  0.18189745470E+02  0.41672154069E+01  0.15644927969E+01  0.72461543789E+02  0.69999965472E+02 0.  0.
         12    1    1    2    0    0 -0.18189745470E+02 -0.41672154069E+01 -0.15644927969E+01  0.18726456211E+02  0.00000000000E+00 0. -1.
         11    1    3    3    0    0  0.31178336383E+01  0.54979538150E+01  0.42521762615E+01  0.76177021449E+01  0.51100000000E-03 0. -1.
        -11    1    3    3    0    0  0.83935520332E+01  0.24840457720E+02  0.17150713752E+02  0.31331246990E+02  0.51100000000E-03 0.  1.
         12    1    3    3    0    0  0.66783597986E+01 -0.26171196128E+02 -0.19838397217E+02  0.33512594655E+02  0.00000000000E+00 0. -1.
</event>
<event>
 7    1  0.1692604E-013  0.7246156E+02  0.7816164E-02  0.1226708E+00
        -11   -1    0    0    0    0  0.00000000000E+00  0.00000000000E+00  0.45593999997E+02  0.45594000000E+02  0.51100000000E-03 0.  1.
         11   -1    0    0    0    0 -0.00000000000E+00 -0.00000000000E+00 -0.45593999997E+02  0.45594000000E+02  0.51100000000E-03 0. -1.
    9900012    2    1    2    0    0  0.14115584373E+02  0.43398730316E-01  0.12305613518E+02  0.72461555338E+02  0.69999980516E+02 0.  0.
         12    1    1    2    0    0 -0.14115584373E+02 -0.43398730316E-01 -0.12305613518E+02  0.18726444662E+02  0.00000000000E+00 0. -1.
         11    1    3    3    0    0  0.56075400047E+00 -0.42795799271E+01  0.31786132375E+01  0.53603014632E+01  0.51100000000E-03 0. -1.
        -11    1    3    3    0    0  0.15125010944E+02 -0.27178356297E+02  0.15763759114E+02  0.34870117705E+02  0.51100000000E-03 0.  1.
         12    1    3    3    0    0 -0.15701805716E+01  0.31501334955E+02 -0.66367588336E+01  0.32231136169E+02  0.00000000000E+00 0. -1.
</event>
<event>
 7    1  0.1692604E-013  0.7246163E+02  0.7816164E-02  0.1226708E+00
        -11   -1    0    0    0    0  0.00000000000E+00  0.00000000000E+00  0.45593999997E+02  0.45594000000E+02  0.51100000000E-03 0.  1.
         11   -1    0    0    0    0 -0.00000000000E+00 -0.00000000000E+00 -0.45593999997E+02  0.45594000000E+02  0.51100000000E-03 0. -1.
    9900012    2    1    2    0    0  0.10730733052E+02 -0.11738687203E+02  0.98859191564E+01  0.72461633384E+02  0.70000082186E+02 0.  0.
         12    1    1    2    0    0 -0.10730733052E+02  0.11738687203E+02 -0.98859191564E+01  0.18726366616E+02  0.00000000000E+00 0. -1.
         11    1    3    3    0    0  0.12393872736E+02 -0.19604510799E+02  0.11476319830E+02  0.25877612760E+02  0.51100000000E-03 0. -1.
        -11    1    3    3    0    0  0.19622585755E+02  0.50868280116E+01  0.95397444481E+01  0.22403758955E+02  0.51100000000E-03 0.  1.
         12    1    3    3    0    0 -0.21285725439E+02  0.27789955843E+01 -0.11130145122E+02  0.24180261668E+02  0.00000000000E+00 0. -1.
</event>
<event>
 7    1  0.1692604E-013  0.7246159E+02  0.7816164E-02  0.1226708E+00
        -11   -1    0    0    0    0  0.00000000000E+00  0.00000000000E+00  0.45593999997E+02  0.45594000000E+02  0.51100000000E-03 0. -1.
         11   -1    0    0    0    0 -0.00000000000E+00 -0.00000000000E+00 -0.45593999997E+02  0.45594000000E+02  0.51100000000E-03 0.  1.
    9900012    2    1    2    0    0 -0.34637703426E+01 -0.58083397797E+01 -0.17462645934E+02  0.72461587664E+02  0.70000022627E+02 0.  0.
         12    1    1    2    0    0  0.34637703426E+01  0.58083397797E+01  0.17462645934E+02  0.18726412336E+02  0.00000000000E+00 0. -1.
         11    1    3    3    0    0  0.17342558215E+01  0.65741249011E+01  0.84584010628E+01  0.10852249088E+02  0.51100000000E-03 0. -1.
        -11    1    3    3    0    0  0.15321616528E+02  0.11071743497E+02 -0.23772284518E+02  0.30371976369E+02  0.51100000000E-03 0.  1.
         12    1    3    3    0    0 -0.20519642692E+02 -0.23454208178E+02 -0.21487624789E+01  0.31237362207E+02  0.00000000000E+00 0. -1.
</event>
<event>
 7    1  0.1692604E-013  0.7246153E+02  0.7816164E-02  0.1226708E+00
        -11   -1    0    0    0    0  0.00000000000E+00  0.00000000000E+00  0.45593999997E+02  0.45594000000E+02  0.51100000000E-03 0.  1.
         11   -1    0    0    0    0 -0.00000000000E+00 -0.00000000000E+00 -0.45593999997E+02  0.45594000000E+02  0.51100000000E-03 0. -1.
    9900012    2    1    2    0    0  0.14118497185E+02  0.11369603763E+02  0.46990338869E+01  0.72461527509E+02  0.69999944264E+02 0.  0.
         12    1    1    2    0    0 -0.14118497185E+02 -0.11369603763E+02 -0.46990338869E+01  0.18726472491E+02  0.00000000000E+00 0. -1.
         11    1    3    3    0    0  0.11343293757E+02  0.10046347508E+02  0.16523683063E+02  0.22419444992E+02  0.51100000000E-03 0. -1.
        -11    1    3    3    0    0  0.18015929907E+01  0.15675063741E+02 -0.25634587283E+02  0.30101252898E+02  0.51100000000E-03 0.  1.
         12    1    3    3    0    0  0.97361043728E+00 -0.14351807485E+02  0.13809938107E+02  0.19940829619E+02  0.00000000000E+00 0. -1.
</event>
<event>
 7    1  0.1692604E-013  0.7246153E+02  0.7816164E-02  0.1226708E+00
        -11   -1    0    0    0    0  0.00000000000E+00  0.00000000000E+00  0.45593999997E+02  0.45594000000E+02  0.51100000000E-03 0.  1.
         11   -1    0    0    0    0 -0.00000000000E+00 -0.00000000000E+00 -0.45593999997E+02  0.45594000000E+02  0.51100000000E-03 0. -1.
    9900012    2    1    2    0    0  0.78845973310E+01 -0.53960623489E+00  0.16977125449E+02  0.72461525733E+02  0.69999941950E+02 0.  0.
         12    1    1    2    0    0 -0.78845973310E+01  0.53960623489E+00 -0.16977125449E+02  0.18726474267E+02  0.00000000000E+00 0. -1.
         11    1    3    3    0    0  0.15064001564E+02 -0.10602908993E+02  0.19888639962E+02  0.27109109577E+02  0.51100000000E-03 0. -1.
        -11    1    3    3    0    0  0.10588612323E+01  0.39079144677E+00  0.19530697551E+02  0.19563283266E+02  0.51100000000E-03 0.  1.
         12    1    3    3    0    0 -0.82382654656E+01  0.96725113116E+01 -0.22442212063E+02  0.25789132891E+02  0.00000000000E+00 0. -1.
</event>
<event>
 7    1  0.1692604E-013  0.7246155E+02  0.7816164E-02  0.1226708E+00
        -11   -1    0    0    0    0  0.00000000000E+00  0.00000000000E+00  0.45593999997E+02  0.45594000000E+02  0.51100000000E-03 0. -1.
         11   -1    0    0    0    0 -0.00000000000E+00 -0.00000000000E+00 -0.45593999997E+02  0.45594000000E+02  0.51100000000E-03 0.  1.
    9900012    2    1    2    0    0  0.15397410767E+02 -0.89914578784E+01 -0.57230396871E+01  0.72461554626E+02  0.69999979589E+02 0.  0.
         12    1    1    2    0    0 -0.15397410767E+02  0.89914578784E+01  0.57230396871E+01  0.18726445374E+02  0.00000000000E+00 0. -1.
         11    1    3    3    0    0 -0.61959081196E+01  0.88949852400E+01 -0.11302242463E+02  0.15660482905E+02  0.51100000000E-03 0. -1.
        -11    1    3    3    0    0 -0.82739804669E+01  0.51853849358E+01 -0.11745134400E+02  0.15274002489E+02  0.51100000000E-03 0.  1.
        -12    1    3    3    0    0  0.29867299353E+02 -0.23071828054E+02  0.17324337176E+02  0.41527069232E+02  0.00000000000E+00 0.  1.
</event>
<event>
 7    1  0.1692604E-013  0.7246149E+02  0.7816164E-02  0.1226708E+00
        -11   -1    0    0    0    0  0.00000000000E+00  0.00000000000E+00  0.45593999997E+02  0.45594000000E+02  0.51100000000E-03 0.  1.
         11   -1    0    0    0    0 -0.00000000000E+00 -0.00000000000E+00 -0.45593999997E+02  0.45594000000E+02  0.51100000000E-03 0. -1.
    9900012    2    1    2    0    0  0.10223302413E+02  0.60108797818E+01  0.14492603818E+02  0.72461490624E+02  0.69999896215E+02 0.  0.
         12    1    1    2    0    0 -0.10223302413E+02 -0.60108797818E+01 -0.14492603818E+02  0.18726509376E+02  0.00000000000E+00 0. -1.
         11    1    3    3    0    0  0.53462002762E+01  0.10626329347E+02  0.69217102767E+00  0.11915529102E+02  0.51100000000E-03 0. -1.
        -11    1    3    3    0    0  0.20706102502E+02  0.19756294635E+02  0.13104468125E+02  0.31476673008E+02  0.51100000000E-03 0.  1.
         12    1    3    3    0    0 -0.15829000366E+02 -0.24371744200E+02  0.69596466512E+00  0.29069288515E+02  0.00000000000E+00 0. -1.
</event>
<event>
 7    1  0.1692604E-013  0.7246158E+02  0.7816164E-02  0.1226708E+00
        -11   -1    0    0    0    0  0.00000000000E+00  0.00000000000E+00  0.45593999997E+02  0.45594000000E+02  0.51100000000E-03 0. -1.
         11   -1    0    0    0    0 -0.00000000000E+00 -0.00000000000E+00 -0.45593999997E+02  0.45594000000E+02  0.51100000000E-03 0.  1.
    9900012    2    1    2    0    0 -0.11396047318E+01 -0.10317492059E+02 -0.15586196846E+02  0.72461578199E+02  0.70000010298E+02 0.  0.
         12    1    1    2    0    0  0.11396047318E+01  0.10317492059E+02  0.15586196846E+02  0.18726421801E+02  0.00000000000E+00 0. -1.
         11    1    3    3    0    0 -0.16683376180E+02 -0.93346865644E+01 -0.14666397769E+02  0.24095116472E+02  0.51100000000E-03 0.  1.
        -11    1    3    3    0    0 -0.15673328023E+02  0.51711248767E+00  0.51966332020E+01  0.16520460452E+02  0.51100000000E-03 0. -1.
         12    1    3    3    0    0  0.31217099472E+02 -0.14999179821E+01 -0.61164322796E+01  0.31846001275E+02  0.00000000000E+00 0. -1.
</event>
<event>
 7    1  0.1692604E-013  0.7246160E+02  0.7816164E-02  0.1226708E+00
        -11   -1    0    0    0    0  0.00000000000E+00  0.00000000000E+00  0.45593999997E+02  0.45594000000E+02  0.51100000000E-03 0.  1.
         11   -1    0    0    0    0 -0.00000000000E+00 -0.00000000000E+00 -0.45593999997E+02  0.45594000000E+02  0.51100000000E-03 0. -1.
    9900012    2    1    2    0    0 -0.15732057810E+02  0.48863208744E+01  0.89052938815E+01  0.72461600620E+02  0.70000039505E+02 0.  0.
         12    1    1    2    0    0  0.15732057810E+02 -0.48863208744E+01 -0.89052938815E+01  0.18726399380E+02  0.00000000000E+00 0. -1.
         11    1    3    3    0    0 -0.12610749180E+02 -0.55309633358E+01 -0.60531503544E+01  0.15042047061E+02  0.51100000000E-03 0. -1.
        -11    1    3    3    0    0 -0.84281051859E+01  0.90853566010E+01 -0.19185569984E+02  0.22839937773E+02  0.51100000000E-03 0.  1.
        -12    1    3    3    0    0  0.53067965566E+01  0.13319276093E+01  0.34144014220E+02  0.34579615786E+02  0.00000000000E+00 0.  1.
</event>
<event>
 7    1  0.1692604E-013  0.7246156E+02  0.7816164E-02  0.1226708E+00
        -11   -1    0    0    0    0  0.00000000000E+00  0.00000000000E+00  0.45593999997E+02  0.45594000000E+02  0.51100000000E-03 0.  1.
         11   -1    0    0    0    0 -0.00000000000E+00 -0.00000000000E+00 -0.45593999997E+02  0.45594000000E+02  0.51100000000E-03 0. -1.
    9900012    2    1    2    0    0  0.13597986825E+02  0.35521675243E+01  0.12375642541E+02  0.72461556982E+02  0.69999982658E+02 0.  0.
         12    1    1    2    0    0 -0.13597986825E+02 -0.35521675243E+01 -0.12375642541E+02  0.18726443018E+02  0.00000000000E+00 0. -1.
         11    1    3    3    0    0  0.68961755152E+01 -0.20806641793E+02  0.75520883985E+01  0.23184210552E+02  0.51100000000E-03 0. -1.
        -11    1    3    3    0    0 -0.14794004385E+02  0.93487028478E+01  0.13015274827E+02  0.21809589399E+02  0.51100000000E-03 0.  1.
        -12    1    3    3    0    0  0.21495815694E+02  0.15010106470E+02 -0.81917206841E+01  0.27467757032E+02  0.00000000000E+00 0.  1.
</event>
<event>
 7    1  0.1692604E-013  0.7246158E+02  0.7816164E-02  0.1226708E+00
        -11   -1    0    0    0    0  0.00000000000E+00  0.00000000000E+00  0.45593999997E+02  0.45594000000E+02  0.51100000000E-03 0. -1.
         11   -1    0    0    0    0 -0.00000000000E+00 -0.00000000000E+00 -0.45593999997E+02  0.45594000000E+02  0.51100000000E-03 0.  1.
    9900012    2    1    2    0    0  0.10417376037E+02 -0.52017119137E+01 -0.14666266367E+02  0.72461577505E+02  0.70000009393E+02 0.  0.
         12    1    1    2    0    0 -0.10417376037E+02  0.52017119137E+01  0.14666266367E+02  0.18726422495E+02  0.00000000000E+00 0. -1.
         11    1    3    3    0    0 -0.49178292592E+01 -0.12659259154E+02 -0.29080059930E+02  0.32095042807E+02  0.51100000000E-03 0. -1.
        -11    1    3    3    0    0 -0.91869827777E+00  0.82063341702E+01 -0.87680225759E+01  0.12044340878E+02  0.51100000000E-03 0.  1.
        -12    1    3    3    0    0  0.16253903574E+02 -0.74878693006E+00  0.23181816139E+02  0.28322193820E+02  0.00000000000E+00 0.  1.
</event>
<event>
 7    1  0.1692604E-013  0.7246158E+02  0.7816164E-02  0.1226708E+00
        -11   -1    0    0    0    0  0.00000000000E+00  0.00000000000E+00  0.45593999997E+02  0.45594000000E+02  0.51100000000E-03 0. -1.
         11   -1    0    0    0    0 -0.00000000000E+00 -0.00000000000E+00 -0.45593999997E+02  0.45594000000E+02  0.51100000000E-03 0.  1.
    9900012    2    1    2    0    0 -0.42461755513E+01 -0.17726643896E+02 -0.42912643595E+01  0.72461578547E+02  0.70000010750E+02 0.  0.
         12    1    1    2    0    0  0.42461755513E+01  0.17726643896E+02  0.42912643595E+01  0.18726421453E+02  0.00000000000E+00 0. -1.
         11    1    3    3    0    0 -0.13868275563E+02 -0.12829378557E+02  0.87466044724E+01  0.20818864314E+02  0.51100000000E-03 0. -1.
        -11    1    3    3    0    0  0.10881692017E+02 -0.25141337355E+02 -0.15055042409E+02  0.31259436453E+02  0.51100000000E-03 0.  1.
         12    1    3    3    0    0 -0.12595920054E+01  0.20244072016E+02  0.20171735768E+01  0.20383277780E+02  0.00000000000E+00 0. -1.
</event>
<event>
 7    1  0.1692604E-013  0.7246159E+02  0.7816164E-02  0.1226708E+00
        -11   -1    0    0    0    0  0.00000000000E+00  0.00000000000E+00  0.45593999997E+02  0.45594000000E+02  0.51100000000E-03 0. -1.
         11   -1    0    0    0    0 -0.00000000000E+00 -0.00000000000E+00 -0.45593999997E+02  0.45594000000E+02  0.51100000000E-03 0.  1.
    9900012    2    1    2    0    0  0.10406918934E+02 -0.15505419670E+02 -0.13987154281E+01  0.72461590689E+02  0.70000026568E+02 0.  0.
         12    1    1    2    0    0 -0.10406918934E+02  0.15505419670E+02  0.13987154281E+01  0.18726409311E+02  0.00000000000E+00 0. -1.
         11    1    3    3    0    0 -0.47500828497E+01 -0.14701493407E+01  0.14092538819E+01  0.51682320892E+01  0.51100000000E-03 0. -1.
        -11    1    3    3    0    0 -0.15130037184E+02  0.32548260198E+01 -0.22450104235E+02  0.27267546608E+02  0.51100000000E-03 0.  1.
         12    1    3    3    0    0  0.30287038968E+02 -0.17290096349E+02  0.19642134925E+02  0.40025811992E+02  0.00000000000E+00 0. -1.
</event>
<event>
 7    1  0.1692604E-013  0.7246155E+02  0.7816164E-02  0.1226708E+00
        -11   -1    0    0    0    0  0.00000000000E+00  0.00000000000E+00  0.45593999997E+02  0.45594000000E+02  0.51100000000E-03 0.  1.
         11   -1    0    0    0    0 -0.00000000000E+00 -0.00000000000E+00 -0.45593999997E+02  0.45594000000E+02  0.51100000000E-03 0. -1.
    9900012    2    1    2    0    0 -0.11270247797E+02  0.50783831620E+01  0.14066678263E+02  0.72461550836E+02  0.69999974652E+02 0.  0.
         12    1    1    2    0    0  0.11270247797E+02 -0.50783831620E+01 -0.14066678263E+02  0.18726449164E+02  0.00000000000E+00 0. -1.
         11    1    3    3    0    0 -0.78334120050E+01 -0.82681550440E+01 -0.99340289686E+01  0.15113228089E+02  0.51100000000E-03 0. -1.
        -11    1    3    3    0    0 -0.15503147081E+02  0.24708328990E+02  0.27854352895E+02  0.40332543515E+02  0.51100000000E-03 0.  1.
         12    1    3    3    0    0  0.12066311289E+02 -0.11361790784E+02 -0.38536456636E+01  0.17015779232E+02  0.00000000000E+00 0. -1.
</event>
<event>
 7    1  0.1692604E-013  0.7246156E+02  0.7816164E-02  0.1226708E+00
        -11   -1    0    0    0    0  0.00000000000E+00  0.00000000000E+00  0.45593999997E+02  0.45594000000E+02  0.51100000000E-03 0.  1.
         11   -1    0    0    0    0 -0.00000000000E+00 -0.00000000000E+00 -0.45593999997E+02  0.45594000000E+02  0.51100000000E-03 0. -1.
    9900012    2    1    2    0    0  0.12922804985E+02 -0.11606427374E+02  0.69979750840E+01  0.72461556121E+02  0.69999981537E+02 0.  0.
         12    1    1    2    0    0 -0.12922804985E+02  0.11606427374E+02 -0.69979750840E+01  0.18726443879E+02  0.00000000000E+00 0. -1.
         11    1    3    3    0    0 -0.12183563328E+02  0.63479861799E+00 -0.13065219787E+02  0.17875742027E+02  0.51100000000E-03 0. -1.
        -11    1    3    3    0    0  0.22260301651E+01 -0.22483705237E+02  0.18957160920E+02  0.29493154492E+02  0.51100000000E-03 0.  1.
         12    1    3    3    0    0  0.22880338148E+02  0.10242479245E+02  0.11060339513E+01  0.25092659603E+02  0.00000000000E+00 0. -1.
</event>
<event>
 7    1  0.1692604E-013  0.7246156E+02  0.7816164E-02  0.1226708E+00
        -11   -1    0    0    0    0  0.00000000000E+00  0.00000000000E+00  0.45593999997E+02  0.45594000000E+02  0.51100000000E-03 0. -1.
         11   -1    0    0    0    0 -0.00000000000E+00 -0.00000000000E+00 -0.45593999997E+02  0.45594000000E+02  0.51100000000E-03 0.  1.
    9900012    2    1    2    0    0 -0.13966469212E+02  0.12472513243E+02  0.23159672719E+00  0.72461561848E+02  0.69999988996E+02 0.  0.
         12    1    1    2    0    0  0.13966469212E+02 -0.12472513243E+02 -0.23159672719E+00  0.18726438152E+02  0.00000000000E+00 0. -1.
         11    1    3    3    0    0  0.95919888265E+00  0.49065622786E+01  0.24445487221E+02  0.24951478145E+02  0.51100000000E-03 0. -1.
        -11    1    3    3    0    0  0.41534057778E+01 -0.10084858278E+02  0.14269525130E+01  0.10999606346E+02  0.51100000000E-03 0.  1.
        -12    1    3    3    0    0 -0.19079073872E+02  0.17650809242E+02 -0.25640843006E+02  0.36510477357E+02  0.00000000000E+00 0.  1.
</event>
<event>
 7    1  0.1692604E-013  0.7246156E+02  0.7816164E-02  0.1226708E+00
        -11   -1    0    0    0    0  0.00000000000E+00  0.00000000000E+00  0.45593999997E+02  0.45594000000E+02  0.51100000000E-03 0. -1.
         11   -1    0    0    0    0 -0.00000000000E+00 -0.00000000000E+00 -0.45593999997E+02  0.45594000000E+02  0.51100000000E-03 0.  1.
    9900012    2    1    2    0    0 -0.13363537251E+02  0.32783490981E+01 -0.12702274874E+02  0.72461561801E+02  0.69999988936E+02 0.  0.
         12    1    1    2    0    0  0.13363537251E+02 -0.32783490981E+01  0.12702274874E+02  0.18726438199E+02  0.00000000000E+00 0. -1.
         11    1    3    3    0    0 -0.17786091279E+02  0.90314768102E+01  0.65936966871E+01  0.21009270635E+02  0.51100000000E-03 0. -1.
        -11    1    3    3    0    0  0.20633081193E+02  0.45695552030E+01  0.37303985925E+01  0.21459747160E+02  0.51100000000E-03 0.  1.
         12    1    3    3    0    0 -0.16210527164E+02 -0.10322682915E+02 -0.23026370153E+02  0.29992544006E+02  0.00000000000E+00 0. -1.
</event>
<event>
 7    1  0.1692604E-013  0.7246157E+02  0.7816164E-02  0.1226708E+00
        -11   -1    0    0    0    0  0.00000000000E+00  0.00000000000E+00  0.45593999997E+02  0.45594000000E+02  0.51100000000E-03 0.  1.
         11   -1    0    0    0    0 -0.00000000000E+00 -0.00000000000E+00 -0.45593999997E+02  0.45594000000E+02  0.51100000000E-03 0. -1.
    9900012    2    1    2    0    0  0.12967751685E+02  0.11772488671E+02  0.66275878555E+01  0.72461574979E+02  0.70000006103E+02 0.  0.
         12    1    1    2    0    0 -0.12967751685E+02 -0.11772488671E+02 -0.66275878555E+01  0.18726425021E+02  0.00000000000E+00 0. -1.
         11    1    3    3    0    0 -0.12706715183E+02 -0.17498695200E+01 -0.11843421977E+02  0.17458215787E+02  0.51100000000E-03 0. -1.
        -11    1    3    3    0    0 -0.70160423018E+00  0.84019534746E+00  0.24994555300E+02  0.25018512578E+02  0.51100000000E-03 0.  1.
        -12    1    3    3    0    0  0.26376071098E+02  0.12682162844E+02 -0.65235454682E+01  0.29984846614E+02  0.00000000000E+00 0.  1.
</event>
<event>
 7    1  0.1692604E-013  0.7246155E+02  0.7816164E-02  0.1226708E+00
        -11   -1    0    0    0    0  0.00000000000E+00  0.00000000000E+00  0.45593999997E+02  0.45594000000E+02  0.51100000000E-03 0.  1.
         11   -1    0    0    0    0 -0.00000000000E+00 -0.00000000000E+00 -0.45593999997E+02  0.45594000000E+02  0.51100000000E-03 0. -1.
    9900012    2    1    2    0    0  0.16146547728E+02  0.66952282543E+01 -0.67188541715E+01  0.72461545816E+02  0.69999968113E+02 0.  0.
         12    1    1    2    0    0 -0.16146547728E+02 -0.66952282543E+01  0.67188541715E+01  0.18726454184E+02  0.00000000000E+00 0. -1.
         11    1    3    3    0    0  0.27849335473E+02  0.23259402030E+02 -0.10816513088E+02  0.37862675879E+02  0.51100000000E-03 0. -1.
        -11    1    3    3    0    0 -0.37309366913E+01  0.49675089567E+01 -0.67770281717E+01  0.91937013727E+01  0.51100000000E-03 0.  1.
        -12    1    3    3    0    0 -0.79718510538E+01 -0.21531682732E+02  0.10874687088E+02  0.25405168564E+02  0.00000000000E+00 0.  1.
</event>
<event>
 7    1  0.1692604E-013  0.7246156E+02  0.7816164E-02  0.1226708E+00
        -11   -1    0    0    0    0  0.00000000000E+00  0.00000000000E+00  0.45593999997E+02  0.45594000000E+02  0.51100000000E-03 0. -1.
         11   -1    0    0    0    0 -0.00000000000E+00 -0.00000000000E+00 -0.45593999997E+02  0.45594000000E+02  0.51100000000E-03 0.  1.
    9900012    2    1    2    0    0  0.69931004346E+01 -0.27489212581E+00 -0.17369527372E+02  0.72461561457E+02  0.69999988488E+02 0.  0.
         12    1    1    2    0    0 -0.69931004346E+01  0.27489212581E+00  0.17369527372E+02  0.18726438543E+02  0.00000000000E+00 0. -1.
         11    1    3    3    0    0 -0.94281050069E-01  0.12175856068E+02  0.11197741884E+02  0.16542363298E+02  0.51100000000E-03 0. -1.
        -11    1    3    3    0    0 -0.16699410028E+02  0.31128215463E+01 -0.19978469596E+02  0.26224019542E+02  0.51100000000E-03 0.  1.
        -12    1    3    3    0    0  0.23786791513E+02 -0.15563569740E+02 -0.85887996597E+01  0.29695178618E+02  0.00000000000E+00 0.  1.
</event>
<event>
 7    1  0.1692604E-013  0.7246122E+02  0.7816164E-02  0.1226709E+00
        -11   -1    0    0    0    0  0.00000000000E+00  0.00000000000E+00  0.45593999997E+02  0.45594000000E+02  0.51100000000E-03 0.  1.
         11   -1    0    0    0    0 -0.00000000000E+00 -0.00000000000E+00 -0.45593999997E+02  0.45594000000E+02  0.51100000000E-03 0. -1.
    9900012    2    1    2    0    0  0.10027406905E+02  0.13470104177E+02 -0.82885256426E+01  0.72461220963E+02  0.69999544930E+02 0.  0.
         12    1    1    2    0    0 -0.10027406905E+02 -0.13470104177E+02  0.82885256426E+01  0.18726779037E+02  0.00000000000E+00 0. -1.
         11    1    3    3    0    0 -0.11800316212E+02 -0.12432700611E+01  0.65520014146E+01  0.13554405408E+02  0.51100000000E-03 0. -1.
        -11    1    3    3    0    0 -0.16017681639E+02  0.61344473503E+01  0.54915657419E+00  0.17160977320E+02  0.51100000000E-03 0.  1.
        -12    1    3    3    0    0  0.37845404756E+02  0.85789268873E+01 -0.15389683631E+02  0.41745838235E+02  0.00000000000E+00 0.  1.
</event>
<event>
 7    1  0.1692604E-013  0.7246161E+02  0.7816164E-02  0.1226708E+00
        -11   -1    0    0    0    0  0.00000000000E+00  0.00000000000E+00  0.45593999997E+02  0.45594000000E+02  0.51100000000E-03 0. -1.
         11   -1    0    0    0    0 -0.00000000000E+00 -0.00000000000E+00 -0.45593999997E+02  0.45594000000E+02  0.51100000000E-03 0.  1.
    9900012    2    1    2    0    0  0.15377786386E+02 -0.60282486868E+01 -0.88239164779E+01  0.72461612244E+02  0.70000054647E+02 0.  0.
         12    1    1    2    0    0 -0.15377786386E+02  0.60282486868E+01  0.88239164779E+01  0.18726387756E+02  0.00000000000E+00 0. -1.
         11    1    3    3    0    0 -0.59908145523E+01 -0.99434776799E+00 -0.90245394711E+01  0.10877541055E+02  0.51100000000E-03 0. -1.
        -11    1    3    3    0    0  0.87466882341E+01 -0.23734378718E+02 -0.19257228526E+02  0.31790975747E+02  0.51100000000E-03 0.  1.
         12    1    3    3    0    0  0.12621912704E+02  0.18700477799E+02  0.19457851520E+02  0.29793095442E+02  0.00000000000E+00 0. -1.
</event>
<event>
 7    1  0.1692604E-013  0.7246155E+02  0.7816164E-02  0.1226708E+00
        -11   -1    0    0    0    0  0.00000000000E+00  0.00000000000E+00  0.45593999997E+02  0.45594000000E+02  0.51100000000E-03 0.  1.
         11   -1    0    0    0    0 -0.00000000000E+00 -0.00000000000E+00 -0.45593999997E+02  0.45594000000E+02  0.51100000000E-03 0. -1.
    9900012    2    1    2    0    0 -0.71508800898E+01 -0.95582698413E+01  0.14428600345E+02  0.72461545014E+02  0.69999967068E+02 0.  0.
         12    1    1    2    0    0  0.71508800898E+01  0.95582698413E+01 -0.14428600345E+02  0.18726454986E+02  0.00000000000E+00 0. -1.
         11    1    3    3    0    0 -0.34412922596E+01 -0.10464657508E+02 -0.49854982428E+01  0.12091597999E+02  0.51100000000E-03 0. -1.
        -11    1    3    3    0    0 -0.15976236732E+02 -0.19271911387E+02 -0.59339918679E+01  0.25726619840E+02  0.51100000000E-03 0.  1.
         12    1    3    3    0    0  0.12266648902E+02  0.20178299054E+02  0.25348090456E+02  0.34643327175E+02  0.00000000000E+00 0. -1.
</event>
<event>
 7    1  0.1692604E-013  0.7246157E+02  0.7816164E-02  0.1226708E+00
        -11   -1    0    0    0    0  0.00000000000E+00  0.00000000000E+00  0.45593999997E+02  0.45594000000E+02  0.51100000000E-03 0.  1.
         11   -1    0    0    0    0 -0.00000000000E+00 -0.00000000000E+00 -0.45593999997E+02  0.45594000000E+02  0.51100000000E-03 0. -1.
    9900012    2    1    2    0    0  0.17878990381E+01 -0.15090883329E+02  0.10942936476E+02  0.72461569445E+02  0.69999998893E+02 0.  0.
         12    1    1    2    0    0 -0.17878990381E+01  0.15090883329E+02 -0.10942936476E+02  0.18726430555E+02  0.00000000000E+00 0. -1.
         11    1    3    3    0    0  0.17187634995E+02 -0.89706422740E+01 -0.11038774329E+02  0.22310126814E+02  0.51100000000E-03 0. -1.
        -11    1    3    3    0    0  0.12840726019E+02  0.46078773711E+01  0.16606162518E+01  0.13743159213E+02  0.51100000000E-03 0.  1.
        -12    1    3    3    0    0 -0.28240461976E+02 -0.10728118426E+02  0.20321094552E+02  0.36408283417E+02  0.00000000000E+00 0.  1.
</event>
<event>
 7    1  0.1692604E-013  0.7246153E+02  0.7816164E-02  0.1226708E+00
        -11   -1    0    0    0    0  0.00000000000E+00  0.00000000000E+00  0.45593999997E+02  0.45594000000E+02  0.51100000000E-03 0.  1.
         11   -1    0    0    0    0 -0.00000000000E+00 -0.00000000000E+00 -0.45593999997E+02  0.45594000000E+02  0.51100000000E-03 0. -1.
    9900012    2    1    2    0    0 -0.21700803258E+01 -0.10636734902E+01  0.18569866207E+02  0.72461532612E+02  0.69999950911E+02 0.  0.
         12    1    1    2    0    0  0.21700803258E+01  0.10636734902E+01 -0.18569866207E+02  0.18726467388E+02  0.00000000000E+00 0. -1.
         11    1    3    3    0    0  0.10943239753E+01 -0.17224384920E+02  0.63141533035E+01  0.18377853875E+02  0.51100000000E-03 0. -1.
        -11    1    3    3    0    0  0.86743257715E+01 -0.11536925911E+02  0.18315785608E+02  0.23319789659E+02  0.51100000000E-03 0.  1.
         12    1    3    3    0    0 -0.11938730073E+02  0.27697637341E+02 -0.60600727046E+01  0.30763889078E+02  0.00000000000E+00 0. -1.
</event>
<event>
 7    1  0.1692604E-013  0.7246156E+02  0.7816164E-02  0.1226708E+00
        -11   -1    0    0    0    0  0.00000000000E+00  0.00000000000E+00  0.45593999997E+02  0.45594000000E+02  0.51100000000E-03 0. -1.
         11   -1    0    0    0    0 -0.00000000000E+00 -0.00000000000E+00 -0.45593999997E+02  0.45594000000E+02  0.51100000000E-03 0.  1.
    9900012    2    1    2    0    0  0.15605236066E+02  0.57565490270E+01 -0.86033857985E+01  0.72461561562E+02  0.69999988625E+02 0.  0.
         12    1    1    2    0    0 -0.15605236066E+02 -0.57565490270E+01  0.86033857985E+01  0.18726438438E+02  0.00000000000E+00 0. -1.
         11    1    3    3    0    0  0.15377933275E+02  0.13714022294E+02  0.20009411871E+02  0.28721626050E+02  0.51100000000E-03 0. -1.
        -11    1    3    3    0    0  0.10019292026E+01  0.12118580850E+02 -0.15695141537E+02  0.19854504075E+02  0.51100000000E-03 0.  1.
        -12    1    3    3    0    0 -0.77462641138E+00 -0.20076054117E+02 -0.12917656132E+02  0.23885431437E+02  0.00000000000E+00 0.  1.
</event>
<event>
 7    1  0.1692604E-013  0.7246154E+02  0.7816164E-02  0.1226708E+00
        -11   -1    0    0    0    0  0.00000000000E+00  0.00000000000E+00  0.45593999997E+02  0.45594000000E+02  0.51100000000E-03 0. -1.
         11   -1    0    0    0    0 -0.00000000000E+00 -0.00000000000E+00 -0.45593999997E+02  0.45594000000E+02  0.51100000000E-03 0.  1.
    9900012    2    1    2    0    0 -0.15782368910E+02  0.60875777370E+01 -0.80335957715E+01  0.72461536582E+02  0.69999956084E+02 0.  0.
         12    1    1    2    0    0  0.15782368910E+02 -0.60875777370E+01  0.80335957715E+01  0.18726463418E+02  0.00000000000E+00 0. -1.
         11    1    3    3    0    0 -0.18510962540E+02  0.12339892942E+02 -0.58890484506E+01  0.23013248008E+02  0.51100000000E-03 0. -1.
        -11    1    3    3    0    0 -0.16655338913E+02  0.11289610347E+02 -0.95561440185E+01  0.22274997303E+02  0.51100000000E-03 0.  1.
        -12    1    3    3    0    0  0.19383932543E+02 -0.17541925552E+02  0.74115966976E+01  0.27173291271E+02  0.00000000000E+00 0.  1.
</event>
<event>
 7    1  0.1692604E-013  0.7246161E+02  0.7816164E-02  0.1226708E+00
        -11   -1    0    0    0    0  0.00000000000E+00  0.00000000000E+00  0.45593999997E+02  0.45594000000E+02  0.51100000000E-03 0. -1.
         11   -1    0    0    0    0 -0.00000000000E+00 -0.00000000000E+00 -0.45593999997E+02  0.45594000000E+02  0.51100000000E-03 0.  1.
    9900012    2    1    2    0    0  0.19134022518E+01 -0.61415511875E+01 -0.17586863783E+02  0.72461613886E+02  0.70000056787E+02 0.  0.
         12    1    1    2    0    0 -0.19134022518E+01  0.61415511875E+01  0.17586863783E+02  0.18726386114E+02  0.00000000000E+00 0. -1.
         11    1    3    3    0    0 -0.74171869720E+01  0.13448617091E+02 -0.29688803735E+02  0.33426113022E+02  0.51100000000E-03 0.  1.
        -11    1    3    3    0    0  0.13291548244E+02  0.17960954835E+01 -0.13206050885E+01  0.13477210831E+02  0.51100000000E-03 0. -1.
        -12    1    3    3    0    0 -0.39609590207E+01 -0.21386263762E+02  0.13422545041E+02  0.25558290034E+02  0.00000000000E+00 0.  1.
</event>
<event>
 7    1  0.1692604E-013  0.7246157E+02  0.7816164E-02  0.1226708E+00
        -11   -1    0    0    0    0  0.00000000000E+00  0.00000000000E+00  0.45593999997E+02  0.45594000000E+02  0.51100000000E-03 0. -1.
         11   -1    0    0    0    0 -0.00000000000E+00 -0.00000000000E+00 -0.45593999997E+02  0.45594000000E+02  0.51100000000E-03 0.  1.
    9900012    2    1    2    0    0  0.83205243234E+01 -0.94856030399E+01 -0.13837323598E+02  0.72461566426E+02  0.69999994960E+02 0.  0.
         12    1    1    2    0    0 -0.83205243234E+01  0.94856030399E+01  0.13837323598E+02  0.18726433574E+02  0.00000000000E+00 0. -1.
         11    1    3    3    0    0  0.13993099268E+02 -0.24397959154E+02  0.86493761315E+01  0.29425821071E+02  0.51100000000E-03 0. -1.
        -11    1    3    3    0    0 -0.15011586255E+02 -0.34682389686E+01 -0.13726480605E+02  0.20634744329E+02  0.51100000000E-03 0.  1.
         12    1    3    3    0    0  0.93390113113E+01  0.18380595082E+02 -0.87602191247E+01  0.22401001026E+02  0.00000000000E+00 0. -1.
</event>
<event>
 7    1  0.1692604E-013  0.7246189E+02  0.7816164E-02  0.1226707E+00
        -11   -1    0    0    0    0  0.00000000000E+00  0.00000000000E+00  0.45593999997E+02  0.45594000000E+02  0.51100000000E-03 0. -1.
         11   -1    0    0    0    0 -0.00000000000E+00 -0.00000000000E+00 -0.45593999997E+02  0.45594000000E+02  0.51100000000E-03 0.  1.
    9900012    2    1    2    0    0 -0.12608242651E+02 -0.12251765127E+02 -0.64493103766E+01  0.72461891600E+02  0.70000418559E+02 0.  0.
         12    1    1    2    0    0  0.12608242651E+02  0.12251765127E+02  0.64493103766E+01  0.18726108400E+02  0.00000000000E+00 0. -1.
         11    1    3    3    0    0 -0.23941568494E+02 -0.47351415360E+01 -0.13212120547E+02  0.27752124188E+02  0.51100000000E-03 0. -1.
        -11    1    3    3    0    0  0.22451068173E+02  0.54418165325E+01 -0.54279101043E+01  0.23730276813E+02  0.51100000000E-03 0.  1.
         12    1    3    3    0    0 -0.11117742329E+02 -0.12958440124E+02  0.12190720275E+02  0.20979490598E+02  0.00000000000E+00 0. -1.
</event>
<event>
 7    1  0.1692604E-013  0.7246157E+02  0.7816164E-02  0.1226708E+00
        -11   -1    0    0    0    0  0.00000000000E+00  0.00000000000E+00  0.45593999997E+02  0.45594000000E+02  0.51100000000E-03 0. -1.
         11   -1    0    0    0    0 -0.00000000000E+00 -0.00000000000E+00 -0.45593999997E+02  0.45594000000E+02  0.51100000000E-03 0.  1.
    9900012    2    1    2    0    0  0.17655027259E+01 -0.13116586251E+02 -0.13248293007E+02  0.72461572088E+02  0.70000002337E+02 0.  0.
         12    1    1    2    0    0 -0.17655027259E+01  0.13116586251E+02  0.13248293007E+02  0.18726427912E+02  0.00000000000E+00 0. -1.
         11    1    3    3    0    0  0.13193215202E+02  0.12284909660E+02 -0.28855731420E+01  0.18256682759E+02  0.51100000000E-03 0. -1.
        -11    1    3    3    0    0  0.20844446023E+00  0.10015274086E+02 -0.13480941247E+02  0.16795384523E+02  0.51100000000E-03 0.  1.
         12    1    3    3    0    0 -0.11636156936E+02 -0.35416769997E+02  0.31182213827E+01  0.37409504806E+02  0.00000000000E+00 0. -1.
</event>
<event>
 7    1  0.1692604E-013  0.7246153E+02  0.7816164E-02  0.1226708E+00
        -11   -1    0    0    0    0  0.00000000000E+00  0.00000000000E+00  0.45593999997E+02  0.45594000000E+02  0.51100000000E-03 0. -1.
         11   -1    0    0    0    0 -0.00000000000E+00 -0.00000000000E+00 -0.45593999997E+02  0.45594000000E+02  0.51100000000E-03 0.  1.
    9900012    2    1    2    0    0 -0.44864809353E+01 -0.12143543590E+02 -0.13530948211E+02  0.72461528854E+02  0.69999946016E+02 0.  0.
         12    1    1    2    0    0  0.44864809353E+01  0.12143543590E+02  0.13530948211E+02  0.18726471146E+02  0.00000000000E+00 0. -1.
         11    1    3    3    0    0 -0.11070124337E+01  0.66380935220E+01  0.79678284660E+00  0.67767710084E+01  0.51100000000E-03 0. -1.
        -11    1    3    3    0    0  0.80601863443E+01  0.20388670949E+02 -0.11558405991E+02  0.24784294549E+02  0.51100000000E-03 0.  1.
        -12    1    3    3    0    0 -0.11439654846E+02 -0.39170308061E+02 -0.27693250674E+01  0.40900463297E+02  0.00000000000E+00 0.  1.
</event>
<event>
 7    1  0.1692604E-013  0.7246175E+02  0.7816164E-02  0.1226708E+00
        -11   -1    0    0    0    0  0.00000000000E+00  0.00000000000E+00  0.45593999997E+02  0.45594000000E+02  0.51100000000E-03 0. -1.
         11   -1    0    0    0    0 -0.00000000000E+00 -0.00000000000E+00 -0.45593999997E+02  0.45594000000E+02  0.51100000000E-03 0.  1.
    9900012    2    1    2    0    0  0.33931145226E+00  0.94407011862E+01 -0.16168815272E+02  0.72461746812E+02  0.70000229947E+02 0.  0.
         12    1    1    2    0    0 -0.33931145226E+00 -0.94407011862E+01  0.16168815272E+02  0.18726253188E+02  0.00000000000E+00 0. -1.
         11    1    3    3    0    0 -0.19174798513E+01  0.63039414859E+01  0.26818062851E+01  0.71139646084E+01  0.51100000000E-03 0. -1.
        -11    1    3    3    0    0  0.28247021774E+02  0.15376150140E+02 -0.24169184567E+01  0.32251538371E+02  0.51100000000E-03 0.  1.
         12    1    3    3    0    0 -0.25990230470E+02 -0.12239390440E+02 -0.16433703100E+02  0.33096243833E+02  0.00000000000E+00 0. -1.
</event>
<event>
 7    1  0.1692604E-013  0.7246159E+02  0.7816164E-02  0.1226708E+00
        -11   -1    0    0    0    0  0.00000000000E+00  0.00000000000E+00  0.45593999997E+02  0.45594000000E+02  0.51100000000E-03 0.  1.
         11   -1    0    0    0    0 -0.00000000000E+00 -0.00000000000E+00 -0.45593999997E+02  0.45594000000E+02  0.51100000000E-03 0. -1.
    9900012    2    1    2    0    0 -0.29808523533E+01 -0.14547423052E+02  0.11409010713E+02  0.72461587539E+02  0.70000022465E+02 0.  0.
         12    1    1    2    0    0  0.29808523533E+01  0.14547423052E+02 -0.11409010713E+02  0.18726412461E+02  0.00000000000E+00 0. -1.
         11    1    3    3    0    0 -0.10852721165E+02 -0.10811998989E+01  0.42460520261E+01  0.11703824502E+02  0.51100000000E-03 0. -1.
        -11    1    3    3    0    0 -0.66440763831E+01 -0.21986137626E+02  0.26535174886E+02  0.35094864370E+02  0.51100000000E-03 0.  1.
         12    1    3    3    0    0  0.14515945195E+02  0.85199144734E+01 -0.19372216199E+02  0.25662898667E+02  0.00000000000E+00 0. -1.
</event>
<event>
 7    1  0.1692604E-013  0.7246157E+02  0.7816164E-02  0.1226708E+00
        -11   -1    0    0    0    0  0.00000000000E+00  0.00000000000E+00  0.45593999997E+02  0.45594000000E+02  0.51100000000E-03 0.  1.
         11   -1    0    0    0    0 -0.00000000000E+00 -0.00000000000E+00 -0.45593999997E+02  0.45594000000E+02  0.51100000000E-03 0. -1.
    9900012    2    1    2    0    0  0.18335337526E+02  0.37802292695E+01  0.45231008861E+00  0.72461566278E+02  0.69999994768E+02 0.  0.
         12    1    1    2    0    0 -0.18335337526E+02 -0.37802292695E+01 -0.45231008861E+00  0.18726433722E+02  0.00000000000E+00 0. -1.
         11    1    3    3    0    0  0.14949166106E+02 -0.13416229403E+02  0.24250482555E+02  0.31489024803E+02  0.51100000000E-03 0. -1.
        -11    1    3    3    0    0  0.11756587892E+02  0.92096395986E+01 -0.48009925866E+00  0.14942065318E+02  0.51100000000E-03 0.  1.
         12    1    3    3    0    0 -0.83704164714E+01  0.79868190741E+01 -0.23318073208E+02  0.26030476157E+02  0.00000000000E+00 0. -1.
</event>
<event>
 7    1  0.1692604E-013  0.7246170E+02  0.7816164E-02  0.1226708E+00
        -11   -1    0    0    0    0  0.00000000000E+00  0.00000000000E+00  0.45593999997E+02  0.45594000000E+02  0.51100000000E-03 0.  1.
         11   -1    0    0    0    0 -0.00000000000E+00 -0.00000000000E+00 -0.45593999997E+02  0.45594000000E+02  0.51100000000E-03 0. -1.
    9900012    2    1    2    0    0 -0.18053515780E+02  0.43396312450E+01  0.24315865466E+01  0.72461696454E+02  0.70000164347E+02 0.  0.
         12    1    1    2    0    0  0.18053515780E+02 -0.43396312450E+01 -0.24315865466E+01  0.18726303546E+02  0.00000000000E+00 0. -1.
         11    1    3    3    0    0 -0.11938152600E+02 -0.37363804203E+01 -0.18509688517E+02  0.22340290853E+02  0.51100000000E-03 0. -1.
        -11    1    3    3    0    0 -0.30513348479E+01 -0.18415149141E+02  0.63121122157E+01  0.19704596497E+02  0.51100000000E-03 0.  1.
        -12    1    3    3    0    0 -0.30640283313E+01  0.26491160806E+02  0.14629162848E+02  0.30416809104E+02  0.00000000000E+00 0.  1.
</event>
<event>
 7    1  0.1692604E-013  0.7246156E+02  0.7816164E-02  0.1226708E+00
        -11   -1    0    0    0    0  0.00000000000E+00  0.00000000000E+00  0.45593999997E+02  0.45594000000E+02  0.51100000000E-03 0.  1.
         11   -1    0    0    0    0 -0.00000000000E+00 -0.00000000000E+00 -0.45593999997E+02  0.45594000000E+02  0.51100000000E-03 0. -1.
    9900012    2    1    2    0    0  0.14127369175E+02 -0.94111500551E+01  0.79074287494E+01  0.72461555206E+02  0.69999980345E+02 0.  0.
         12    1    1    2    0    0 -0.14127369175E+02  0.94111500551E+01 -0.79074287494E+01  0.18726444794E+02  0.00000000000E+00 0. -1.
         11    1    3    3    0    0  0.75240163137E+00 -0.69302425476E+01  0.18464812918E+02  0.19736861107E+02  0.51100000000E-03 0. -1.
        -11    1    3    3    0    0  0.78084258757E+01 -0.50815684172E+01  0.19730766812E+02  0.21819647373E+02  0.51100000000E-03 0.  1.
        -12    1    3    3    0    0  0.55665416685E+01  0.26006609097E+01 -0.30288150981E+02  0.30905046726E+02  0.00000000000E+00 0.  1.
</event>
<event>
 7    1  0.1692604E-013  0.7246154E+02  0.7816164E-02  0.1226708E+00
        -11   -1    0    0    0    0  0.00000000000E+00  0.00000000000E+00  0.45593999997E+02  0.45594000000E+02  0.51100000000E-03 0. -1.
         11   -1    0    0    0    0 -0.00000000000E+00 -0.00000000000E+00 -0.45593999997E+02  0.45594000000E+02  0.51100000000E-03 0.  1.
    9900012    2    1    2    0    0 -0.17355698461E+02  0.60267236531E+00 -0.70069003172E+01  0.72461544513E+02  0.69999966415E+02 0.  0.
         12    1    1    2    0    0  0.17355698461E+02 -0.60267236531E+00  0.70069003172E+01  0.18726455487E+02  0.00000000000E+00 0. -1.
         11    1    3    3    0    0 -0.97222879056E+01 -0.81529104324E+01 -0.17225973901E+01  0.12804693384E+02  0.51100000000E-03 0. -1.
        -11    1    3    3    0    0  0.24690090760E+02  0.26454163312E+01 -0.93018900538E+01  0.26516484838E+02  0.51100000000E-03 0.  1.
         12    1    3    3    0    0 -0.32323501316E+02  0.61101664665E+01  0.40175871267E+01  0.33140366291E+02  0.00000000000E+00 0. -1.
</event>
<event>
 7    1  0.1692604E-013  0.7246151E+02  0.7816164E-02  0.1226708E+00
        -11   -1    0    0    0    0  0.00000000000E+00  0.00000000000E+00  0.45593999997E+02  0.45594000000E+02  0.51100000000E-03 0. -1.
         11   -1    0    0    0    0 -0.00000000000E+00 -0.00000000000E+00 -0.45593999997E+02  0.45594000000E+02  0.51100000000E-03 0.  1.
    9900012    2    1    2    0    0 -0.60672070160E+01  0.14306053775E+02 -0.10450219407E+02  0.72461514445E+02  0.69999927245E+02 0.  0.
         12    1    1    2    0    0  0.60672070160E+01 -0.14306053775E+02  0.10450219407E+02  0.18726485555E+02  0.00000000000E+00 0. -1.
         11    1    3    3    0    0  0.15052978209E+02  0.10235386767E+02 -0.59449562025E+01  0.19149355074E+02  0.51100000000E-03 0. -1.
        -11    1    3    3    0    0  0.12923709027E+02 -0.14141808305E+01 -0.12368138727E+02  0.17944163906E+02  0.51100000000E-03 0.  1.
         12    1    3    3    0    0 -0.34043894253E+02  0.54848478386E+01  0.78628755220E+01  0.35367995465E+02  0.00000000000E+00 0. -1.
</event>
<event>
 7    1  0.1692604E-013  0.7246158E+02  0.7816164E-02  0.1226708E+00
        -11   -1    0    0    0    0  0.00000000000E+00  0.00000000000E+00  0.45593999997E+02  0.45594000000E+02  0.51100000000E-03 0. -1.
         11   -1    0    0    0    0 -0.00000000000E+00 -0.00000000000E+00 -0.45593999997E+02  0.45594000000E+02  0.51100000000E-03 0.  1.
    9900012    2    1    2    0    0  0.14821598448E+02  0.11421913225E+02  0.73423899719E+00  0.72461575110E+02  0.70000006273E+02 0.  0.
         12    1    1    2    0    0 -0.14821598448E+02 -0.11421913225E+02 -0.73423899719E+00  0.18726424890E+02  0.00000000000E+00 0. -1.
         11    1    3    3    0    0  0.13130884191E+02  0.19216428083E+02 -0.34088078045E+01  0.23522567862E+02  0.51100000000E-03 0. -1.
        -11    1    3    3    0    0  0.16716552617E+02  0.30654821720E+01  0.18772287071E+02  0.25322698799E+02  0.51100000000E-03 0.  1.
        -12    1    3    3    0    0 -0.15025838360E+02 -0.10859997030E+02 -0.14629240269E+02  0.23616308449E+02  0.00000000000E+00 0.  1.
</event>
<event>
 7    1  0.1692604E-013  0.7246158E+02  0.7816164E-02  0.1226708E+00
        -11   -1    0    0    0    0  0.00000000000E+00  0.00000000000E+00  0.45593999997E+02  0.45594000000E+02  0.51100000000E-03 0.  1.
         11   -1    0    0    0    0 -0.00000000000E+00 -0.00000000000E+00 -0.45593999997E+02  0.45594000000E+02  0.51100000000E-03 0. -1.
    9900012    2    1    2    0    0  0.10557322556E+02 -0.12118342735E+02  0.96107983001E+01  0.72461581919E+02  0.70000015143E+02 0.  0.
         12    1    1    2    0    0 -0.10557322556E+02  0.12118342735E+02 -0.96107983001E+01  0.18726418081E+02  0.00000000000E+00 0. -1.
         11    1    3    3    0    0  0.97210907245E+01  0.46367398971E+01 -0.10554285884E+02  0.15079519639E+02  0.51100000000E-03 0. -1.
        -11    1    3    3    0    0 -0.86390892907E+00  0.18346891199E+02  0.45284578293E+01  0.18917232511E+02  0.51100000000E-03 0.  1.
        -12    1    3    3    0    0  0.17001407605E+01 -0.35101973831E+02  0.15636626355E+02  0.38464829769E+02  0.00000000000E+00 0.  1.
</event>
<event>
 7    1  0.1692604E-013  0.7246153E+02  0.7816164E-02  0.1226708E+00
        -11   -1    0    0    0    0  0.00000000000E+00  0.00000000000E+00  0.45593999997E+02  0.45594000000E+02  0.51100000000E-03 0.  1.
         11   -1    0    0    0    0 -0.00000000000E+00 -0.00000000000E+00 -0.45593999997E+02  0.45594000000E+02  0.51100000000E-03 0. -1.
    9900012    2    1    2    0    0 -0.10906874749E+02  0.51985091734E+01  0.14307212832E+02  0.72461528003E+02  0.69999944908E+02 0.  0.
         12    1    1    2    0    0  0.10906874749E+02 -0.51985091734E+01 -0.14307212832E+02  0.18726471997E+02  0.00000000000E+00 0. -1.
         11    1    3    3    0    0 -0.50739732261E+01 -0.13318939537E+02  0.23467272601E+01  0.14444600507E+02  0.51100000000E-03 0. -1.
        -11    1    3    3    0    0 -0.15421891326E+01 -0.97528015133E+01  0.24784447283E+02  0.26678911374E+02  0.51100000000E-03 0.  1.
        -12    1    3    3    0    0 -0.42907123903E+01  0.28270250224E+02 -0.12823961711E+02  0.31338016123E+02  0.00000000000E+00 0.  1.
</event>
<event>
 7    1  0.1692604E-013  0.7246158E+02  0.7816164E-02  0.1226708E+00
        -11   -1    0    0    0    0  0.00000000000E+00  0.00000000000E+00  0.45593999997E+02  0.45594000000E+02  0.51100000000E-03 0.  1.
         11   -1    0    0    0    0 -0.00000000000E+00 -0.00000000000E+00 -0.45593999997E+02  0.45594000000E+02  0.51100000000E-03 0. -1.
    9900012    2    1    2    0    0  0.14934747161E+02 -0.56046008537E+01 -0.98091998699E+01  0.72461584818E+02  0.70000018920E+02 0.  0.
         12    1    1    2    0    0 -0.14934747161E+02  0.56046008537E+01  0.98091998699E+01  0.18726415182E+02  0.00000000000E+00 0. -1.
         11    1    3    3    0    0 -0.81131642525E+01 -0.14616413785E+02  0.60824868097E+00  0.16728208298E+02  0.51100000000E-03 0. -1.
        -11    1    3    3    0    0  0.20355200899E+02 -0.15126583313E+02  0.64438634705E+01  0.26166220650E+02  0.51100000000E-03 0.  1.
        -12    1    3    3    0    0  0.26927105137E+01  0.24138396245E+02 -0.16861312021E+02  0.29567155871E+02  0.00000000000E+00 0.  1.
</event>
<event>
 7    1  0.1692604E-013  0.7246134E+02  0.7816164E-02  0.1226709E+00
        -11   -1    0    0    0    0  0.00000000000E+00  0.00000000000E+00  0.45593999997E+02  0.45594000000E+02  0.51100000000E-03 0.  1.
         11   -1    0    0    0    0 -0.00000000000E+00 -0.00000000000E+00 -0.45593999997E+02  0.45594000000E+02  0.51100000000E-03 0. -1.
    9900012    2    1    2    0    0  0.87991510987E+01  0.11449690720E+02  0.11923388150E+02  0.72461343528E+02  0.69999704594E+02 0.  0.
         12    1    1    2    0    0 -0.87991510987E+01 -0.11449690720E+02 -0.11923388150E+02  0.18726656472E+02  0.00000000000E+00 0. -1.
         11    1    3    3    0    0  0.18264840707E+02 -0.23329781041E+02  0.87632084865E+01  0.30897846408E+02  0.51100000000E-03 0. -1.
        -11    1    3    3    0    0 -0.75492168173E+01  0.86025436013E+01  0.91364034786E+01  0.14644736247E+02  0.51100000000E-03 0.  1.
        -12    1    3    3    0    0 -0.19164727905E+01  0.26176928159E+02 -0.59762238152E+01  0.26918760872E+02  0.00000000000E+00 0.  1.
</event>
<event>
 7    1  0.1692604E-013  0.7246160E+02  0.7816164E-02  0.1226708E+00
        -11   -1    0    0    0    0  0.00000000000E+00  0.00000000000E+00  0.45593999997E+02  0.45594000000E+02  0.51100000000E-03 0.  1.
         11   -1    0    0    0    0 -0.00000000000E+00 -0.00000000000E+00 -0.45593999997E+02  0.45594000000E+02  0.51100000000E-03 0. -1.
    9900012    2    1    2    0    0  0.12136772838E+02  0.14022160356E+02  0.25992022209E+01  0.72461599167E+02  0.70000037612E+02 0.  0.
         12    1    1    2    0    0 -0.12136772838E+02 -0.14022160356E+02 -0.25992022209E+01  0.18726400833E+02  0.00000000000E+00 0. -1.
         11    1    3    3    0    0 -0.63917514831E+01 -0.17013612452E+01  0.61347399530E+01  0.90213165148E+01  0.51100000000E-03 0. -1.
        -11    1    3    3    0    0 -0.12512207314E+02 -0.13836481972E+02  0.58698436736E+01  0.19556549549E+02  0.51100000000E-03 0.  1.
         12    1    3    3    0    0  0.31040731635E+02  0.29560003574E+02 -0.94053814058E+01  0.43883733103E+02  0.00000000000E+00 0. -1.
</event>
<event>
 7    1  0.1692604E-013  0.7246158E+02  0.7816164E-02  0.1226708E+00
        -11   -1    0    0    0    0  0.00000000000E+00  0.00000000000E+00  0.45593999997E+02  0.45594000000E+02  0.51100000000E-03 0. -1.
         11   -1    0    0    0    0 -0.00000000000E+00 -0.00000000000E+00 -0.45593999997E+02  0.45594000000E+02  0.51100000000E-03 0.  1.
    9900012    2    1    2    0    0  0.11453244278E+02  0.11736861859E+02  0.90414668031E+01  0.72461578752E+02  0.70000011018E+02 0.  0.
         12    1    1    2    0    0 -0.11453244278E+02 -0.11736861859E+02 -0.90414668031E+01  0.18726421248E+02  0.00000000000E+00 0. -1.
         11    1    3    3    0    0  0.30169759385E+02  0.91667599375E+01  0.14743449897E+02  0.34808234431E+02  0.51100000000E-03 0. -1.
        -11    1    3    3    0    0  0.28140291359E+01  0.12421691961E+02 -0.57540319628E+01  0.13975910534E+02  0.51100000000E-03 0.  1.
        -12    1    3    3    0    0 -0.21530544243E+02 -0.98515900396E+01  0.52048869337E-01  0.23677433788E+02  0.00000000000E+00 0.  1.
</event>
<event>
 7    1  0.1692604E-013  0.7246159E+02  0.7816164E-02  0.1226708E+00
        -11   -1    0    0    0    0  0.00000000000E+00  0.00000000000E+00  0.45593999997E+02  0.45594000000E+02  0.51100000000E-03 0. -1.
         11   -1    0    0    0    0 -0.00000000000E+00 -0.00000000000E+00 -0.45593999997E+02  0.45594000000E+02  0.51100000000E-03 0.  1.
    9900012    2    1    2    0    0  0.69816067388E+01 -0.17363230776E+02  0.67372556395E+00  0.72461587589E+02  0.70000022530E+02 0.  0.
         12    1    1    2    0    0 -0.69816067388E+01  0.17363230776E+02 -0.67372556395E+00  0.18726412411E+02  0.00000000000E+00 0. -1.
         11    1    3    3    0    0 -0.24698905281E+00  0.17135178350E+02  0.20821099076E+02  0.26966525688E+02  0.51100000000E-03 0. -1.
        -11    1    3    3    0    0 -0.35625635448E+00 -0.51387070598E+00  0.34018445804E+01  0.34588334020E+01  0.51100000000E-03 0.  1.
        -12    1    3    3    0    0  0.75848521461E+01 -0.33984538420E+02 -0.23549218093E+02  0.42036228500E+02  0.00000000000E+00 0.  1.
</event>
<event>
 7    1  0.1692604E-013  0.7246161E+02  0.7816164E-02  0.1226708E+00
        -11   -1    0    0    0    0  0.00000000000E+00  0.00000000000E+00  0.45593999997E+02  0.45594000000E+02  0.51100000000E-03 0. -1.
         11   -1    0    0    0    0 -0.00000000000E+00 -0.00000000000E+00 -0.45593999997E+02  0.45594000000E+02  0.51100000000E-03 0.  1.
    9900012    2    1    2    0    0  0.55599740402E+00  0.11433470814E+02 -0.14820404156E+02  0.72461607733E+02  0.70000048771E+02 0.  0.
         12    1    1    2    0    0 -0.55599740402E+00 -0.11433470814E+02  0.14820404156E+02  0.18726392267E+02  0.00000000000E+00 0. -1.
         11    1    3    3    0    0 -0.17586238992E+02 -0.13305314868E+02  0.14857114951E+02  0.26590243898E+02  0.51100000000E-03 0.  1.
        -11    1    3    3    0    0  0.21239791693E+01  0.17099312233E+02 -0.14571833959E+02  0.22566260469E+02  0.51100000000E-03 0. -1.
        -12    1    3    3    0    0  0.16018257226E+02  0.76394734488E+01 -0.15105685148E+02  0.23305103367E+02  0.00000000000E+00 0.  1.
</event>
<event>
 7    1  0.1692604E-013  0.7246158E+02  0.7816164E-02  0.1226708E+00
        -11   -1    0    0    0    0  0.00000000000E+00  0.00000000000E+00  0.45593999997E+02  0.45594000000E+02  0.51100000000E-03 0.  1.
         11   -1    0    0    0    0 -0.00000000000E+00 -0.00000000000E+00 -0.45593999997E+02  0.45594000000E+02  0.51100000000E-03 0. -1.
    9900012    2    1    2    0    0  0.17684497112E+02 -0.23081838313E+01  0.57104714644E+01  0.72461584565E+02  0.70000018591E+02 0.  0.
         12    1    1    2    0    0 -0.17684497112E+02  0.23081838313E+01 -0.57104714644E+01  0.18726415435E+02  0.00000000000E+00 0. -1.
         11    1    3    3    0    0  0.57601673369E+01 -0.34569741078E+01 -0.35367842528E+01  0.75920379901E+01  0.51100000000E-03 0. -1.
        -11    1    3    3    0    0  0.23445195297E+02 -0.20676849085E+02  0.20873215689E+02  0.37588567465E+02  0.51100000000E-03 0.  1.
         12    1    3    3    0    0 -0.11520865522E+02  0.21825639362E+02 -0.11625959972E+02  0.27280979110E+02  0.00000000000E+00 0. -1.
</event>
<event>
 7    1  0.1692604E-013  0.7246157E+02  0.7816164E-02  0.1226708E+00
        -11   -1    0    0    0    0  0.00000000000E+00  0.00000000000E+00  0.45593999997E+02  0.45594000000E+02  0.51100000000E-03 0.  1.
         11   -1    0    0    0    0 -0.00000000000E+00 -0.00000000000E+00 -0.45593999997E+02  0.45594000000E+02  0.51100000000E-03 0. -1.
    9900012    2    1    2    0    0 -0.13880139297E+02  0.91021185580E+01  0.86702068263E+01  0.72461566395E+02  0.69999994921E+02 0.  0.
         12    1    1    2    0    0  0.13880139297E+02 -0.91021185580E+01 -0.86702068263E+01  0.18726433605E+02  0.00000000000E+00 0. -1.
         11    1    3    3    0    0 -0.16816075311E+02  0.33054958157E+02 -0.77340042375E+01  0.37884369725E+02  0.51100000000E-03 0. -1.
        -11    1    3    3    0    0 -0.67324212118E+00 -0.57090645976E+00  0.10038080512E+02  0.10076817442E+02  0.51100000000E-03 0.  1.
        -12    1    3    3    0    0  0.36091781355E+01 -0.23381933139E+02  0.63661305520E+01  0.24500379229E+02  0.00000000000E+00 0.  1.
</event>
<event>
 7    1  0.1692604E-013  0.7246157E+02  0.7816164E-02  0.1226708E+00
        -11   -1    0    0    0    0  0.00000000000E+00  0.00000000000E+00  0.45593999997E+02  0.45594000000E+02  0.51100000000E-03 0. -1.
         11   -1    0    0    0    0 -0.00000000000E+00 -0.00000000000E+00 -0.45593999997E+02  0.45594000000E+02  0.51100000000E-03 0.  1.
    9900012    2    1    2    0    0 -0.86788241086E+00  0.18684988039E+02  0.89285492782E+00  0.72461569806E+02  0.69999999363E+02 0.  0.
         12    1    1    2    0    0  0.86788241086E+00 -0.18684988039E+02 -0.89285492782E+00  0.18726430194E+02  0.00000000000E+00 0. -1.
         11    1    3    3    0    0 -0.20785506177E+02  0.24811378743E+02  0.13678047016E+02  0.35138735785E+02  0.51100000000E-03 0. -1.
        -11    1    3    3    0    0  0.13696461783E+01 -0.10163444678E+02 -0.15043697090E+02  0.18206711971E+02  0.51100000000E-03 0.  1.
        -12    1    3    3    0    0  0.18547977587E+02  0.40370539745E+01  0.22585050024E+01  0.19116122050E+02  0.00000000000E+00 0.  1.
</event>
<event>
 7    1  0.1692604E-013  0.7246163E+02  0.7816164E-02  0.1226708E+00
        -11   -1    0    0    0    0  0.00000000000E+00  0.00000000000E+00  0.45593999997E+02  0.45594000000E+02  0.51100000000E-03 0.  1.
         11   -1    0    0    0    0 -0.00000000000E+00 -0.00000000000E+00 -0.45593999997E+02  0.45594000000E+02  0.51100000000E-03 0. -1.
    9900012    2    1    2    0    0 -0.14112629646E+02 -0.75032344010E+01  0.97576635869E+01  0.72461632475E+02  0.70000081002E+02 0.  0.
         12    1    1    2    0    0  0.14112629646E+02  0.75032344010E+01 -0.97576635869E+01  0.18726367525E+02  0.00000000000E+00 0. -1.
         11    1    3    3    0    0  0.16301643651E+02 -0.82663464799E+01 -0.16207260230E+02  0.24428494720E+02  0.51100000000E-03 0. -1.
        -11    1    3    3    0    0  0.27854951737E+01 -0.59219303278E+01  0.42120390450E+01  0.77826419259E+01  0.51100000000E-03 0.  1.
        -12    1    3    3    0    0 -0.33199768471E+02  0.66850424067E+01  0.21752884772E+02  0.40250495829E+02  0.00000000000E+00 0.  1.
</event>
<event>
 7    1  0.1692604E-013  0.7246154E+02  0.7816164E-02  0.1226708E+00
        -11   -1    0    0    0    0  0.00000000000E+00  0.00000000000E+00  0.45593999997E+02  0.45594000000E+02  0.51100000000E-03 0. -1.
         11   -1    0    0    0    0 -0.00000000000E+00 -0.00000000000E+00 -0.45593999997E+02  0.45594000000E+02  0.51100000000E-03 0.  1.
    9900012    2    1    2    0    0  0.14346883650E+02  0.11763955338E+02  0.25410172424E+01  0.72461535190E+02  0.69999954270E+02 0.  0.
         12    1    1    2    0    0 -0.14346883650E+02 -0.11763955338E+02 -0.25410172424E+01  0.18726464810E+02  0.00000000000E+00 0. -1.
         11    1    3    3    0    0  0.22210640388E+02  0.21512399389E+02 -0.11238644378E+02  0.32899893642E+02  0.51100000000E-03 0. -1.
        -11    1    3    3    0    0 -0.36481824756E+01  0.25177634620E+01  0.23143635857E+02  0.23564300312E+02  0.51100000000E-03 0.  1.
        -12    1    3    3    0    0 -0.42155742624E+01 -0.12266207514E+02 -0.93639742369E+01  0.15997341237E+02  0.00000000000E+00 0.  1.
</event>
<event>
 7    1  0.1692604E-013  0.7246152E+02  0.7816164E-02  0.1226708E+00
        -11   -1    0    0    0    0  0.00000000000E+00  0.00000000000E+00  0.45593999997E+02  0.45594000000E+02  0.51100000000E-03 0. -1.
         11   -1    0    0    0    0 -0.00000000000E+00 -0.00000000000E+00 -0.45593999997E+02  0.45594000000E+02  0.51100000000E-03 0.  1.
    9900012    2    1    2    0    0 -0.42749638098E+01  0.14843717998E+02 -0.10586292888E+02  0.72461524713E+02  0.69999940621E+02 0.  0.
         12    1    1    2    0    0  0.42749638098E+01 -0.14843717998E+02  0.10586292888E+02  0.18726475287E+02  0.00000000000E+00 0. -1.
         11    1    3    3    0    0 -0.47318691974E+01  0.54424043751E+01 -0.31956929714E+01  0.78881433375E+01  0.51100000000E-03 0. -1.
        -11    1    3    3    0    0  0.14832182918E+02  0.33104843430E+02 -0.63842825278E+01  0.36833183033E+02  0.51100000000E-03 0.  1.
         12    1    3    3    0    0 -0.14375277530E+02 -0.23703529807E+02 -0.10063173884E+01  0.27740198343E+02  0.00000000000E+00 0. -1.
</event>
<event>
 7    1  0.1692604E-013  0.7246155E+02  0.7816164E-02  0.1226708E+00
        -11   -1    0    0    0    0  0.00000000000E+00  0.00000000000E+00  0.45593999997E+02  0.45594000000E+02  0.51100000000E-03 0. -1.
         11   -1    0    0    0    0 -0.00000000000E+00 -0.00000000000E+00 -0.45593999997E+02  0.45594000000E+02  0.51100000000E-03 0.  1.
    9900012    2    1    2    0    0  0.13139515872E+02  0.11582812078E+02 -0.66235694106E+01  0.72461545859E+02  0.69999968168E+02 0.  0.
         12    1    1    2    0    0 -0.13139515872E+02 -0.11582812078E+02  0.66235694106E+01  0.18726454141E+02  0.00000000000E+00 0. -1.
         11    1    3    3    0    0 -0.24383646340E+02 -0.10641069135E+02 -0.19856498649E+01  0.26678406377E+02  0.51100000000E-03 0. -1.
        -11    1    3    3    0    0  0.41912714379E+01  0.74976265355E+01 -0.36410921432E+01  0.93294540134E+01  0.51100000000E-03 0.  1.
        -12    1    3    3    0    0  0.33331890774E+02  0.14726254677E+02 -0.99682740249E+00  0.36453685469E+02  0.00000000000E+00 0.  1.
</event>
<event>
 7    1  0.1692604E-013  0.7246158E+02  0.7816164E-02  0.1226708E+00
        -11   -1    0    0    0    0  0.00000000000E+00  0.00000000000E+00  0.45593999997E+02  0.45594000000E+02  0.51100000000E-03 0. -1.
         11   -1    0    0    0    0 -0.00000000000E+00 -0.00000000000E+00 -0.45593999997E+02  0.45594000000E+02  0.51100000000E-03 0.  1.
    9900012    2    1    2    0    0  0.88085987509E+01  0.47362789788E+01 -0.15832091249E+02  0.72461578456E+02  0.70000010633E+02 0.  0.
         12    1    1    2    0    0 -0.88085987509E+01 -0.47362789788E+01  0.15832091249E+02  0.18726421544E+02  0.00000000000E+00 0. -1.
         11    1    3    3    0    0 -0.13623543429E+02 -0.19701530541E+01 -0.37574957578E+01  0.14268889699E+02  0.51100000000E-03 0. -1.
        -11    1    3    3    0    0 -0.54885745367E+01  0.52593977851E+01 -0.25907413458E+02  0.26999625699E+02  0.51100000000E-03 0.  1.
        -12    1    3    3    0    0  0.27920716716E+02  0.14470342478E+01  0.13832817967E+02  0.31193063059E+02  0.00000000000E+00 0.  1.
</event>
<event>
 7    1  0.1692604E-013  0.7246159E+02  0.7816164E-02  0.1226708E+00
        -11   -1    0    0    0    0  0.00000000000E+00  0.00000000000E+00  0.45593999997E+02  0.45594000000E+02  0.51100000000E-03 0. -1.
         11   -1    0    0    0    0 -0.00000000000E+00 -0.00000000000E+00 -0.45593999997E+02  0.45594000000E+02  0.51100000000E-03 0.  1.
    9900012    2    1    2    0    0 -0.14625238699E+02  0.10971357246E+02 -0.40509648001E+01  0.72461585431E+02  0.70000019718E+02 0.  0.
         12    1    1    2    0    0  0.14625238699E+02 -0.10971357246E+02  0.40509648001E+01  0.18726414569E+02  0.00000000000E+00 0. -1.
         11    1    3    3    0    0 -0.12712843890E+02  0.12389997687E+02 -0.97015913653E+01  0.20229911462E+02  0.51100000000E-03 0. -1.
        -11    1    3    3    0    0 -0.18548310119E+02  0.17143299239E+02  0.95502656568E+01  0.27002594161E+02  0.51100000000E-03 0.  1.
         12    1    3    3    0    0  0.16635915310E+02 -0.18561939680E+02 -0.38996390917E+01  0.25229079808E+02  0.00000000000E+00 0. -1.
</event>
<event>
 7    1  0.1692604E-013  0.7246151E+02  0.7816164E-02  0.1226708E+00
        -11   -1    0    0    0    0  0.00000000000E+00  0.00000000000E+00  0.45593999997E+02  0.45594000000E+02  0.51100000000E-03 0.  1.
         11   -1    0    0    0    0 -0.00000000000E+00 -0.00000000000E+00 -0.45593999997E+02  0.45594000000E+02  0.51100000000E-03 0. -1.
    9900012    2    1    2    0    0 -0.10034494461E+02 -0.59045092744E+01  0.14667212206E+02  0.72461510133E+02  0.69999921628E+02 0.  0.
         12    1    1    2    0    0  0.10034494461E+02  0.59045092744E+01 -0.14667212206E+02  0.18726489867E+02  0.00000000000E+00 0. -1.
         11    1    3    3    0    0  0.82047751863E+00 -0.20268142177E+01 -0.24597906572E+01  0.32911593049E+01  0.51100000000E-03 0. -1.
        -11    1    3    3    0    0  0.14070401873E+02 -0.28549343227E+02  0.61070634932E+01  0.32408909768E+02  0.51100000000E-03 0.  1.
         12    1    3    3    0    0 -0.24925373852E+02  0.24671648170E+02  0.11019939370E+02  0.36761441060E+02  0.00000000000E+00 0. -1.
</event>
<event>
 7    1  0.1692604E-013  0.7246143E+02  0.7816164E-02  0.1226708E+00
        -11   -1    0    0    0    0  0.00000000000E+00  0.00000000000E+00  0.45593999997E+02  0.45594000000E+02  0.51100000000E-03 0. -1.
         11   -1    0    0    0    0 -0.00000000000E+00 -0.00000000000E+00 -0.45593999997E+02  0.45594000000E+02  0.51100000000E-03 0.  1.
    9900012    2    1    2    0    0 -0.61718274809E+01  0.33487667364E+01 -0.17360264442E+02  0.72461428648E+02  0.69999815479E+02 0.  0.
         12    1    1    2    0    0  0.61718274809E+01 -0.33487667364E+01  0.17360264442E+02  0.18726571352E+02  0.00000000000E+00 0. -1.
         11    1    3    3    0    0 -0.12724008415E+02 -0.10876519633E+01 -0.52636050300E+01  0.13812636067E+02  0.51100000000E-03 0. -1.
        -11    1    3    3    0    0 -0.25330615331E+02  0.19235107439E+01 -0.50822867356E+01  0.25906941258E+02  0.51100000000E-03 0.  1.
         12    1    3    3    0    0  0.31882796265E+02  0.25129079558E+01 -0.70143726765E+01  0.32741851324E+02  0.00000000000E+00 0. -1.
</event>
<event>
 7    1  0.1692604E-013  0.7246155E+02  0.7816164E-02  0.1226708E+00
        -11   -1    0    0    0    0  0.00000000000E+00  0.00000000000E+00  0.45593999997E+02  0.45594000000E+02  0.51100000000E-03 0. -1.
         11   -1    0    0    0    0 -0.00000000000E+00 -0.00000000000E+00 -0.45593999997E+02  0.45594000000E+02  0.51100000000E-03 0.  1.
    9900012    2    1    2    0    0 -0.15994393100E+02  0.68744952669E+01 -0.68993158413E+01  0.72461551995E+02  0.69999976162E+02 0.  0.
         12    1    1    2    0    0  0.15994393100E+02 -0.68744952669E+01  0.68993158413E+01  0.18726448005E+02  0.00000000000E+00 0. -1.
         11    1    3    3    0    0  0.27648537516E+01 -0.70793485921E+01 -0.73557455964E+01  0.10576794708E+02  0.51100000000E-03 0. -1.
        -11    1    3    3    0    0  0.94019570815E+01  0.27621322354E+02 -0.63266202278E+01  0.29855658917E+02  0.51100000000E-03 0.  1.
         12    1    3    3    0    0 -0.28161203933E+02 -0.13667478495E+02  0.67830499828E+01  0.32029098371E+02  0.00000000000E+00 0. -1.
</event>
<event>
 7    1  0.1692604E-013  0.7246157E+02  0.7816164E-02  0.1226708E+00
        -11   -1    0    0    0    0  0.00000000000E+00  0.00000000000E+00  0.45593999997E+02  0.45594000000E+02  0.51100000000E-03 0.  1.
         11   -1    0    0    0    0 -0.00000000000E+00 -0.00000000000E+00 -0.45593999997E+02  0.45594000000E+02  0.51100000000E-03 0. -1.
    9900012    2    1    2    0    0 -0.15660295768E+01 -0.11033846616E+02  0.15049281828E+02  0.72461572062E+02  0.70000002302E+02 0.  0.
         12    1    1    2    0    0  0.15660295768E+01  0.11033846616E+02 -0.15049281828E+02  0.18726427938E+02  0.00000000000E+00 0. -1.
         11    1    3    3    0    0 -0.10789732764E+02  0.17317760751E+01 -0.50653338993E+01  0.12044707936E+02  0.51100000000E-03 0. -1.
        -11    1    3    3    0    0  0.55436933143E+01  0.19334054574E+02  0.19627922927E+02  0.28103266011E+02  0.51100000000E-03 0.  1.
         12    1    3    3    0    0  0.36800098728E+01 -0.32099677266E+02  0.48669280052E+00  0.32313598114E+02  0.00000000000E+00 0. -1.
</event>
<event>
 7    1  0.1692604E-013  0.7246158E+02  0.7816164E-02  0.1226708E+00
        -11   -1    0    0    0    0  0.00000000000E+00  0.00000000000E+00  0.45593999997E+02  0.45594000000E+02  0.51100000000E-03 0.  1.
         11   -1    0    0    0    0 -0.00000000000E+00 -0.00000000000E+00 -0.45593999997E+02  0.45594000000E+02  0.51100000000E-03 0. -1.
    9900012    2    1    2    0    0 -0.35778305987E+01  0.17870895329E+02  0.43022030913E+01  0.72461582214E+02  0.70000015528E+02 0.  0.
         12    1    1    2    0    0  0.35778305987E+01 -0.17870895329E+02 -0.43022030913E+01  0.18726417786E+02  0.00000000000E+00 0. -1.
         11    1    3    3    0    0  0.64672099513E+00 -0.10776403634E+02 -0.25434012181E+02  0.27630383625E+02  0.51100000000E-03 0. -1.
        -11    1    3    3    0    0  0.58797338704E+01  0.60291595423E+01  0.10542015860E+02  0.13492817861E+02  0.51100000000E-03 0.  1.
        -12    1    3    3    0    0 -0.10104285464E+02  0.22618139421E+02  0.19194199412E+02  0.31338380728E+02  0.00000000000E+00 0.  1.
</event>
<event>
 7    1  0.1692604E-013  0.7246156E+02  0.7816164E-02  0.1226708E+00
        -11   -1    0    0    0    0  0.00000000000E+00  0.00000000000E+00  0.45593999997E+02  0.45594000000E+02  0.51100000000E-03 0. -1.
         11   -1    0    0    0    0 -0.00000000000E+00 -0.00000000000E+00 -0.45593999997E+02  0.45594000000E+02  0.51100000000E-03 0.  1.
    9900012    2    1    2    0    0  0.90571243635E+01  0.66049271386E+00 -0.16377171755E+02  0.72461561282E+02  0.69999988260E+02 0.  0.
         12    1    1    2    0    0 -0.90571243635E+01 -0.66049271386E+00  0.16377171755E+02  0.18726438718E+02  0.00000000000E+00 0. -1.
         11    1    3    3    0    0 -0.26914257297E+01  0.90632917470E+01  0.66823789944E+01  0.11577617157E+02  0.51100000000E-03 0. -1.
        -11    1    3    3    0    0  0.15502735038E+02  0.19853836346E+02 -0.16672061521E+01  0.25244587299E+02  0.51100000000E-03 0.  1.
         12    1    3    3    0    0 -0.37541849447E+01 -0.28256635379E+02 -0.21392344598E+02  0.35639356825E+02  0.00000000000E+00 0. -1.
</event>
<event>
 7    1  0.1692604E-013  0.7246155E+02  0.7816164E-02  0.1226708E+00
        -11   -1    0    0    0    0  0.00000000000E+00  0.00000000000E+00  0.45593999997E+02  0.45594000000E+02  0.51100000000E-03 0.  1.
         11   -1    0    0    0    0 -0.00000000000E+00 -0.00000000000E+00 -0.45593999997E+02  0.45594000000E+02  0.51100000000E-03 0. -1.
    9900012    2    1    2    0    0 -0.45342725022E+01 -0.13591212017E+02  0.12058163637E+02  0.72461548614E+02  0.69999971758E+02 0.  0.
         12    1    1    2    0    0  0.45342725022E+01  0.13591212017E+02 -0.12058163637E+02  0.18726451386E+02  0.00000000000E+00 0. -1.
         11    1    3    3    0    0 -0.63250272949E+01  0.79519139104E+00 -0.17114428564E+02  0.18263131302E+02  0.51100000000E-03 0. -1.
        -11    1    3    3    0    0  0.57361803186E-01 -0.10585003527E+02 -0.10143654004E+02  0.14660808534E+02  0.51100000000E-03 0.  1.
        -12    1    3    3    0    0  0.17333929895E+01 -0.38013998810E+01  0.39316246205E+02  0.39537608779E+02  0.00000000000E+00 0.  1.
</event>
<event>
 7    1  0.1692604E-013  0.7246146E+02  0.7816164E-02  0.1226708E+00
        -11   -1    0    0    0    0  0.00000000000E+00  0.00000000000E+00  0.45593999997E+02  0.45594000000E+02  0.51100000000E-03 0. -1.
         11   -1    0    0    0    0 -0.00000000000E+00 -0.00000000000E+00 -0.45593999997E+02  0.45594000000E+02  0.51100000000E-03 0.  1.
    9900012    2    1    2    0    0  0.12096536892E+02 -0.11043725654E+02 -0.90770739209E+01  0.72461458620E+02  0.69999854523E+02 0.  0.
         12    1    1    2    0    0 -0.12096536892E+02  0.11043725654E+02  0.90770739209E+01  0.18726541380E+02  0.00000000000E+00 0. -1.
         11    1    3    3    0    0 -0.21704087362E+02 -0.57429077145E+01 -0.50962317734E+01  0.23022162708E+02  0.51100000000E-03 0.  1.
        -11    1    3    3    0    0  0.72003434012E+01  0.13508498650E+02  0.41522919109E+01  0.15860832552E+02  0.51100000000E-03 0. -1.
         12    1    3    3    0    0  0.26600280852E+02 -0.18809316590E+02 -0.81331340584E+01  0.33578463360E+02  0.00000000000E+00 0. -1.
</event>
<event>
 7    1  0.1692604E-013  0.7246156E+02  0.7816164E-02  0.1226708E+00
        -11   -1    0    0    0    0  0.00000000000E+00  0.00000000000E+00  0.45593999997E+02  0.45594000000E+02  0.51100000000E-03 0.  1.
         11   -1    0    0    0    0 -0.00000000000E+00 -0.00000000000E+00 -0.45593999997E+02  0.45594000000E+02  0.51100000000E-03 0. -1.
    9900012    2    1    2    0    0  0.17788508646E+02  0.58203948475E+01  0.60941050529E+00  0.72461563682E+02  0.69999991386E+02 0.  0.
         12    1    1    2    0    0 -0.17788508646E+02 -0.58203948475E+01 -0.60941050529E+00  0.18726436318E+02  0.00000000000E+00 0. -1.
         11    1    3    3    0    0 -0.17907179977E+01 -0.27156755713E+02  0.63047034228E+01  0.27936451767E+02  0.51100000000E-03 0. -1.
        -11    1    3    3    0    0  0.69098535017E+01  0.31551630518E+01 -0.92043651151E+01  0.11934046536E+02  0.51100000000E-03 0.  1.
        -12    1    3    3    0    0  0.12669373142E+02  0.29821987509E+02  0.35090721976E+01  0.32591065378E+02  0.00000000000E+00 0.  1.
</event>
<event>
 7    1  0.1692604E-013  0.7246155E+02  0.7816164E-02  0.1226708E+00
        -11   -1    0    0    0    0  0.00000000000E+00  0.00000000000E+00  0.45593999997E+02  0.45594000000E+02  0.51100000000E-03 0. -1.
         11   -1    0    0    0    0 -0.00000000000E+00 -0.00000000000E+00 -0.45593999997E+02  0.45594000000E+02  0.51100000000E-03 0.  1.
    9900012    2    1    2    0    0  0.44572524138E+01  0.76027926351E-01 -0.18188103994E+02  0.72461547954E+02  0.69999970898E+02 0.  0.
         12    1    1    2    0    0 -0.44572524138E+01 -0.76027926351E-01  0.18188103994E+02  0.18726452046E+02  0.00000000000E+00 0. -1.
         11    1    3    3    0    0 -0.16883871098E+02 -0.13076617818E+02  0.77785507809E+01  0.22728151911E+02  0.51100000000E-03 0. -1.
        -11    1    3    3    0    0 -0.44474756312E+01 -0.38843229325E+01 -0.16319173253E+02  0.17354636846E+02  0.51100000000E-03 0.  1.
         12    1    3    3    0    0  0.25788599143E+02  0.17036968677E+02 -0.96474815212E+01  0.32378759197E+02  0.00000000000E+00 0. -1.
</event>
<event>
 7    1  0.1692604E-013  0.7246155E+02  0.7816164E-02  0.1226708E+00
        -11   -1    0    0    0    0  0.00000000000E+00  0.00000000000E+00  0.45593999997E+02  0.45594000000E+02  0.51100000000E-03 0.  1.
         11   -1    0    0    0    0 -0.00000000000E+00 -0.00000000000E+00 -0.45593999997E+02  0.45594000000E+02  0.51100000000E-03 0. -1.
    9900012    2    1    2    0    0  0.16511836242E+02 -0.49254376639E+01  0.73334303245E+01  0.72461551522E+02  0.69999975546E+02 0.  0.
         12    1    1    2    0    0 -0.16511836242E+02  0.49254376639E+01 -0.73334303245E+01  0.18726448478E+02  0.00000000000E+00 0. -1.
         11    1    3    3    0    0  0.29168468209E+01 -0.56874606203E+01  0.27695728155E+01  0.69660417402E+01  0.51100000000E-03 0. -1.
        -11    1    3    3    0    0 -0.21666374566E+02 -0.13243004874E+02  0.97526724125E+01  0.27201536434E+02  0.51100000000E-03 0.  1.
         12    1    3    3    0    0  0.35261363986E+02  0.14005027830E+02 -0.51888149035E+01  0.38293973349E+02  0.00000000000E+00 0. -1.
</event>
<event>
 7    1  0.1692604E-013  0.7246156E+02  0.7816164E-02  0.1226708E+00
        -11   -1    0    0    0    0  0.00000000000E+00  0.00000000000E+00  0.45593999997E+02  0.45594000000E+02  0.51100000000E-03 0. -1.
         11   -1    0    0    0    0 -0.00000000000E+00 -0.00000000000E+00 -0.45593999997E+02  0.45594000000E+02  0.51100000000E-03 0.  1.
    9900012    2    1    2    0    0  0.99579748176E+01 -0.90351530244E+01 -0.13033964232E+02  0.72461562105E+02  0.69999989331E+02 0.  0.
         12    1    1    2    0    0 -0.99579748176E+01  0.90351530244E+01  0.13033964232E+02  0.18726437895E+02  0.00000000000E+00 0. -1.
         11    1    3    3    0    0 -0.93825695206E+01 -0.12475769829E+02  0.68336955630E+01  0.17040447146E+02  0.51100000000E-03 0. -1.
        -11    1    3    3    0    0 -0.11331483246E+02  0.25808668089E+01  0.78882869295E+01  0.14045940943E+02  0.51100000000E-03 0.  1.
        -12    1    3    3    0    0  0.30672027584E+02  0.85974999585E+00 -0.27755946725E+02  0.41375174015E+02  0.00000000000E+00 0.  1.
</event>
<event>
 7    1  0.1692604E-013  0.7246159E+02  0.7816164E-02  0.1226708E+00
        -11   -1    0    0    0    0  0.00000000000E+00  0.00000000000E+00  0.45593999997E+02  0.45594000000E+02  0.51100000000E-03 0.  1.
         11   -1    0    0    0    0 -0.00000000000E+00 -0.00000000000E+00 -0.45593999997E+02  0.45594000000E+02  0.51100000000E-03 0. -1.
    9900012    2    1    2    0    0  0.12855082965E+02 -0.63463338519E+01  0.12047798769E+02  0.72461586393E+02  0.70000020972E+02 0.  0.
         12    1    1    2    0    0 -0.12855082965E+02  0.63463338519E+01 -0.12047798769E+02  0.18726413607E+02  0.00000000000E+00 0. -1.
         11    1    3    3    0    0  0.12536991418E+01 -0.98479751498E+01 -0.14772005841E+02  0.17797936198E+02  0.51100000000E-03 0. -1.
        -11    1    3    3    0    0 -0.80287895596E+01  0.17441495104E+02  0.80518619959E+00  0.19217584092E+02  0.51100000000E-03 0.  1.
        -12    1    3    3    0    0  0.19630173383E+02 -0.13939853806E+02  0.26014618410E+02  0.35446066103E+02  0.00000000000E+00 0.  1.
</event>
<event>
 7    1  0.1692604E-013  0.7246148E+02  0.7816164E-02  0.1226708E+00
        -11   -1    0    0    0    0  0.00000000000E+00  0.00000000000E+00  0.45593999997E+02  0.45594000000E+02  0.51100000000E-03 0. -1.
         11   -1    0    0    0    0 -0.00000000000E+00 -0.00000000000E+00 -0.45593999997E+02  0.45594000000E+02  0.51100000000E-03 0.  1.
    9900012    2    1    2    0    0 -0.75155600084E+01 -0.37171920308E+01 -0.16744592145E+02  0.72461480704E+02  0.69999883292E+02 0.  0.
         12    1    1    2    0    0  0.75155600084E+01  0.37171920308E+01  0.16744592145E+02  0.18726519296E+02  0.00000000000E+00 0. -1.
         11    1    3    3    0    0  0.13499755261E+01 -0.32674945299E+00 -0.17742995392E+02  0.17797277457E+02  0.51100000000E-03 0. -1.
        -11    1    3    3    0    0  0.12165334442E+02  0.17089750917E+02 -0.10098264158E+02  0.23281535339E+02  0.51100000000E-03 0.  1.
         12    1    3    3    0    0 -0.21030869976E+02 -0.20480193495E+02  0.11096667405E+02  0.31382667908E+02  0.00000000000E+00 0. -1.
</event>
<event>
 7    1  0.1692604E-013  0.7246154E+02  0.7816164E-02  0.1226708E+00
        -11   -1    0    0    0    0  0.00000000000E+00  0.00000000000E+00  0.45593999997E+02  0.45594000000E+02  0.51100000000E-03 0.  1.
         11   -1    0    0    0    0 -0.00000000000E+00 -0.00000000000E+00 -0.45593999997E+02  0.45594000000E+02  0.51100000000E-03 0. -1.
    9900012    2    1    2    0    0  0.93925964258E+01 -0.14084479604E+02  0.80054316835E+01  0.72461538247E+02  0.69999958253E+02 0.  0.
         12    1    1    2    0    0 -0.93925964258E+01  0.14084479604E+02 -0.80054316835E+01  0.18726461753E+02  0.00000000000E+00 0. -1.
         11    1    3    3    0    0  0.31915120747E+02 -0.10865023065E+02  0.22562180395E+02  0.40566927945E+02  0.51100000000E-03 0. -1.
        -11    1    3    3    0    0  0.22240917940E+01 -0.11619466958E+01  0.87582067841E+00  0.26577747372E+01  0.51100000000E-03 0.  1.
        -12    1    3    3    0    0 -0.24746616115E+02 -0.20575098437E+01 -0.15432569389E+02  0.29236835565E+02  0.00000000000E+00 0.  1.
</event>
<event>
 7    1  0.1692604E-013  0.7246162E+02  0.7816164E-02  0.1226708E+00
        -11   -1    0    0    0    0  0.00000000000E+00  0.00000000000E+00  0.45593999997E+02  0.45594000000E+02  0.51100000000E-03 0.  1.
         11   -1    0    0    0    0 -0.00000000000E+00 -0.00000000000E+00 -0.45593999997E+02  0.45594000000E+02  0.51100000000E-03 0. -1.
    9900012    2    1    2    0    0 -0.13007248338E+02 -0.11295777071E+02  0.73412734090E+01  0.72461617962E+02  0.70000062096E+02 0.  0.
         12    1    1    2    0    0  0.13007248338E+02  0.11295777071E+02 -0.73412734090E+01  0.18726382038E+02  0.00000000000E+00 0. -1.
         11    1    3    3    0    0  0.90775926053E+01  0.12906863694E+02  0.25290391254E+01  0.15980796510E+02  0.51100000000E-03 0. -1.
        -11    1    3    3    0    0  0.10211305486E+02 -0.55164510846E+01 -0.10968026978E+02  0.15968707160E+02  0.51100000000E-03 0.  1.
        -12    1    3    3    0    0 -0.32296146429E+02 -0.18686189681E+02  0.15780261261E+02  0.40512114293E+02  0.00000000000E+00 0.  1.
</event>
<event>
 7    1  0.1692604E-013  0.7246159E+02  0.7816164E-02  0.1226708E+00
        -11   -1    0    0    0    0  0.00000000000E+00  0.00000000000E+00  0.45593999997E+02  0.45594000000E+02  0.51100000000E-03 0.  1.
         11   -1    0    0    0    0 -0.00000000000E+00 -0.00000000000E+00 -0.45593999997E+02  0.45594000000E+02  0.51100000000E-03 0. -1.
    9900012    2    1    2    0    0 -0.68606006343E+01 -0.77830982794E+01  0.15589551721E+02  0.72461585962E+02  0.70000020409E+02 0.  0.
         12    1    1    2    0    0  0.68606006343E+01  0.77830982794E+01 -0.15589551721E+02  0.18726414038E+02  0.00000000000E+00 0. -1.
         11    1    3    3    0    0  0.65281066570E+01 -0.18180492462E+01  0.51921068787E+01  0.85369463913E+01  0.51100000000E-03 0. -1.
        -11    1    3    3    0    0  0.41027266349E+00  0.15916743102E+01  0.34827926162E+02  0.34866691724E+02  0.51100000000E-03 0.  1.
         12    1    3    3    0    0 -0.13798979955E+02 -0.75567233434E+01 -0.24430481320E+02  0.29057947846E+02  0.00000000000E+00 0. -1.
</event>
<event>
 7    1  0.1692604E-013  0.7246158E+02  0.7816164E-02  0.1226708E+00
        -11   -1    0    0    0    0  0.00000000000E+00  0.00000000000E+00  0.45593999997E+02  0.45594000000E+02  0.51100000000E-03 0. -1.
         11   -1    0    0    0    0 -0.00000000000E+00 -0.00000000000E+00 -0.45593999997E+02  0.45594000000E+02  0.51100000000E-03 0.  1.
    9900012    2    1    2    0    0 -0.52558371034E+01  0.15432480829E+02 -0.92137623981E+01  0.72461582678E+02  0.70000016132E+02 0.  0.
         12    1    1    2    0    0  0.52558371034E+01 -0.15432480829E+02  0.92137623981E+01  0.18726417322E+02  0.00000000000E+00 0. -1.
         11    1    3    3    0    0 -0.94708519747E+01 -0.52129612831E+01 -0.10247976475E+02  0.14896074133E+02  0.51100000000E-03 0.  1.
        -11    1    3    3    0    0  0.10007964891E+02  0.23666309527E+02  0.23100314123E+02  0.34552540873E+02  0.51100000000E-03 0. -1.
         12    1    3    3    0    0 -0.57929500200E+01 -0.30208674151E+01 -0.22066100046E+02  0.23012967673E+02  0.00000000000E+00 0. -1.
</event>
<event>
 7    1  0.1692604E-013  0.7246152E+02  0.7816164E-02  0.1226708E+00
        -11   -1    0    0    0    0  0.00000000000E+00  0.00000000000E+00  0.45593999997E+02  0.45594000000E+02  0.51100000000E-03 0. -1.
         11   -1    0    0    0    0 -0.00000000000E+00 -0.00000000000E+00 -0.45593999997E+02  0.45594000000E+02  0.51100000000E-03 0.  1.
    9900012    2    1    2    0    0 -0.10974126491E+02 -0.13799983589E+02 -0.63095259358E+01  0.72461518301E+02  0.69999932269E+02 0.  0.
         12    1    1    2    0    0  0.10974126491E+02  0.13799983589E+02  0.63095259358E+01  0.18726481699E+02  0.00000000000E+00 0. -1.
         11    1    3    3    0    0 -0.97406826036E+01 -0.53288738331E+01  0.16682883344E+02  0.20039870030E+02  0.51100000000E-03 0. -1.
        -11    1    3    3    0    0 -0.14590699538E+02 -0.18577019911E+01  0.89187455675E+01  0.17201267176E+02  0.51100000000E-03 0.  1.
         12    1    3    3    0    0  0.13357255651E+02 -0.66134077646E+01 -0.31911154847E+02  0.35220381095E+02  0.00000000000E+00 0. -1.
</event>
<event>
 7    1  0.1692604E-013  0.7246157E+02  0.7816164E-02  0.1226708E+00
        -11   -1    0    0    0    0  0.00000000000E+00  0.00000000000E+00  0.45593999997E+02  0.45594000000E+02  0.51100000000E-03 0. -1.
         11   -1    0    0    0    0 -0.00000000000E+00 -0.00000000000E+00 -0.45593999997E+02  0.45594000000E+02  0.51100000000E-03 0.  1.
    9900012    2    1    2    0    0 -0.38217942367E+01 -0.16799611017E+02 -0.73380032781E+01  0.72461565913E+02  0.69999994293E+02 0.  0.
         12    1    1    2    0    0  0.38217942367E+01  0.16799611017E+02  0.73380032781E+01  0.18726434087E+02  0.00000000000E+00 0. -1.
         11    1    3    3    0    0 -0.18256193296E+02 -0.14045511008E+02 -0.18888247014E+02  0.29788099112E+02  0.51100000000E-03 0.  1.
        -11    1    3    3    0    0 -0.24794324510E+00 -0.17106591934E+02  0.13851642985E+02  0.22012836644E+02  0.51100000000E-03 0. -1.
        -12    1    3    3    0    0  0.14682342305E+02  0.14352491925E+02 -0.23013992495E+01  0.20660630158E+02  0.00000000000E+00 0.  1.
</event>
<event>
 7    1  0.1692604E-013  0.7246155E+02  0.7816164E-02  0.1226708E+00
        -11   -1    0    0    0    0  0.00000000000E+00  0.00000000000E+00  0.45593999997E+02  0.45594000000E+02  0.51100000000E-03 0. -1.
         11   -1    0    0    0    0 -0.00000000000E+00 -0.00000000000E+00 -0.45593999997E+02  0.45594000000E+02  0.51100000000E-03 0.  1.
    9900012    2    1    2    0    0 -0.34522502402E+01 -0.11811784608E+02 -0.14115367145E+02  0.72461551404E+02  0.69999975392E+02 0.  0.
         12    1    1    2    0    0  0.34522502402E+01  0.11811784608E+02  0.14115367145E+02  0.18726448596E+02  0.00000000000E+00 0. -1.
         11    1    3    3    0    0 -0.55563145339E+00 -0.20376188287E+02 -0.13490415117E+02  0.24443589665E+02  0.51100000000E-03 0. -1.
        -11    1    3    3    0    0  0.86596821018E+01 -0.47690954912E+01  0.19128137042E+02  0.21531836728E+02  0.51100000000E-03 0.  1.
         12    1    3    3    0    0 -0.11556300889E+02  0.13333499170E+02 -0.19753089070E+02  0.26486125012E+02  0.00000000000E+00 0. -1.
</event>
<event>
 7    1  0.1692604E-013  0.7246157E+02  0.7816164E-02  0.1226708E+00
        -11   -1    0    0    0    0  0.00000000000E+00  0.00000000000E+00  0.45593999997E+02  0.45594000000E+02  0.51100000000E-03 0.  1.
         11   -1    0    0    0    0 -0.00000000000E+00 -0.00000000000E+00 -0.45593999997E+02  0.45594000000E+02  0.51100000000E-03 0. -1.
    9900012    2    1    2    0    0  0.17908136323E+02  0.52601701061E+01 -0.15193596572E+01  0.72461569751E+02  0.69999999292E+02 0.  0.
         12    1    1    2    0    0 -0.17908136323E+02 -0.52601701061E+01  0.15193596572E+01  0.18726430249E+02  0.00000000000E+00 0. -1.
         11    1    3    3    0    0 -0.82215164171E+01  0.23085135070E+02 -0.18590031275E+02  0.30758837047E+02  0.51100000000E-03 0. -1.
        -11    1    3    3    0    0 -0.18370771374E+01  0.25286040775E+01 -0.11373399944E-01  0.31255112550E+01  0.51100000000E-03 0.  1.
        -12    1    3    3    0    0  0.27966729877E+02 -0.20353569041E+02  0.17082045018E+02  0.38577221449E+02  0.00000000000E+00 0.  1.
</event>
<event>
 7    1  0.1692604E-013  0.7246153E+02  0.7816164E-02  0.1226708E+00
        -11   -1    0    0    0    0  0.00000000000E+00  0.00000000000E+00  0.45593999997E+02  0.45594000000E+02  0.51100000000E-03 0.  1.
         11   -1    0    0    0    0 -0.00000000000E+00 -0.00000000000E+00 -0.45593999997E+02  0.45594000000E+02  0.51100000000E-03 0. -1.
    9900012    2    1    2    0    0 -0.12395721248E+02  0.63440664479E+01  0.12521171105E+02  0.72461526488E+02  0.69999942934E+02 0.  0.
         12    1    1    2    0    0  0.12395721248E+02 -0.63440664479E+01 -0.12521171105E+02  0.18726473512E+02  0.00000000000E+00 0. -1.
         11    1    3    3    0    0 -0.28001710542E+02 -0.96211408775E+01  0.16568222916E+02  0.33928869063E+02  0.51100000000E-03 0. -1.
        -11    1    3    3    0    0 -0.55166865312E+01  0.10296257861E+02  0.74201085408E+01  0.13838524749E+02  0.51100000000E-03 0.  1.
        -12    1    3    3    0    0  0.21122675825E+02  0.56689494645E+01 -0.11467160351E+02  0.24694132675E+02  0.00000000000E+00 0.  1.
</event>
<event>
 7    1  0.1692604E-013  0.7246165E+02  0.7816164E-02  0.1226708E+00
        -11   -1    0    0    0    0  0.00000000000E+00  0.00000000000E+00  0.45593999997E+02  0.45594000000E+02  0.51100000000E-03 0.  1.
         11   -1    0    0    0    0 -0.00000000000E+00 -0.00000000000E+00 -0.45593999997E+02  0.45594000000E+02  0.51100000000E-03 0. -1.
    9900012    2    1    2    0    0 -0.18371177855E+02  0.36289106633E+01 -0.83728964922E-01  0.72461650144E+02  0.70000104019E+02 0.  0.
         12    1    1    2    0    0  0.18371177855E+02 -0.36289106633E+01  0.83728964922E-01  0.18726349856E+02  0.00000000000E+00 0. -1.
         11    1    3    3    0    0  0.12273890703E+02 -0.11868097773E+02 -0.14186496432E+02  0.22198126476E+02  0.51100000000E-03 0. -1.
        -11    1    3    3    0    0  0.37998462918E+01  0.17649941465E+00  0.11908514948E+02  0.12501308428E+02  0.51100000000E-03 0.  1.
         12    1    3    3    0    0 -0.34444914850E+02  0.15320509021E+02  0.21942525192E+01  0.37762215240E+02  0.00000000000E+00 0. -1.
</event>
<event>
 7    1  0.1692604E-013  0.7246156E+02  0.7816164E-02  0.1226708E+00
        -11   -1    0    0    0    0  0.00000000000E+00  0.00000000000E+00  0.45593999997E+02  0.45594000000E+02  0.51100000000E-03 0. -1.
         11   -1    0    0    0    0 -0.00000000000E+00 -0.00000000000E+00 -0.45593999997E+02  0.45594000000E+02  0.51100000000E-03 0.  1.
    9900012    2    1    2    0    0 -0.69919214492E+01  0.58050874210E+01 -0.16373559809E+02  0.72461562370E+02  0.69999989677E+02 0.  0.
         12    1    1    2    0    0  0.69919214492E+01 -0.58050874210E+01  0.16373559809E+02  0.18726437630E+02  0.00000000000E+00 0. -1.
         11    1    3    3    0    0  0.17144270160E+02  0.23174262938E+01  0.94921512064E+01  0.19733154809E+02  0.51100000000E-03 0. -1.
        -11    1    3    3    0    0  0.92470398286E+01 -0.55537370874E+00  0.14859609210E+01  0.93821247949E+01  0.51100000000E-03 0.  1.
        -12    1    3    3    0    0 -0.33383231438E+02  0.40430348360E+01 -0.27351671936E+02  0.43346282766E+02  0.00000000000E+00 0.  1.
</event>
<event>
 7    1  0.1692604E-013  0.7246162E+02  0.7816164E-02  0.1226708E+00
        -11   -1    0    0    0    0  0.00000000000E+00  0.00000000000E+00  0.45593999997E+02  0.45594000000E+02  0.51100000000E-03 0.  1.
         11   -1    0    0    0    0 -0.00000000000E+00 -0.00000000000E+00 -0.45593999997E+02  0.45594000000E+02  0.51100000000E-03 0. -1.
    9900012    2    1    2    0    0 -0.14419027033E+02  0.11597604651E+02 -0.28748374295E+01  0.72461615819E+02  0.70000059305E+02 0.  0.
         12    1    1    2    0    0  0.14419027033E+02 -0.11597604651E+02  0.28748374295E+01  0.18726384181E+02  0.00000000000E+00 0. -1.
         11    1    3    3    0    0  0.24782473107E+01 -0.96691907766E+01 -0.10990959388E+02  0.14847092259E+02  0.51100000000E-03 0. -1.
        -11    1    3    3    0    0 -0.16075364660E+02 -0.14005859264E+02  0.65226397554E+01  0.22296328674E+02  0.51100000000E-03 0.  1.
        -12    1    3    3    0    0 -0.82190968397E+00  0.35272654692E+02  0.15934822031E+01  0.35318194887E+02  0.00000000000E+00 0.  1.
</event>
<event>
 7    1  0.1692604E-013  0.7246157E+02  0.7816164E-02  0.1226708E+00
        -11   -1    0    0    0    0  0.00000000000E+00  0.00000000000E+00  0.45593999997E+02  0.45594000000E+02  0.51100000000E-03 0.  1.
         11   -1    0    0    0    0 -0.00000000000E+00 -0.00000000000E+00 -0.45593999997E+02  0.45594000000E+02  0.51100000000E-03 0. -1.
    9900012    2    1    2    0    0  0.16770600932E+02 -0.65188390375E+01  0.51894942743E+01  0.72461570312E+02  0.70000000023E+02 0.  0.
         12    1    1    2    0    0 -0.16770600932E+02  0.65188390375E+01 -0.51894942743E+01  0.18726429688E+02  0.00000000000E+00 0. -1.
         11    1    3    3    0    0  0.93413721211E+01 -0.23572903467E+02 -0.21770170015E+01  0.25449605385E+02  0.51100000000E-03 0. -1.
        -11    1    3    3    0    0  0.19672914266E+02 -0.53134659812E+01  0.68803299624E+01  0.21508031456E+02  0.51100000000E-03 0.  1.
        -12    1    3    3    0    0 -0.12243685455E+02  0.22367530411E+02  0.48618131343E+00  0.25503933471E+02  0.00000000000E+00 0.  1.
</event>
<event>
 7    1  0.1692604E-013  0.7246152E+02  0.7816164E-02  0.1226708E+00
        -11   -1    0    0    0    0  0.00000000000E+00  0.00000000000E+00  0.45593999997E+02  0.45594000000E+02  0.51100000000E-03 0.  1.
         11   -1    0    0    0    0 -0.00000000000E+00 -0.00000000000E+00 -0.45593999997E+02  0.45594000000E+02  0.51100000000E-03 0. -1.
    9900012    2    1    2    0    0  0.60649759803E+01  0.15455870460E+02  0.86610047140E+01  0.72461524945E+02  0.69999940925E+02 0.  0.
         12    1    1    2    0    0 -0.60649759803E+01 -0.15455870460E+02 -0.86610047140E+01  0.18726475055E+02  0.00000000000E+00 0. -1.
         11    1    3    3    0    0 -0.15420093926E+01  0.10984078436E+02  0.17833270608E+01  0.11234234630E+02  0.51100000000E-03 0. -1.
        -11    1    3    3    0    0 -0.61245563504E+00  0.31019560903E+02  0.11433489109E+02  0.33065282912E+02  0.51100000000E-03 0.  1.
         12    1    3    3    0    0  0.82194410079E+01 -0.26547768880E+02 -0.45558114561E+01  0.28162007404E+02  0.00000000000E+00 0. -1.
</event>
<event>
 7    1  0.1692604E-013  0.7246153E+02  0.7816164E-02  0.1226708E+00
        -11   -1    0    0    0    0  0.00000000000E+00  0.00000000000E+00  0.45593999997E+02  0.45594000000E+02  0.51100000000E-03 0.  1.
         11   -1    0    0    0    0 -0.00000000000E+00 -0.00000000000E+00 -0.45593999997E+02  0.45594000000E+02  0.51100000000E-03 0. -1.
    9900012    2    1    2    0    0 -0.59201957058E+01  0.17550996627E+02 -0.27557918349E+01  0.72461532409E+02  0.69999950647E+02 0.  0.
         12    1    1    2    0    0  0.59201957058E+01 -0.17550996627E+02  0.27557918349E+01  0.18726467591E+02  0.00000000000E+00 0. -1.
         11    1    3    3    0    0  0.84984005138E+01  0.30884541829E+02 -0.23521943777E+02  0.39741157187E+02  0.51100000000E-03 0.  1.
        -11    1    3    3    0    0 -0.72040174156E+01  0.18591868999E+01  0.24016430686E+01  0.78180772920E+01  0.51100000000E-03 0. -1.
        -12    1    3    3    0    0 -0.72145788040E+01 -0.15192732102E+02  0.18364508873E+02  0.24902297930E+02  0.00000000000E+00 0.  1.
</event>
<event>
 7    1  0.1692604E-013  0.7246155E+02  0.7816164E-02  0.1226708E+00
        -11   -1    0    0    0    0  0.00000000000E+00  0.00000000000E+00  0.45593999997E+02  0.45594000000E+02  0.51100000000E-03 0.  1.
         11   -1    0    0    0    0 -0.00000000000E+00 -0.00000000000E+00 -0.45593999997E+02  0.45594000000E+02  0.51100000000E-03 0. -1.
    9900012    2    1    2    0    0 -0.48778124653E+01 -0.18077659617E+02  0.29196900927E+00  0.72461546049E+02  0.69999968416E+02 0.  0.
         12    1    1    2    0    0  0.48778124653E+01  0.18077659617E+02 -0.29196900927E+00  0.18726453951E+02  0.00000000000E+00 0. -1.
         11    1    3    3    0    0  0.70915507930E+01  0.15902408658E+02 -0.51865856273E+01  0.18168031388E+02  0.51100000000E-03 0. -1.
        -11    1    3    3    0    0  0.66020333394E+01  0.65898107196E+01 -0.92798152839E-01  0.93285079886E+01  0.51100000000E-03 0.  1.
         12    1    3    3    0    0 -0.18571396598E+02 -0.40569878994E+02  0.55713527894E+01  0.44965006673E+02  0.00000000000E+00 0. -1.
</event>
<event>
 7    1  0.1692604E-013  0.7246156E+02  0.7816164E-02  0.1226708E+00
        -11   -1    0    0    0    0  0.00000000000E+00  0.00000000000E+00  0.45593999997E+02  0.45594000000E+02  0.51100000000E-03 0. -1.
         11   -1    0    0    0    0 -0.00000000000E+00 -0.00000000000E+00 -0.45593999997E+02  0.45594000000E+02  0.51100000000E-03 0.  1.
    9900012    2    1    2    0    0 -0.25053292466E+01  0.31501765264E+00 -0.18555425005E+02  0.72461555921E+02  0.69999981276E+02 0.  0.
         12    1    1    2    0    0  0.25053292466E+01 -0.31501765264E+00  0.18555425005E+02  0.18726444079E+02  0.00000000000E+00 0. -1.
         11    1    3    3    0    0  0.13747748417E+02 -0.16175529445E+02  0.87586154576E+01  0.22964356825E+02  0.51100000000E-03 0. -1.
        -11    1    3    3    0    0  0.77213670208E+01 -0.44283420023E+01 -0.95556782423E+01  0.13059123573E+02  0.51100000000E-03 0.  1.
        -12    1    3    3    0    0 -0.23974444685E+02  0.20918889100E+02 -0.17758362220E+02  0.36438075523E+02  0.00000000000E+00 0.  1.
</event>
<event>
 7    1  0.1692604E-013  0.7246156E+02  0.7816164E-02  0.1226708E+00
        -11   -1    0    0    0    0  0.00000000000E+00  0.00000000000E+00  0.45593999997E+02  0.45594000000E+02  0.51100000000E-03 0.  1.
         11   -1    0    0    0    0 -0.00000000000E+00 -0.00000000000E+00 -0.45593999997E+02  0.45594000000E+02  0.51100000000E-03 0. -1.
    9900012    2    1    2    0    0 -0.73072743007E+01 -0.16470427338E+02  0.50998173967E+01  0.72461564891E+02  0.69999992961E+02 0.  0.
         12    1    1    2    0    0  0.73072743007E+01  0.16470427338E+02 -0.50998173967E+01  0.18726435109E+02  0.00000000000E+00 0. -1.
         11    1    3    3    0    0  0.10986547677E+02 -0.10158857151E+02  0.32922423211E+01  0.15321405557E+02  0.51100000000E-03 0. -1.
        -11    1    3    3    0    0  0.15169379238E+02 -0.14358863512E+02 -0.62301814242E+01  0.21796838960E+02  0.51100000000E-03 0.  1.
         12    1    3    3    0    0 -0.33463201216E+02  0.80472933252E+01  0.80377564997E+01  0.35343320373E+02  0.00000000000E+00 0. -1.
</event>
<event>
 7    1  0.1692604E-013  0.7246168E+02  0.7816164E-02  0.1226708E+00
        -11   -1    0    0    0    0  0.00000000000E+00  0.00000000000E+00  0.45593999997E+02  0.45594000000E+02  0.51100000000E-03 0.  1.
         11   -1    0    0    0    0 -0.00000000000E+00 -0.00000000000E+00 -0.45593999997E+02  0.45594000000E+02  0.51100000000E-03 0. -1.
    9900012    2    1    2    0    0  0.14902740069E+02 -0.94680649990E+01  0.62401192161E+01  0.72461681509E+02  0.70000144878E+02 0.  0.
         12    1    1    2    0    0 -0.14902740069E+02  0.94680649990E+01 -0.62401192161E+01  0.18726318491E+02  0.00000000000E+00 0. -1.
         11    1    3    3    0    0  0.18568455005E+02 -0.84948478008E+01 -0.21009559812E+02  0.29297637519E+02  0.51100000000E-03 0. -1.
        -11    1    3    3    0    0  0.45663606018E+01 -0.15769994281E+01 -0.66805269013E+01  0.82442717254E+01  0.51100000000E-03 0.  1.
        -12    1    3    3    0    0 -0.82320755383E+01  0.60378222986E+00  0.33930205929E+02  0.34919772265E+02  0.00000000000E+00 0.  1.
</event>
<event>
 7    1  0.1692604E-013  0.7246141E+02  0.7816164E-02  0.1226708E+00
        -11   -1    0    0    0    0  0.00000000000E+00  0.00000000000E+00  0.45593999997E+02  0.45594000000E+02  0.51100000000E-03 0.  1.
         11   -1    0    0    0    0 -0.00000000000E+00 -0.00000000000E+00 -0.45593999997E+02  0.45594000000E+02  0.51100000000E-03 0. -1.
    9900012    2    1    2    0    0 -0.72444768125E+01 -0.16221270503E+02 -0.59222567948E+01  0.72461409639E+02  0.69999790716E+02 0.  0.
         12    1    1    2    0    0  0.72444768125E+01  0.16221270503E+02  0.59222567948E+01  0.18726590361E+02  0.00000000000E+00 0. -1.
         11    1    3    3    0    0 -0.27558735092E+02  0.29473681527E+01  0.18754478439E+02  0.33464926725E+02  0.51100000000E-03 0. -1.
        -11    1    3    3    0    0 -0.16889868005E+00 -0.29149523854E+00  0.10351573415E+01  0.10885987420E+01  0.51100000000E-03 0.  1.
         12    1    3    3    0    0  0.20483156960E+02 -0.18877143417E+02 -0.25711892575E+02  0.37907884172E+02  0.00000000000E+00 0. -1.
</event>
<event>
 7    1  0.1692604E-013  0.7246176E+02  0.7816164E-02  0.1226708E+00
        -11   -1    0    0    0    0  0.00000000000E+00  0.00000000000E+00  0.45593999997E+02  0.45594000000E+02  0.51100000000E-03 0. -1.
         11   -1    0    0    0    0 -0.00000000000E+00 -0.00000000000E+00 -0.45593999997E+02  0.45594000000E+02  0.51100000000E-03 0.  1.
    9900012    2    1    2    0    0  0.92476251021E+01 -0.11461108769E+02 -0.11567041680E+02  0.72461760723E+02  0.70000248068E+02 0.  0.
         12    1    1    2    0    0 -0.92476251021E+01  0.11461108769E+02  0.11567041680E+02  0.18726239277E+02  0.00000000000E+00 0. -1.
         11    1    3    3    0    0 -0.16712890094E+01 -0.30320400885E+02 -0.19268627888E+01  0.30427499359E+02  0.51100000000E-03 0. -1.
        -11    1    3    3    0    0 -0.12583272041E+02  0.71177583155E+01 -0.53460040055E+01  0.15413662049E+02  0.51100000000E-03 0.  1.
        -12    1    3    3    0    0  0.23502186152E+02  0.11741533800E+02 -0.42941748854E+01  0.26620599314E+02  0.00000000000E+00 0.  1.
</event>
<event>
 7    1  0.1692604E-013  0.7246157E+02  0.7816164E-02  0.1226708E+00
        -11   -1    0    0    0    0  0.00000000000E+00  0.00000000000E+00  0.45593999997E+02  0.45594000000E+02  0.51100000000E-03 0.  1.
         11   -1    0    0    0    0 -0.00000000000E+00 -0.00000000000E+00 -0.45593999997E+02  0.45594000000E+02  0.51100000000E-03 0. -1.
    9900012    2    1    2    0    0  0.55968328747E+01  0.17281372294E+02  0.45507078225E+01  0.72461566590E+02  0.69999995174E+02 0.  0.
         12    1    1    2    0    0 -0.55968328747E+01 -0.17281372294E+02 -0.45507078225E+01  0.18726433410E+02  0.00000000000E+00 0. -1.
         11    1    3    3    0    0  0.38972167742E+01  0.16150748132E+02 -0.14719429875E+01  0.16679375894E+02  0.51100000000E-03 0. -1.
        -11    1    3    3    0    0  0.29675134258E+01  0.22839218261E+02  0.19518093731E+02  0.30189269780E+02  0.51100000000E-03 0.  1.
         12    1    3    3    0    0 -0.12678973253E+01 -0.21708594099E+02 -0.13495442921E+02  0.25592920916E+02  0.00000000000E+00 0. -1.
</event>
<event>
 7    1  0.1692604E-013  0.7246156E+02  0.7816164E-02  0.1226708E+00
        -11   -1    0    0    0    0  0.00000000000E+00  0.00000000000E+00  0.45593999997E+02  0.45594000000E+02  0.51100000000E-03 0.  1.
         11   -1    0    0    0    0 -0.00000000000E+00 -0.00000000000E+00 -0.45593999997E+02  0.45594000000E+02  0.51100000000E-03 0. -1.
    9900012    2    1    2    0    0 -0.98568951641E+01 -0.13770462167E+02  0.79934748760E+01  0.72461557434E+02  0.69999983248E+02 0.  0.
         12    1    1    2    0    0  0.98568951641E+01  0.13770462167E+02 -0.79934748760E+01  0.18726442566E+02  0.00000000000E+00 0. -1.
         11    1    3    3    0    0 -0.97532085086E+01 -0.42345828137E+01 -0.10030335295E+02  0.14617263568E+02  0.51100000000E-03 0. -1.
        -11    1    3    3    0    0 -0.67694785528E+00 -0.10581492841E+02 -0.18488154357E+02  0.21312862336E+02  0.51100000000E-03 0.  1.
        -12    1    3    3    0    0  0.57326119970E+00  0.10456134878E+01  0.36511964528E+02  0.36531431531E+02  0.00000000000E+00 0.  1.
</event>
<event>
 7    1  0.1692604E-013  0.7246159E+02  0.7816164E-02  0.1226708E+00
        -11   -1    0    0    0    0  0.00000000000E+00  0.00000000000E+00  0.45593999997E+02  0.45594000000E+02  0.51100000000E-03 0. -1.
         11   -1    0    0    0    0 -0.00000000000E+00 -0.00000000000E+00 -0.45593999997E+02  0.45594000000E+02  0.51100000000E-03 0.  1.
    9900012    2    1    2    0    0  0.71687028410E+01  0.16694075856E+02 -0.45382880991E+01  0.72461587424E+02  0.70000022315E+02 0.  0.
         12    1    1    2    0    0 -0.71687028410E+01 -0.16694075856E+02  0.45382880991E+01  0.18726412576E+02  0.00000000000E+00 0. -1.
         11    1    3    3    0    0  0.31133871235E+01 -0.22618531808E+02  0.17364975375E+00  0.22832461870E+02  0.51100000000E-03 0. -1.
        -11    1    3    3    0    0  0.22716468327E+01 -0.47055495619E+01 -0.16018152878E+01  0.54651979369E+01  0.51100000000E-03 0.  1.
        -12    1    3    3    0    0  0.17836688848E+01  0.44018157226E+02 -0.31101225651E+01  0.44163927617E+02  0.00000000000E+00 0.  1.
</event>
<event>
 7    1  0.1692604E-013  0.7246153E+02  0.7816164E-02  0.1226708E+00
        -11   -1    0    0    0    0  0.00000000000E+00  0.00000000000E+00  0.45593999997E+02  0.45594000000E+02  0.51100000000E-03 0.  1.
         11   -1    0    0    0    0 -0.00000000000E+00 -0.00000000000E+00 -0.45593999997E+02  0.45594000000E+02  0.51100000000E-03 0. -1.
    9900012    2    1    2    0    0 -0.37225949869E+01  0.18083472960E+02  0.31322368944E+01  0.72461531681E+02  0.69999949699E+02 0.  0.
         12    1    1    2    0    0  0.37225949869E+01 -0.18083472960E+02 -0.31322368944E+01  0.18726468319E+02  0.00000000000E+00 0. -1.
         11    1    3    3    0    0  0.60728975520E+01 -0.41317420025E+00  0.83602389187E+01  0.10341392200E+02  0.51100000000E-03 0. -1.
        -11    1    3    3    0    0  0.31055297521E+01 -0.10764303024E+02  0.18960948907E+02  0.22023444742E+02  0.51100000000E-03 0.  1.
         12    1    3    3    0    0 -0.12901022291E+02  0.29260950184E+02 -0.24188950931E+02  0.40096694739E+02  0.00000000000E+00 0. -1.
</event>
<event>
 7    1  0.1692604E-013  0.7246158E+02  0.7816164E-02  0.1226708E+00
        -11   -1    0    0    0    0  0.00000000000E+00  0.00000000000E+00  0.45593999997E+02  0.45594000000E+02  0.51100000000E-03 0. -1.
         11   -1    0    0    0    0 -0.00000000000E+00 -0.00000000000E+00 -0.45593999997E+02  0.45594000000E+02  0.51100000000E-03 0.  1.
    9900012    2    1    2    0    0  0.17139258517E+02  0.72110688372E+01  0.22192255060E+01  0.72461583948E+02  0.70000017787E+02 0.  0.
         12    1    1    2    0    0 -0.17139258517E+02 -0.72110688372E+01 -0.22192255060E+01  0.18726416052E+02  0.00000000000E+00 0. -1.
         11    1    3    3    0    0  0.86893921212E+01  0.32273812113E+02  0.16471902444E+02  0.37261616365E+02  0.51100000000E-03 0. -1.
        -11    1    3    3    0    0 -0.18300994331E+01  0.17917481659E+01 -0.38442763656E+01  0.46193166661E+01  0.51100000000E-03 0.  1.
        -12    1    3    3    0    0  0.10279965829E+02 -0.26854491442E+02 -0.10408400573E+02  0.30580650917E+02  0.00000000000E+00 0.  1.
</event>
<event>
 7    1  0.1692604E-013  0.7246155E+02  0.7816164E-02  0.1226708E+00
        -11   -1    0    0    0    0  0.00000000000E+00  0.00000000000E+00  0.45593999997E+02  0.45594000000E+02  0.51100000000E-03 0.  1.
         11   -1    0    0    0    0 -0.00000000000E+00 -0.00000000000E+00 -0.45593999997E+02  0.45594000000E+02  0.51100000000E-03 0. -1.
    9900012    2    1    2    0    0  0.64294706521E+01  0.13143168354E+02  0.11687563385E+02  0.72461545313E+02  0.69999967458E+02 0.  0.
         12    1    1    2    0    0 -0.64294706521E+01 -0.13143168354E+02 -0.11687563385E+02  0.18726454687E+02  0.00000000000E+00 0. -1.
         11    1    3    3    0    0  0.11200702288E+02 -0.86936483860E+01 -0.78649759013E+01  0.16213978543E+02  0.51100000000E-03 0. -1.
        -11    1    3    3    0    0  0.11664646647E+02 -0.10596084586E+02  0.99644504858E+01  0.18644872316E+02  0.51100000000E-03 0.  1.
        -12    1    3    3    0    0 -0.16435878283E+02  0.32432901326E+02  0.95880888006E+01  0.37602694454E+02  0.00000000000E+00 0.  1.
</event>
<event>
 7    1  0.1692604E-013  0.7246151E+02  0.7816164E-02  0.1226708E+00
        -11   -1    0    0    0    0  0.00000000000E+00  0.00000000000E+00  0.45593999997E+02  0.45594000000E+02  0.51100000000E-03 0.  1.
         11   -1    0    0    0    0 -0.00000000000E+00 -0.00000000000E+00 -0.45593999997E+02  0.45594000000E+02  0.51100000000E-03 0. -1.
    9900012    2    1    2    0    0 -0.42748178739E+00  0.32172945358E+01  0.18443097218E+02  0.72461506473E+02  0.69999916861E+02 0.  0.
         12    1    1    2    0    0  0.42748178739E+00 -0.32172945358E+01 -0.18443097218E+02  0.18726493527E+02  0.00000000000E+00 0. -1.
         11    1    3    3    0    0 -0.16258867349E+02 -0.13527488630E+02 -0.17621224196E+02  0.27529098396E+02  0.51100000000E-03 0. -1.
        -11    1    3    3    0    0  0.63986572084E+01  0.25685950479E+01  0.25700198692E+01  0.73583623844E+01  0.51100000000E-03 0.  1.
        -12    1    3    3    0    0  0.94327283533E+01  0.14176188118E+02  0.33494301544E+02  0.37574045692E+02  0.00000000000E+00 0.  1.
</event>
<event>
 7    1  0.1692604E-013  0.7246158E+02  0.7816164E-02  0.1226708E+00
        -11   -1    0    0    0    0  0.00000000000E+00  0.00000000000E+00  0.45593999997E+02  0.45594000000E+02  0.51100000000E-03 0.  1.
         11   -1    0    0    0    0 -0.00000000000E+00 -0.00000000000E+00 -0.45593999997E+02  0.45594000000E+02  0.51100000000E-03 0. -1.
    9900012    2    1    2    0    0 -0.38094038198E+01 -0.79877785224E+01  0.16503418317E+02  0.72461575372E+02  0.70000006615E+02 0.  0.
         12    1    1    2    0    0  0.38094038198E+01  0.79877785224E+01 -0.16503418317E+02  0.18726424628E+02  0.00000000000E+00 0. -1.
         11    1    3    3    0    0  0.91466478356E+01  0.25477215446E+01  0.16633092227E+02  0.19152331685E+02  0.51100000000E-03 0. -1.
        -11    1    3    3    0    0  0.17614988471E+00 -0.22157646049E+02  0.17655729892E+02  0.28332262626E+02  0.51100000000E-03 0.  1.
         12    1    3    3    0    0 -0.13132201540E+02  0.11622145982E+02 -0.17785403802E+02  0.24976981061E+02  0.00000000000E+00 0. -1.
</event>
<event>
 7    1  0.1692604E-013  0.7246157E+02  0.7816164E-02  0.1226708E+00
        -11   -1    0    0    0    0  0.00000000000E+00  0.00000000000E+00  0.45593999997E+02  0.45594000000E+02  0.51100000000E-03 0.  1.
         11   -1    0    0    0    0 -0.00000000000E+00 -0.00000000000E+00 -0.45593999997E+02  0.45594000000E+02  0.51100000000E-03 0. -1.
    9900012    2    1    2    0    0  0.15132814064E+02 -0.34028390999E+00  0.11025493611E+02  0.72461565101E+02  0.69999993235E+02 0.  0.
         12    1    1    2    0    0 -0.15132814064E+02  0.34028390999E+00 -0.11025493611E+02  0.18726434899E+02  0.00000000000E+00 0. -1.
         11    1    3    3    0    0  0.51475401564E+01  0.13744014742E+02 -0.10112717385E+02  0.17823079534E+02  0.51100000000E-03 0. -1.
        -11    1    3    3    0    0  0.24841912745E+02  0.57301704923E+01  0.12637987998E+02  0.28454775058E+02  0.51100000000E-03 0.  1.
        -12    1    3    3    0    0 -0.14856638837E+02 -0.19814469145E+02  0.85002229991E+01  0.26183710510E+02  0.00000000000E+00 0.  1.
</event>
<event>
 7    1  0.1692604E-013  0.7246152E+02  0.7816164E-02  0.1226708E+00
        -11   -1    0    0    0    0  0.00000000000E+00  0.00000000000E+00  0.45593999997E+02  0.45594000000E+02  0.51100000000E-03 0.  1.
         11   -1    0    0    0    0 -0.00000000000E+00 -0.00000000000E+00 -0.45593999997E+02  0.45594000000E+02  0.51100000000E-03 0. -1.
    9900012    2    1    2    0    0  0.78911710407E+01  0.54079413840E+01  0.16098592395E+02  0.72461519084E+02  0.69999933289E+02 0.  0.
         12    1    1    2    0    0 -0.78911710407E+01 -0.54079413840E+01 -0.16098592395E+02  0.18726480916E+02  0.00000000000E+00 0. -1.
         11    1    3    3    0    0 -0.13462291314E+02 -0.13444027642E+02 -0.61695867439E+01  0.20000974164E+02  0.51100000000E-03 0. -1.
        -11    1    3    3    0    0 -0.72243525266E+01  0.11091288780E+02  0.18296572336E+02  0.22582571061E+02  0.51100000000E-03 0.  1.
        -12    1    3    3    0    0  0.28577814881E+02  0.77606802461E+01  0.39716068026E+01  0.29877973858E+02  0.00000000000E+00 0.  1.
</event>
<event>
 7    1  0.1692604E-013  0.7246136E+02  0.7816164E-02  0.1226709E+00
        -11   -1    0    0    0    0  0.00000000000E+00  0.00000000000E+00  0.45593999997E+02  0.45594000000E+02  0.51100000000E-03 0.  1.
         11   -1    0    0    0    0 -0.00000000000E+00 -0.00000000000E+00 -0.45593999997E+02  0.45594000000E+02  0.51100000000E-03 0. -1.
    9900012    2    1    2    0    0 -0.63070809545E+01 -0.15750058498E+02  0.79273911246E+01  0.72461357404E+02  0.69999722671E+02 0.  0.
         12    1    1    2    0    0  0.63070809545E+01  0.15750058498E+02 -0.79273911246E+01  0.18726642596E+02  0.00000000000E+00 0. -1.
         11    1    3    3    0    0  0.18534491536E+01 -0.17313548185E+01  0.87890698388E+01  0.91477107609E+01  0.51100000000E-03 0. -1.
        -11    1    3    3    0    0 -0.77686925029E+01 -0.37398689241E+02 -0.76697180942E+01  0.38959454771E+02  0.51100000000E-03 0.  1.
         12    1    3    3    0    0 -0.39183760514E+00  0.23379985561E+02  0.68080393800E+01  0.24354191872E+02  0.00000000000E+00 0. -1.
</event>
<event>
 7    1  0.1692604E-013  0.7246157E+02  0.7816164E-02  0.1226708E+00
        -11   -1    0    0    0    0  0.00000000000E+00  0.00000000000E+00  0.45593999997E+02  0.45594000000E+02  0.51100000000E-03 0. -1.
         11   -1    0    0    0    0 -0.00000000000E+00 -0.00000000000E+00 -0.45593999997E+02  0.45594000000E+02  0.51100000000E-03 0.  1.
    9900012    2    1    2    0    0  0.32809986923E+01 -0.14516972585E+02 -0.11365380420E+02  0.72461566342E+02  0.69999994852E+02 0.  0.
         12    1    1    2    0    0 -0.32809986923E+01  0.14516972585E+02  0.11365380420E+02  0.18726433658E+02  0.00000000000E+00 0. -1.
         11    1    3    3    0    0 -0.91972345355E+01 -0.14162815112E+02  0.47712194227E+01  0.17548190506E+02  0.51100000000E-03 0. -1.
        -11    1    3    3    0    0  0.24459498306E+02 -0.18496854919E+02 -0.79341213696E+01  0.31675715958E+02  0.51100000000E-03 0.  1.
         12    1    3    3    0    0 -0.11981265079E+02  0.18142697446E+02 -0.82024784728E+01  0.23237659878E+02  0.00000000000E+00 0. -1.
</event>
<event>
 7    1  0.1692604E-013  0.7246156E+02  0.7816164E-02  0.1226708E+00
        -11   -1    0    0    0    0  0.00000000000E+00  0.00000000000E+00  0.45593999997E+02  0.45594000000E+02  0.51100000000E-03 0.  1.
         11   -1    0    0    0    0 -0.00000000000E+00 -0.00000000000E+00 -0.45593999997E+02  0.45594000000E+02  0.51100000000E-03 0. -1.
    9900012    2    1    2    0    0  0.10723084450E+02 -0.13318838432E+02  0.76356735310E+01  0.72461561268E+02  0.69999988242E+02 0.  0.
         12    1    1    2    0    0 -0.10723084450E+02  0.13318838432E+02 -0.76356735310E+01  0.18726438732E+02  0.00000000000E+00 0. -1.
         11    1    3    3    0    0  0.17579804750E+02  0.27590076042E+01 -0.14880895464E+02  0.23197040934E+02  0.51100000000E-03 0. -1.
        -11    1    3    3    0    0  0.79228729029E+01  0.10438125027E+02  0.39789274735E+01  0.13695190149E+02  0.51100000000E-03 0.  1.
         12    1    3    3    0    0 -0.14779593202E+02 -0.26515971063E+02  0.18537641522E+02  0.35569330185E+02  0.00000000000E+00 0. -1.
</event>
<event>
 7    1  0.1692604E-013  0.7246158E+02  0.7816164E-02  0.1226708E+00
        -11   -1    0    0    0    0  0.00000000000E+00  0.00000000000E+00  0.45593999997E+02  0.45594000000E+02  0.51100000000E-03 0.  1.
         11   -1    0    0    0    0 -0.00000000000E+00 -0.00000000000E+00 -0.45593999997E+02  0.45594000000E+02  0.51100000000E-03 0. -1.
    9900012    2    1    2    0    0  0.12701172054E+02 -0.20941120863E+01  0.13600509078E+02  0.72461576846E+02  0.70000008535E+02 0.  0.
         12    1    1    2    0    0 -0.12701172054E+02  0.20941120863E+01 -0.13600509078E+02  0.18726423154E+02  0.00000000000E+00 0. -1.
         11    1    3    3    0    0 -0.13831936359E+02  0.33922237768E+01 -0.13313061277E+02  0.19495313448E+02  0.51100000000E-03 0. -1.
        -11    1    3    3    0    0 -0.10009999995E+01  0.70980987660E+01  0.20907943425E+02  0.22102649290E+02  0.51100000000E-03 0.  1.
         12    1    3    3    0    0  0.27534108413E+02 -0.12584434629E+02  0.60056269300E+01  0.30863614108E+02  0.00000000000E+00 0. -1.
</event>
<event>
 7    1  0.1692604E-013  0.7246159E+02  0.7816164E-02  0.1226708E+00
        -11   -1    0    0    0    0  0.00000000000E+00  0.00000000000E+00  0.45593999997E+02  0.45594000000E+02  0.51100000000E-03 0.  1.
         11   -1    0    0    0    0 -0.00000000000E+00 -0.00000000000E+00 -0.45593999997E+02  0.45594000000E+02  0.51100000000E-03 0. -1.
    9900012    2    1    2    0    0 -0.17831927257E+02  0.52338454325E+00  0.56944662035E+01  0.72461588000E+02  0.70000023064E+02 0.  0.
         12    1    1    2    0    0  0.17831927257E+02 -0.52338454325E+00 -0.56944662035E+01  0.18726412000E+02  0.00000000000E+00 0. -1.
         11    1    3    3    0    0 -0.29529643266E+02  0.12667503782E+02 -0.12261646507E+02  0.34392055170E+02  0.51100000000E-03 0. -1.
        -11    1    3    3    0    0 -0.86339919738E+01  0.81515149445E+00  0.13098596792E+01  0.87707480869E+01  0.51100000000E-03 0.  1.
        -12    1    3    3    0    0  0.20331707983E+02 -0.12959270733E+02  0.16646253031E+02  0.29298784743E+02  0.00000000000E+00 0.  1.
</event>
<event>
 7    1  0.1692604E-013  0.7246152E+02  0.7816164E-02  0.1226708E+00
        -11   -1    0    0    0    0  0.00000000000E+00  0.00000000000E+00  0.45593999997E+02  0.45594000000E+02  0.51100000000E-03 0. -1.
         11   -1    0    0    0    0 -0.00000000000E+00 -0.00000000000E+00 -0.45593999997E+02  0.45594000000E+02  0.51100000000E-03 0.  1.
    9900012    2    1    2    0    0 -0.15135008809E+02  0.31545819099E+01 -0.10566989273E+02  0.72461517656E+02  0.69999931429E+02 0.  0.
         12    1    1    2    0    0  0.15135008809E+02 -0.31545819099E+01  0.10566989273E+02  0.18726482344E+02  0.00000000000E+00 0. -1.
         11    1    3    3    0    0  0.14007074516E+02  0.18010124497E+02  0.37023072367E+01  0.23114276974E+02  0.51100000000E-03 0. -1.
        -11    1    3    3    0    0  0.62269790243E+01  0.37111913933E+01 -0.29693050477E+01  0.78335804109E+01  0.51100000000E-03 0.  1.
        -12    1    3    3    0    0 -0.35369062349E+02 -0.18566733980E+02 -0.11299991462E+02  0.41513660272E+02  0.00000000000E+00 0.  1.
</event>
<event>
 7    1  0.1692604E-013  0.7246156E+02  0.7816164E-02  0.1226708E+00
        -11   -1    0    0    0    0  0.00000000000E+00  0.00000000000E+00  0.45593999997E+02  0.45594000000E+02  0.51100000000E-03 0. -1.
         11   -1    0    0    0    0 -0.00000000000E+00 -0.00000000000E+00 -0.45593999997E+02  0.45594000000E+02  0.51100000000E-03 0.  1.
    9900012    2    1    2    0    0 -0.14370938700E+02  0.11742715231E+02  0.25028694094E+01  0.72461558924E+02  0.69999985187E+02 0.  0.
         12    1    1    2    0    0  0.14370938700E+02 -0.11742715231E+02 -0.25028694094E+01  0.18726441076E+02  0.00000000000E+00 0. -1.
         11    1    3    3    0    0  0.85715845537E+01 -0.12250669987E+02  0.76116046195E+00  0.14970983348E+02  0.51100000000E-03 0. -1.
        -11    1    3    3    0    0 -0.42953633222E+00 -0.13323190051E+02 -0.29637997464E+01  0.13655621692E+02  0.51100000000E-03 0.  1.
        -12    1    3    3    0    0 -0.22512986922E+02  0.37316575269E+02  0.47055086939E+01  0.43834953884E+02  0.00000000000E+00 0.  1.
</event>
<event>
 7    1  0.1692604E-013  0.7246159E+02  0.7816164E-02  0.1226708E+00
        -11   -1    0    0    0    0  0.00000000000E+00  0.00000000000E+00  0.45593999997E+02  0.45594000000E+02  0.51100000000E-03 0. -1.
         11   -1    0    0    0    0 -0.00000000000E+00 -0.00000000000E+00 -0.45593999997E+02  0.45594000000E+02  0.51100000000E-03 0.  1.
    9900012    2    1    2    0    0  0.12406430689E+02 -0.13225008882E+02  0.46752731909E+01  0.72461586521E+02  0.70000021138E+02 0.  0.
         12    1    1    2    0    0 -0.12406430689E+02  0.13225008882E+02 -0.46752731909E+01  0.18726413479E+02  0.00000000000E+00 0. -1.
         11    1    3    3    0    0 -0.46563957097E+00  0.22415684034E+02  0.35856441303E+01  0.22705430078E+02  0.51100000000E-03 0. -1.
        -11    1    3    3    0    0 -0.31057018509E+01  0.49576513638E+01  0.18010526315E+01  0.61210686873E+01  0.51100000000E-03 0.  1.
        -12    1    3    3    0    0  0.15977772111E+02 -0.40598344281E+02 -0.71142357086E+00  0.43635087756E+02  0.00000000000E+00 0.  1.
</event>
<event>
 7    1  0.1692604E-013  0.7246154E+02  0.7816164E-02  0.1226708E+00
        -11   -1    0    0    0    0  0.00000000000E+00  0.00000000000E+00  0.45593999997E+02  0.45594000000E+02  0.51100000000E-03 0.  1.
         11   -1    0    0    0    0 -0.00000000000E+00 -0.00000000000E+00 -0.45593999997E+02  0.45594000000E+02  0.51100000000E-03 0. -1.
    9900012    2    1    2    0    0  0.11482792913E+02 -0.11703765372E+02 -0.90469648157E+01  0.72461541997E+02  0.69999963137E+02 0.  0.
         12    1    1    2    0    0 -0.11482792913E+02  0.11703765372E+02  0.90469648157E+01  0.18726458003E+02  0.00000000000E+00 0. -1.
         11    1    3    3    0    0 -0.82613690850E+01  0.85806650394E+01  0.56931868401E+01  0.13201909269E+02  0.51100000000E-03 0. -1.
        -11    1    3    3    0    0  0.30185489206E+02  0.31143295839E+01 -0.14139279790E+01  0.30378643814E+02  0.51100000000E-03 0.  1.
        -12    1    3    3    0    0 -0.10441327208E+02 -0.23398759995E+02 -0.13326223677E+02  0.28880988914E+02  0.00000000000E+00 0.  1.
</event>
<event>
 7    1  0.1692604E-013  0.7246130E+02  0.7816164E-02  0.1226709E+00
        -11   -1    0    0    0    0  0.00000000000E+00  0.00000000000E+00  0.45593999997E+02  0.45594000000E+02  0.51100000000E-03 0. -1.
         11   -1    0    0    0    0 -0.00000000000E+00 -0.00000000000E+00 -0.45593999997E+02  0.45594000000E+02  0.51100000000E-03 0.  1.
    9900012    2    1    2    0    0  0.27113863614E+01 -0.71718098699E+01 -0.17085162197E+02  0.72461301410E+02  0.69999649727E+02 0.  0.
         12    1    1    2    0    0 -0.27113863614E+01  0.71718098699E+01  0.17085162197E+02  0.18726698590E+02  0.00000000000E+00 0. -1.
         11    1    3    3    0    0  0.91203092278E+01  0.77218118678E+01  0.17151674531E+02  0.20904218675E+02  0.51100000000E-03 0. -1.
        -11    1    3    3    0    0  0.20431179487E+01 -0.21134466881E+02 -0.69887208362E+01  0.22353573327E+02  0.51100000000E-03 0.  1.
         12    1    3    3    0    0 -0.84520408151E+01  0.62408451436E+01 -0.27248115892E+02  0.29203509407E+02  0.00000000000E+00 0. -1.
</event>
<event>
 7    1  0.2181618E-013  0.7246158E+02  0.7816164E-02  0.1226708E+00
        -11   -1    0    0    0    0  0.00000000000E+00  0.00000000000E+00  0.45593999997E+02  0.45594000000E+02  0.51100000000E-03 0. -1.
         11   -1    0    0    0    0 -0.00000000000E+00 -0.00000000000E+00 -0.45593999997E+02  0.45594000000E+02  0.51100000000E-03 0.  1.
    9900012    2    1    2    0    0  0.14890865441E+02  0.71956778111E+01 -0.87842514827E+01  0.72461582113E+02  0.70000015397E+02 0.  0.
         12    1    1    2    0    0 -0.14890865441E+02 -0.71956778111E+01  0.87842514827E+01  0.18726417887E+02  0.00000000000E+00 0. -1.
         11    1    3    3    0    0 -0.53153491652E+01  0.69933290651E+00  0.22556469061E+02  0.23184829092E+02  0.51100000000E-03 0. -1.
        -11    1    3    3    0    0  0.84398486982E+00  0.11940530441E+02  0.79260620369E-01  0.11970583117E+02  0.51100000000E-03 0.  1.
        -12    1    3    3    0    0  0.19362229737E+02 -0.54441855360E+01 -0.31419981164E+02  0.37306169904E+02  0.00000000000E+00 0.  1.
</event>
<event>
 7    1  0.1692604E-013  0.7246207E+02  0.7816164E-02  0.1226707E+00
        -11   -1    0    0    0    0  0.00000000000E+00  0.00000000000E+00  0.45593999997E+02  0.45594000000E+02  0.51100000000E-03 0. -1.
         11   -1    0    0    0    0 -0.00000000000E+00 -0.00000000000E+00 -0.45593999997E+02  0.45594000000E+02  0.51100000000E-03 0.  1.
    9900012    2    1    2    0    0  0.13314857325E+02 -0.11824273979E+02 -0.57932277161E+01  0.72462072303E+02  0.70000653957E+02 0.  0.
         12    1    1    2    0    0 -0.13314857325E+02  0.11824273979E+02  0.57932277161E+01  0.18725927697E+02  0.00000000000E+00 0. -1.
         11    1    3    3    0    0 -0.11067657677E+02  0.96563315018E+01 -0.25272153172E+01  0.14903845210E+02  0.51100000000E-03 0. -1.
        -11    1    3    3    0    0 -0.87901160281E+01 -0.36796283029E+00 -0.14236173945E+02  0.16735297586E+02  0.51100000000E-03 0.  1.
         12    1    3    3    0    0  0.33172631031E+02 -0.21112642651E+02  0.10970161546E+02  0.40822929507E+02  0.00000000000E+00 0. -1.
</event>
<event>
 7    1  0.1692604E-013  0.7246145E+02  0.7816164E-02  0.1226708E+00
        -11   -1    0    0    0    0  0.00000000000E+00  0.00000000000E+00  0.45593999997E+02  0.45594000000E+02  0.51100000000E-03 0. -1.
         11   -1    0    0    0    0 -0.00000000000E+00 -0.00000000000E+00 -0.45593999997E+02  0.45594000000E+02  0.51100000000E-03 0.  1.
    9900012    2    1    2    0    0  0.13075794298E+02  0.11294567774E+02 -0.72208115094E+01  0.72461447285E+02  0.69999839757E+02 0.  0.
         12    1    1    2    0    0 -0.13075794298E+02 -0.11294567774E+02  0.72208115094E+01  0.18726552715E+02  0.00000000000E+00 0. -1.
         11    1    3    3    0    0 -0.54396247848E+01  0.12361749824E+02 -0.24618598754E+01  0.13728187456E+02  0.51100000000E-03 0.  1.
        -11    1    3    3    0    0  0.30967753613E+02 -0.18925964263E+02 -0.65835975695E+01  0.36885466573E+02  0.51100000000E-03 0. -1.
         12    1    3    3    0    0 -0.12452334530E+02  0.17858782213E+02  0.18246459356E+01  0.21847793256E+02  0.00000000000E+00 0. -1.
</event>
<event>
 7    1  0.1692604E-013  0.7246160E+02  0.7816164E-02  0.1226708E+00
        -11   -1    0    0    0    0  0.00000000000E+00  0.00000000000E+00  0.45593999997E+02  0.45594000000E+02  0.51100000000E-03 0.  1.
         11   -1    0    0    0    0 -0.00000000000E+00 -0.00000000000E+00 -0.45593999997E+02  0.45594000000E+02  0.51100000000E-03 0. -1.
    9900012    2    1    2    0    0 -0.66374844680E+01  0.58968211064E+01  0.16487857278E+02  0.72461597867E+02  0.70000035918E+02 0.  0.
         12    1    1    2    0    0  0.66374844680E+01 -0.58968211064E+01 -0.16487857278E+02  0.18726402133E+02  0.00000000000E+00 0. -1.
         11    1    3    3    0    0 -0.12408732581E+02 -0.10550147533E+01  0.22143057092E+01  0.12648828026E+02  0.51100000000E-03 0. -1.
        -11    1    3    3    0    0 -0.19852722635E+02 -0.13593250724E+02  0.14895385346E+00  0.24060948626E+02  0.51100000000E-03 0.  1.
        -12    1    3    3    0    0  0.25623970747E+02  0.20545086584E+02  0.14124597716E+02  0.35751821215E+02  0.00000000000E+00 0.  1.
</event>
<event>
 7    1  0.1692604E-013  0.7246154E+02  0.7816164E-02  0.1226708E+00
        -11   -1    0    0    0    0  0.00000000000E+00  0.00000000000E+00  0.45593999997E+02  0.45594000000E+02  0.51100000000E-03 0.  1.
         11   -1    0    0    0    0 -0.00000000000E+00 -0.00000000000E+00 -0.45593999997E+02  0.45594000000E+02  0.51100000000E-03 0. -1.
    9900012    2    1    2    0    0  0.89068796555E+01 -0.16059077206E+00  0.16471852779E+02  0.72461542018E+02  0.69999963164E+02 0.  0.
         12    1    1    2    0    0 -0.89068796555E+01  0.16059077206E+00 -0.16471852779E+02  0.18726457982E+02  0.00000000000E+00 0. -1.
         11    1    3    3    0    0 -0.85245247821E+01 -0.72271705404E+00  0.28954566760E+01  0.90318055961E+01  0.51100000000E-03 0. -1.
        -11    1    3    3    0    0 -0.82833666533E+01  0.30574620824E+00  0.31181723364E+02  0.32264648086E+02  0.51100000000E-03 0.  1.
         12    1    3    3    0    0  0.25714771091E+02  0.25638007375E+00 -0.17605327261E+02  0.31165088336E+02  0.00000000000E+00 0. -1.
</event>
<event>
 7    1  0.1692604E-013  0.7246165E+02  0.7816164E-02  0.1226708E+00
        -11   -1    0    0    0    0  0.00000000000E+00  0.00000000000E+00  0.45593999997E+02  0.45594000000E+02  0.51100000000E-03 0.  1.
         11   -1    0    0    0    0 -0.00000000000E+00 -0.00000000000E+00 -0.45593999997E+02  0.45594000000E+02  0.51100000000E-03 0. -1.
    9900012    2    1    2    0    0 -0.11871210710E+02 -0.85418225977E+01  0.11695636168E+02  0.72461647382E+02  0.70000100421E+02 0.  0.
         12    1    1    2    0    0  0.11871210710E+02  0.85418225977E+01 -0.11695636168E+02  0.18726352618E+02  0.00000000000E+00 0. -1.
         11    1    3    3    0    0 -0.22210410182E+01 -0.78548441700E+00  0.16556560616E+02  0.16723328277E+02  0.51100000000E-03 0.  1.
        -11    1    3    3    0    0 -0.30126820886E+02 -0.99652143733E+01  0.62426770440E+01  0.32340405859E+02  0.51100000000E-03 0. -1.
         12    1    3    3    0    0  0.20476651195E+02  0.22088761927E+01 -0.11103601492E+02  0.23397913246E+02  0.00000000000E+00 0. -1.
</event>
<event>
 7    1  0.1692604E-013  0.7246155E+02  0.7816164E-02  0.1226708E+00
        -11   -1    0    0    0    0  0.00000000000E+00  0.00000000000E+00  0.45593999997E+02  0.45594000000E+02  0.51100000000E-03 0. -1.
         11   -1    0    0    0    0 -0.00000000000E+00 -0.00000000000E+00 -0.45593999997E+02  0.45594000000E+02  0.51100000000E-03 0.  1.
    9900012    2    1    2    0    0 -0.15359386483E+02 -0.39911125624E+01 -0.99418435803E+01  0.72461548483E+02  0.69999971587E+02 0.  0.
         12    1    1    2    0    0  0.15359386483E+02  0.39911125624E+01  0.99418435803E+01  0.18726451517E+02  0.00000000000E+00 0. -1.
         11    1    3    3    0    0  0.75059135166E+01 -0.16483018548E+02  0.43601147615E+01  0.18628989215E+02  0.51100000000E-03 0. -1.
        -11    1    3    3    0    0 -0.90708627144E+00 -0.20683307734E+01  0.14571195667E+02  0.14745187049E+02  0.51100000000E-03 0.  1.
        -12    1    3    3    0    0 -0.21958213728E+02  0.14560236759E+02 -0.28873154009E+02  0.39087372219E+02  0.00000000000E+00 0.  1.
</event>
<event>
 7    1  0.1692604E-013  0.7246177E+02  0.7816164E-02  0.1226707E+00
        -11   -1    0    0    0    0  0.00000000000E+00  0.00000000000E+00  0.45593999997E+02  0.45594000000E+02  0.51100000000E-03 0.  1.
         11   -1    0    0    0    0 -0.00000000000E+00 -0.00000000000E+00 -0.45593999997E+02  0.45594000000E+02  0.51100000000E-03 0. -1.
    9900012    2    1    2    0    0  0.63737794413E+01 -0.19924339441E+01  0.17495056940E+02  0.72461765068E+02  0.70000253728E+02 0.  0.
         12    1    1    2    0    0 -0.63737794413E+01  0.19924339441E+01 -0.17495056940E+02  0.18726234932E+02  0.00000000000E+00 0. -1.
         11    1    3    3    0    0  0.16965106257E+02 -0.17798362799E+01  0.15417222369E+02  0.22992898759E+02  0.51100000000E-03 0. -1.
        -11    1    3    3    0    0  0.12120762596E+02 -0.17090635353E+02  0.29477291417E+01  0.21158728933E+02  0.51100000000E-03 0.  1.
         12    1    3    3    0    0 -0.22712089412E+02  0.16878037689E+02 -0.86989457109E+00  0.28310137376E+02  0.00000000000E+00 0. -1.
</event>
<event>
 7    1  0.1692604E-013  0.7246180E+02  0.7816164E-02  0.1226707E+00
        -11   -1    0    0    0    0  0.00000000000E+00  0.00000000000E+00  0.45593999997E+02  0.45594000000E+02  0.51100000000E-03 0.  1.
         11   -1    0    0    0    0 -0.00000000000E+00 -0.00000000000E+00 -0.45593999997E+02  0.45594000000E+02  0.51100000000E-03 0. -1.
    9900012    2    1    2    0    0 -0.50492214926E+01 -0.11793594995E+02  0.13641371606E+02  0.72461800709E+02  0.70000300158E+02 0.  0.
         12    1    1    2    0    0  0.50492214926E+01  0.11793594995E+02 -0.13641371606E+02  0.18726199291E+02  0.00000000000E+00 0. -1.
         11    1    3    3    0    0 -0.12004949055E+01  0.12598792790E+02 -0.71021048233E+01  0.14512431256E+02  0.51100000000E-03 0. -1.
        -11    1    3    3    0    0 -0.38505834758E+01 -0.78547228907E+01 -0.15675631223E+02  0.17951297427E+02  0.51100000000E-03 0.  1.
        -12    1    3    3    0    0  0.18568885875E-02 -0.16537664895E+02  0.36419107652E+02  0.39998072026E+02  0.00000000000E+00 0.  1.
</event>
<event>
 7    1  0.1692604E-013  0.7246159E+02  0.7816164E-02  0.1226708E+00
        -11   -1    0    0    0    0  0.00000000000E+00  0.00000000000E+00  0.45593999997E+02  0.45594000000E+02  0.51100000000E-03 0.  1.
         11   -1    0    0    0    0 -0.00000000000E+00 -0.00000000000E+00 -0.45593999997E+02  0.45594000000E+02  0.51100000000E-03 0. -1.
    9900012    2    1    2    0    0  0.39061497988E+01  0.36391596782E+01  0.17949284980E+02  0.72461592958E+02  0.70000029524E+02 0.  0.
         12    1    1    2    0    0 -0.39061497988E+01 -0.36391596782E+01 -0.17949284980E+02  0.18726407042E+02  0.00000000000E+00 0. -1.
         11    1    3    3    0    0  0.70039236906E+01  0.14144735020E+01 -0.29811822457E+01  0.77422948920E+01  0.51100000000E-03 0. -1.
        -11    1    3    3    0    0 -0.60006723607E+01  0.81885283806E+01 -0.20439084013E+02  0.22821398322E+02  0.51100000000E-03 0.  1.
        -12    1    3    3    0    0  0.29028984689E+01 -0.59638422044E+01  0.41369551238E+02  0.41897899744E+02  0.00000000000E+00 0.  1.
</event>
<event>
 7    1  0.1692604E-013  0.7246155E+02  0.7816164E-02  0.1226708E+00
        -11   -1    0    0    0    0  0.00000000000E+00  0.00000000000E+00  0.45593999997E+02  0.45594000000E+02  0.51100000000E-03 0.  1.
         11   -1    0    0    0    0 -0.00000000000E+00 -0.00000000000E+00 -0.45593999997E+02  0.45594000000E+02  0.51100000000E-03 0. -1.
    9900012    2    1    2    0    0 -0.97170063450E+01  0.97089183010E+01  0.12727784884E+02  0.72461553062E+02  0.69999977551E+02 0.  0.
         12    1    1    2    0    0  0.97170063450E+01 -0.97089183010E+01 -0.12727784884E+02  0.18726446938E+02  0.00000000000E+00 0. -1.
         11    1    3    3    0    0  0.23994674227E+02 -0.79670654996E+01  0.88047464009E+01  0.26772039209E+02  0.51100000000E-03 0. -1.
        -11    1    3    3    0    0  0.33397193089E+01  0.31726786419E+00 -0.26159786637E+01  0.42541425211E+01  0.51100000000E-03 0.  1.
        -12    1    3    3    0    0 -0.37051399881E+02  0.17358715936E+02  0.65390171469E+01  0.41435371331E+02  0.00000000000E+00 0.  1.
</event>
<event>
 7    1  0.1692604E-013  0.7246147E+02  0.7816164E-02  0.1226708E+00
        -11   -1    0    0    0    0  0.00000000000E+00  0.00000000000E+00  0.45593999997E+02  0.45594000000E+02  0.51100000000E-03 0.  1.
         11   -1    0    0    0    0 -0.00000000000E+00 -0.00000000000E+00 -0.45593999997E+02  0.45594000000E+02  0.51100000000E-03 0. -1.
    9900012    2    1    2    0    0  0.70311482596E+01  0.11448251224E+01  0.17318638000E+02  0.72461470888E+02  0.69999870505E+02 0.  0.
         12    1    1    2    0    0 -0.70311482596E+01 -0.11448251224E+01 -0.17318638000E+02  0.18726529112E+02  0.00000000000E+00 0. -1.
         11    1    3    3    0    0  0.16177382495E+01 -0.16870556750E+02  0.12632380023E+02  0.21137875660E+02  0.51100000000E-03 0. -1.
        -11    1    3    3    0    0 -0.17826158802E+01  0.15830960620E+02  0.25010105132E+02  0.29653033445E+02  0.51100000000E-03 0.  1.
         12    1    3    3    0    0  0.71960258903E+01  0.21844212524E+01 -0.20323847155E+02  0.21670561783E+02  0.00000000000E+00 0. -1.
</event>
<event>
 7    1  0.1692604E-013  0.7246157E+02  0.7816164E-02  0.1226708E+00
        -11   -1    0    0    0    0  0.00000000000E+00  0.00000000000E+00  0.45593999997E+02  0.45594000000E+02  0.51100000000E-03 0.  1.
         11   -1    0    0    0    0 -0.00000000000E+00 -0.00000000000E+00 -0.45593999997E+02  0.45594000000E+02  0.51100000000E-03 0. -1.
    9900012    2    1    2    0    0 -0.10119474231E+02  0.31618187685E+01  0.15436264325E+02  0.72461571805E+02  0.70000001968E+02 0.  0.
         12    1    1    2    0    0  0.10119474231E+02 -0.31618187685E+01 -0.15436264325E+02  0.18726428195E+02  0.00000000000E+00 0. -1.
         11    1    3    3    0    0 -0.18280133720E+02 -0.10211436423E+02  0.35563400495E+01  0.21238744724E+02  0.51100000000E-03 0. -1.
        -11    1    3    3    0    0  0.31946469438E+01  0.19946004897E+02  0.27169025701E+02  0.33855647066E+02  0.51100000000E-03 0.  1.
         12    1    3    3    0    0  0.49660125458E+01 -0.65727497056E+01 -0.15289101425E+02  0.17367180015E+02  0.00000000000E+00 0. -1.
</event>
<event>
 7    1  0.1692604E-013  0.7246157E+02  0.7816164E-02  0.1226708E+00
        -11   -1    0    0    0    0  0.00000000000E+00  0.00000000000E+00  0.45593999997E+02  0.45594000000E+02  0.51100000000E-03 0.  1.
         11   -1    0    0    0    0 -0.00000000000E+00 -0.00000000000E+00 -0.45593999997E+02  0.45594000000E+02  0.51100000000E-03 0. -1.
    9900012    2    1    2    0    0  0.14962166906E+02 -0.10435563671E+02  0.42322169527E+01  0.72461572471E+02  0.70000002836E+02 0.  0.
         12    1    1    2    0    0 -0.14962166906E+02  0.10435563671E+02 -0.42322169527E+01  0.18726427529E+02  0.00000000000E+00 0. -1.
         11    1    3    3    0    0  0.20460578943E+02 -0.16408250410E+02  0.15838947120E+02  0.30638835133E+02  0.51100000000E-03 0. -1.
        -11    1    3    3    0    0  0.13234299103E+01  0.17386661740E+01  0.14420571031E+02  0.14585173839E+02  0.51100000000E-03 0.  1.
        -12    1    3    3    0    0 -0.68218419470E+01  0.42340205647E+01 -0.26027301198E+02  0.27237563499E+02  0.00000000000E+00 0.  1.
</event>
<event>
 7    1  0.1692604E-013  0.7246159E+02  0.7816164E-02  0.1226708E+00
        -11   -1    0    0    0    0  0.00000000000E+00  0.00000000000E+00  0.45593999997E+02  0.45594000000E+02  0.51100000000E-03 0. -1.
         11   -1    0    0    0    0 -0.00000000000E+00 -0.00000000000E+00 -0.45593999997E+02  0.45594000000E+02  0.51100000000E-03 0.  1.
    9900012    2    1    2    0    0 -0.12766967639E+02 -0.81100699245E+01  0.11041268975E+02  0.72461593045E+02  0.70000029636E+02 0.  0.
         12    1    1    2    0    0  0.12766967639E+02  0.81100699245E+01 -0.11041268975E+02  0.18726406955E+02  0.00000000000E+00 0. -1.
         11    1    3    3    0    0 -0.99918591134E+01 -0.11703268507E+02 -0.79470841843E+01  0.17319350149E+02  0.51100000000E-03 0. -1.
        -11    1    3    3    0    0  0.24130939942E+02  0.70288679536E+00  0.13030209764E+02  0.27433240404E+02  0.51100000000E-03 0.  1.
         12    1    3    3    0    0 -0.26906048467E+02  0.28903117871E+01  0.59581433955E+01  0.27709002492E+02  0.00000000000E+00 0. -1.
</event>
<event>
 7    1  0.1692604E-013  0.7246168E+02  0.7816164E-02  0.1226708E+00
        -11   -1    0    0    0    0  0.00000000000E+00  0.00000000000E+00  0.45593999997E+02  0.45594000000E+02  0.51100000000E-03 0. -1.
         11   -1    0    0    0    0 -0.00000000000E+00 -0.00000000000E+00 -0.45593999997E+02  0.45594000000E+02  0.51100000000E-03 0.  1.
    9900012    2    1    2    0    0 -0.44526660162E+01 -0.15098596542E+02 -0.10143044533E+02  0.72461676159E+02  0.70000137909E+02 0.  0.
         12    1    1    2    0    0  0.44526660162E+01  0.15098596542E+02  0.10143044533E+02  0.18726323841E+02  0.00000000000E+00 0. -1.
         11    1    3    3    0    0 -0.10834483933E+02 -0.17000330694E+02  0.17581910354E+02  0.26749221629E+02  0.51100000000E-03 0. -1.
        -11    1    3    3    0    0 -0.66015220620E+01 -0.63898728212E+01  0.43233315191E+01  0.10153903874E+02  0.51100000000E-03 0.  1.
        -12    1    3    3    0    0  0.12983339978E+02  0.82916069736E+01 -0.32048286406E+02  0.35558550656E+02  0.00000000000E+00 0.  1.
</event>
<event>
 7    1  0.1692604E-013  0.7246152E+02  0.7816164E-02  0.1226708E+00
        -11   -1    0    0    0    0  0.00000000000E+00  0.00000000000E+00  0.45593999997E+02  0.45594000000E+02  0.51100000000E-03 0.  1.
         11   -1    0    0    0    0 -0.00000000000E+00 -0.00000000000E+00 -0.45593999997E+02  0.45594000000E+02  0.51100000000E-03 0. -1.
    9900012    2    1    2    0    0 -0.52171237055E+01  0.11757459294E+02  0.13609731771E+02  0.72461520681E+02  0.69999935369E+02 0.  0.
         12    1    1    2    0    0  0.52171237055E+01 -0.11757459294E+02 -0.13609731771E+02  0.18726479319E+02  0.00000000000E+00 0. -1.
         11    1    3    3    0    0  0.85383475685E+01  0.87811666243E+01  0.64072976755E+01  0.13822652793E+02  0.51100000000E-03 0. -1.
        -11    1    3    3    0    0 -0.94980817220E+01  0.28213273058E+02 -0.51648552158E+01  0.30213872024E+02  0.51100000000E-03 0.  1.
         12    1    3    3    0    0 -0.42573895520E+01 -0.25236980388E+02  0.12367289312E+02  0.28424995863E+02  0.00000000000E+00 0. -1.
</event>
<event>
 7    1  0.1692604E-013  0.7246150E+02  0.7816164E-02  0.1226708E+00
        -11   -1    0    0    0    0  0.00000000000E+00  0.00000000000E+00  0.45593999997E+02  0.45594000000E+02  0.51100000000E-03 0. -1.
         11   -1    0    0    0    0 -0.00000000000E+00 -0.00000000000E+00 -0.45593999997E+02  0.45594000000E+02  0.51100000000E-03 0.  1.
    9900012    2    1    2    0    0  0.14263204701E+02  0.33378341595E+01 -0.11666261369E+02  0.72461500072E+02  0.69999908523E+02 0.  0.
         12    1    1    2    0    0 -0.14263204701E+02 -0.33378341595E+01  0.11666261369E+02  0.18726499928E+02  0.00000000000E+00 0. -1.
         11    1    3    3    0    0  0.24658326942E+01 -0.82833284489E+01 -0.12898419560E+02  0.15526206506E+02  0.51100000000E-03 0. -1.
        -11    1    3    3    0    0 -0.16638612866E+01 -0.21267079069E+02 -0.73148261288E+00  0.21344604789E+02  0.51100000000E-03 0.  1.
         12    1    3    3    0    0  0.13461233293E+02  0.32888241678E+02  0.19636408035E+01  0.35590688777E+02  0.00000000000E+00 0. -1.
</event>
<event>
 7    1  0.1692604E-013  0.7246153E+02  0.7816164E-02  0.1226708E+00
        -11   -1    0    0    0    0  0.00000000000E+00  0.00000000000E+00  0.45593999997E+02  0.45594000000E+02  0.51100000000E-03 0.  1.
         11   -1    0    0    0    0 -0.00000000000E+00 -0.00000000000E+00 -0.45593999997E+02  0.45594000000E+02  0.51100000000E-03 0. -1.
    9900012    2    1    2    0    0  0.31863010394E+01  0.69964270438E+00  0.18440140002E+02  0.72461527360E+02  0.69999944070E+02 0.  0.
         12    1    1    2    0    0 -0.31863010394E+01 -0.69964270438E+00 -0.18440140002E+02  0.18726472640E+02  0.00000000000E+00 0. -1.
         11    1    3    3    0    0  0.98145159171E+01 -0.16143453407E+01 -0.63148288711E+01  0.11781676345E+02  0.51100000000E-03 0. -1.
        -11    1    3    3    0    0  0.21834507858E+02  0.11468889576E+02  0.16460665205E+02  0.29651891352E+02  0.51100000000E-03 0.  1.
         12    1    3    3    0    0 -0.28462722735E+02 -0.91549015305E+01  0.82943036686E+01  0.31027959664E+02  0.00000000000E+00 0. -1.
</event>
<event>
 7    1  0.1692604E-013  0.7246162E+02  0.7816164E-02  0.1226708E+00
        -11   -1    0    0    0    0  0.00000000000E+00  0.00000000000E+00  0.45593999997E+02  0.45594000000E+02  0.51100000000E-03 0.  1.
         11   -1    0    0    0    0 -0.00000000000E+00 -0.00000000000E+00 -0.45593999997E+02  0.45594000000E+02  0.51100000000E-03 0. -1.
    9900012    2    1    2    0    0 -0.49119588887E+01  0.18064644389E+02  0.46750454742E+00  0.72461620811E+02  0.70000065807E+02 0.  0.
         12    1    1    2    0    0  0.49119588887E+01 -0.18064644389E+02 -0.46750454742E+00  0.18726379189E+02  0.00000000000E+00 0. -1.
         11    1    3    3    0    0 -0.19595552590E+02  0.29806503306E+01  0.45562068351E+01  0.20337870554E+02  0.51100000000E-03 0. -1.
        -11    1    3    3    0    0  0.19048879198E+02 -0.11897092150E+02  0.55632414703E+01  0.23137637223E+02  0.51100000000E-03 0.  1.
         12    1    3    3    0    0 -0.43652854968E+01  0.26981086209E+02 -0.96519437580E+01  0.28986113034E+02  0.00000000000E+00 0. -1.
</event>
<event>
 7    1  0.1692604E-013  0.7246170E+02  0.7816164E-02  0.1226708E+00
        -11   -1    0    0    0    0  0.00000000000E+00  0.00000000000E+00  0.45593999997E+02  0.45594000000E+02  0.51100000000E-03 0. -1.
         11   -1    0    0    0    0 -0.00000000000E+00 -0.00000000000E+00 -0.45593999997E+02  0.45594000000E+02  0.51100000000E-03 0.  1.
    9900012    2    1    2    0    0 -0.35883447856E+01 -0.14410670763E+02 -0.11407488500E+02  0.72461696467E+02  0.70000164363E+02 0.  0.
         12    1    1    2    0    0  0.35883447856E+01  0.14410670763E+02  0.11407488500E+02  0.18726303533E+02  0.00000000000E+00 0. -1.
         11    1    3    3    0    0  0.15793575177E+02 -0.18348957998E+02 -0.50025986793E+01  0.24721392968E+02  0.51100000000E-03 0. -1.
        -11    1    3    3    0    0  0.13530283769E+02  0.32584075368E+01  0.11524485663E+01  0.13964739042E+02  0.51100000000E-03 0.  1.
         12    1    3    3    0    0 -0.32912203732E+02  0.67987969822E+00 -0.75573383875E+01  0.33775564457E+02  0.00000000000E+00 0. -1.
</event>
<event>
 7    1  0.1692604E-013  0.7246152E+02  0.7816164E-02  0.1226708E+00
        -11   -1    0    0    0    0  0.00000000000E+00  0.00000000000E+00  0.45593999997E+02  0.45594000000E+02  0.51100000000E-03 0.  1.
         11   -1    0    0    0    0 -0.00000000000E+00 -0.00000000000E+00 -0.45593999997E+02  0.45594000000E+02  0.51100000000E-03 0. -1.
    9900012    2    1    2    0    0 -0.18646916462E+02 -0.17185069084E+01 -0.14260884212E+00  0.72461518836E+02  0.69999932965E+02 0.  0.
         12    1    1    2    0    0  0.18646916462E+02  0.17185069084E+01  0.14260884212E+00  0.18726481164E+02  0.00000000000E+00 0. -1.
         11    1    3    3    0    0 -0.39890944515E+01 -0.11844068181E+02 -0.89619790100E+00  0.12529884140E+02  0.51100000000E-03 0. -1.
        -11    1    3    3    0    0  0.11263261706E+02 -0.44510162967E+01 -0.20200202874E+02  0.23552511686E+02  0.51100000000E-03 0.  1.
        -12    1    3    3    0    0 -0.25921083716E+02  0.14576577569E+02  0.20953791932E+02  0.36379123010E+02  0.00000000000E+00 0.  1.
</event>
<event>
 7    1  0.1692604E-013  0.7246157E+02  0.7816164E-02  0.1226708E+00
        -11   -1    0    0    0    0  0.00000000000E+00  0.00000000000E+00  0.45593999997E+02  0.45594000000E+02  0.51100000000E-03 0.  1.
         11   -1    0    0    0    0 -0.00000000000E+00 -0.00000000000E+00 -0.45593999997E+02  0.45594000000E+02  0.51100000000E-03 0. -1.
    9900012    2    1    2    0    0  0.18282213617E+02  0.17103133419E+01  0.36762150940E+01  0.72461573115E+02  0.70000003675E+02 0.  0.
         12    1    1    2    0    0 -0.18282213617E+02 -0.17103133419E+01 -0.36762150940E+01  0.18726426885E+02  0.00000000000E+00 0. -1.
         11    1    3    3    0    0  0.72638778720E+01  0.31391073614E+01 -0.41231955108E+01  0.89229287931E+01  0.51100000000E-03 0.  1.
        -11    1    3    3    0    0  0.68272186513E+01 -0.31445886587E+02  0.82795111433E+01  0.33226570734E+02  0.51100000000E-03 0. -1.
         12    1    3    3    0    0  0.41911170933E+01  0.30017092567E+02 -0.48010053854E+00  0.30312073588E+02  0.00000000000E+00 0. -1.
</event>
<event>
 7    1  0.1692604E-013  0.7246158E+02  0.7816164E-02  0.1226708E+00
        -11   -1    0    0    0    0  0.00000000000E+00  0.00000000000E+00  0.45593999997E+02  0.45594000000E+02  0.51100000000E-03 0.  1.
         11   -1    0    0    0    0 -0.00000000000E+00 -0.00000000000E+00 -0.45593999997E+02  0.45594000000E+02  0.51100000000E-03 0. -1.
    9900012    2    1    2    0    0  0.55475755435E+01  0.58703193998E+01  0.16895040252E+02  0.72461584716E+02  0.70000018787E+02 0.  0.
         12    1    1    2    0    0 -0.55475755435E+01 -0.58703193998E+01 -0.16895040252E+02  0.18726415284E+02  0.00000000000E+00 0. -1.
         11    1    3    3    0    0  0.19535457207E+02 -0.17577002821E+02 -0.37983703521E+01  0.26552075889E+02  0.51100000000E-03 0. -1.
        -11    1    3    3    0    0 -0.35690601016E+01  0.98131780119E+00 -0.75125064828E+01  0.83748987188E+01  0.51100000000E-03 0.  1.
        -12    1    3    3    0    0 -0.10418821562E+02  0.22466004419E+02  0.28205917087E+02  0.37534610108E+02  0.00000000000E+00 0.  1.
</event>
<event>
 7    1  0.1692604E-013  0.7246157E+02  0.7816164E-02  0.1226708E+00
        -11   -1    0    0    0    0  0.00000000000E+00  0.00000000000E+00  0.45593999997E+02  0.45594000000E+02  0.51100000000E-03 0. -1.
         11   -1    0    0    0    0 -0.00000000000E+00 -0.00000000000E+00 -0.45593999997E+02  0.45594000000E+02  0.51100000000E-03 0.  1.
    9900012    2    1    2    0    0 -0.56176837877E+01  0.12150764909E+02 -0.13095021705E+02  0.72461573420E+02  0.70000004072E+02 0.  0.
         12    1    1    2    0    0  0.56176837877E+01 -0.12150764909E+02  0.13095021705E+02  0.18726426580E+02  0.00000000000E+00 0. -1.
         11    1    3    3    0    0 -0.28952529858E+02 -0.43060732898E+01 -0.11691646958E+02  0.31519610740E+02  0.51100000000E-03 0. -1.
        -11    1    3    3    0    0 -0.16154168070E+01 -0.62108804346E+01  0.27412431235E+01  0.69784684105E+01  0.51100000000E-03 0.  1.
        -12    1    3    3    0    0  0.24950262877E+02  0.22667718633E+02 -0.41446178699E+01  0.33963494269E+02  0.00000000000E+00 0.  1.
</event>
<event>
 7    1  0.1692604E-013  0.7246150E+02  0.7816164E-02  0.1226708E+00
        -11   -1    0    0    0    0  0.00000000000E+00  0.00000000000E+00  0.45593999997E+02  0.45594000000E+02  0.51100000000E-03 0. -1.
         11   -1    0    0    0    0 -0.00000000000E+00 -0.00000000000E+00 -0.45593999997E+02  0.45594000000E+02  0.51100000000E-03 0.  1.
    9900012    2    1    2    0    0  0.16981355923E+02  0.57758491014E+01 -0.53809784633E+01  0.72461499765E+02  0.69999908122E+02 0.  0.
         12    1    1    2    0    0 -0.16981355923E+02 -0.57758491014E+01  0.53809784633E+01  0.18726500235E+02  0.00000000000E+00 0. -1.
         11    1    3    3    0    0  0.52199487856E+01  0.18626390579E+02  0.60673881147E+01  0.20273221010E+02  0.51100000000E-03 0. -1.
        -11    1    3    3    0    0  0.50938288159E+01  0.75799221314E+01  0.15335175269E+02  0.17848526895E+02  0.51100000000E-03 0.  1.
        -12    1    3    3    0    0  0.66675783220E+01 -0.20430463609E+02 -0.26783541847E+02  0.34339751860E+02  0.00000000000E+00 0.  1.
</event>
<event>
 7    1  0.1692604E-013  0.7246156E+02  0.7816164E-02  0.1226708E+00
        -11   -1    0    0    0    0  0.00000000000E+00  0.00000000000E+00  0.45593999997E+02  0.45594000000E+02  0.51100000000E-03 0.  1.
         11   -1    0    0    0    0 -0.00000000000E+00 -0.00000000000E+00 -0.45593999997E+02  0.45594000000E+02  0.51100000000E-03 0. -1.
    9900012    2    1    2    0    0 -0.98716491308E+01 -0.15337509339E+02  0.42415488788E+01  0.72461564509E+02  0.69999992464E+02 0.  0.
         12    1    1    2    0    0  0.98716491308E+01  0.15337509339E+02 -0.42415488788E+01  0.18726435491E+02  0.00000000000E+00 0. -1.
         11    1    3    3    0    0  0.15874650341E+01 -0.35312376064E+02 -0.70255693643E+01  0.36039458565E+02  0.51100000000E-03 0. -1.
        -11    1    3    3    0    0  0.61264487537E+01  0.24770747760E+01 -0.35750871778E+01  0.75133562652E+01  0.51100000000E-03 0.  1.
        -12    1    3    3    0    0 -0.17585562919E+02  0.17497791949E+02  0.14842205421E+02  0.28908749679E+02  0.00000000000E+00 0.  1.
</event>
<event>
 7    1  0.1692604E-013  0.7246158E+02  0.7816164E-02  0.1226708E+00
        -11   -1    0    0    0    0  0.00000000000E+00  0.00000000000E+00  0.45593999997E+02  0.45594000000E+02  0.51100000000E-03 0. -1.
         11   -1    0    0    0    0 -0.00000000000E+00 -0.00000000000E+00 -0.45593999997E+02  0.45594000000E+02  0.51100000000E-03 0.  1.
    9900012    2    1    2    0    0 -0.10158645710E+02  0.49502908567E+01  0.14932360150E+02  0.72461579042E+02  0.70000011395E+02 0.  0.
         12    1    1    2    0    0  0.10158645710E+02 -0.49502908567E+01 -0.14932360150E+02  0.18726420958E+02  0.00000000000E+00 0. -1.
         11    1    3    3    0    0  0.12442851661E+02 -0.34898837825E+01  0.20034285112E+02  0.23840646520E+02  0.51100000000E-03 0. -1.
        -11    1    3    3    0    0  0.91317104603E+01  0.10467909997E+02  0.57329936439E+01  0.15027724113E+02  0.51100000000E-03 0.  1.
        -12    1    3    3    0    0 -0.31733207832E+02 -0.20277353578E+01 -0.10834918606E+02  0.33593208409E+02  0.00000000000E+00 0.  1.
</event>
<event>
 7    1  0.1692604E-013  0.7246162E+02  0.7816164E-02  0.1226708E+00
        -11   -1    0    0    0    0  0.00000000000E+00  0.00000000000E+00  0.45593999997E+02  0.45594000000E+02  0.51100000000E-03 0.  1.
         11   -1    0    0    0    0 -0.00000000000E+00 -0.00000000000E+00 -0.45593999997E+02  0.45594000000E+02  0.51100000000E-03 0. -1.
    9900012    2    1    2    0    0 -0.18094053178E+02 -0.15904739454E+01  0.45555418912E+01  0.72461619418E+02  0.70000063993E+02 0.  0.
         12    1    1    2    0    0  0.18094053178E+02  0.15904739454E+01 -0.45555418912E+01  0.18726380582E+02  0.00000000000E+00 0. -1.
         11    1    3    3    0    0 -0.24267899913E+02 -0.20175791364E+02 -0.35317938070E+01  0.31756370875E+02  0.51100000000E-03 0. -1.
        -11    1    3    3    0    0 -0.96678590658E+01 -0.39623905252E+01 -0.31989410582E+01  0.10927088439E+02  0.51100000000E-03 0.  1.
        -12    1    3    3    0    0  0.15841705801E+02  0.22547707944E+02  0.11286276756E+02  0.29778160105E+02  0.00000000000E+00 0.  1.
</event>
<event>
 7    1  0.1692604E-013  0.7246158E+02  0.7816164E-02  0.1226708E+00
        -11   -1    0    0    0    0  0.00000000000E+00  0.00000000000E+00  0.45593999997E+02  0.45594000000E+02  0.51100000000E-03 0. -1.
         11   -1    0    0    0    0 -0.00000000000E+00 -0.00000000000E+00 -0.45593999997E+02  0.45594000000E+02  0.51100000000E-03 0.  1.
    9900012    2    1    2    0    0  0.16613543875E+02  0.71959839174E+00  0.86110978191E+01  0.72461583696E+02  0.70000017458E+02 0.  0.
         12    1    1    2    0    0 -0.16613543875E+02 -0.71959839174E+00 -0.86110978191E+01  0.18726416304E+02  0.00000000000E+00 0. -1.
         11    1    3    3    0    0 -0.79829249991E+01  0.20867938094E+02 -0.50731419828E+01  0.22911453504E+02  0.51100000000E-03 0. -1.
        -11    1    3    3    0    0  0.99765594285E+01  0.21032303156E+01  0.19765034829E+02  0.22239872254E+02  0.51100000000E-03 0.  1.
        -12    1    3    3    0    0  0.14619909446E+02 -0.22251570018E+02 -0.60807950276E+01  0.27310257938E+02  0.00000000000E+00 0.  1.
</event>
<event>
 7    1  0.1692604E-013  0.7246156E+02  0.7816164E-02  0.1226708E+00
        -11   -1    0    0    0    0  0.00000000000E+00  0.00000000000E+00  0.45593999997E+02  0.45594000000E+02  0.51100000000E-03 0. -1.
         11   -1    0    0    0    0 -0.00000000000E+00 -0.00000000000E+00 -0.45593999997E+02  0.45594000000E+02  0.51100000000E-03 0.  1.
    9900012    2    1    2    0    0  0.84594406165E+01  0.14443038847E+02 -0.83973905772E+01  0.72461556793E+02  0.69999982412E+02 0.  0.
         12    1    1    2    0    0 -0.84594406165E+01 -0.14443038847E+02  0.83973905772E+01  0.18726443207E+02  0.00000000000E+00 0. -1.
         11    1    3    3    0    0  0.12588171579E+02  0.20765160379E+02 -0.12445912022E+02  0.27286529196E+02  0.51100000000E-03 0. -1.
        -11    1    3    3    0    0  0.56399455629E+01  0.17348687865E+02 -0.32904631476E+01  0.18536804055E+02  0.51100000000E-03 0.  1.
        -12    1    3    3    0    0 -0.97686765251E+01 -0.23670809398E+02  0.73389845923E+01  0.26638223541E+02  0.00000000000E+00 0.  1.
</event>
<event>
 7    1  0.1692604E-013  0.7246129E+02  0.7816164E-02  0.1226709E+00
        -11   -1    0    0    0    0  0.00000000000E+00  0.00000000000E+00  0.45593999997E+02  0.45594000000E+02  0.51100000000E-03 0.  1.
         11   -1    0    0    0    0 -0.00000000000E+00 -0.00000000000E+00 -0.45593999997E+02  0.45594000000E+02  0.51100000000E-03 0. -1.
    9900012    2    1    2    0    0 -0.16249101767E+02  0.28608888021E+01  0.88584222311E+01  0.72461290802E+02  0.69999635908E+02 0.  0.
         12    1    1    2    0    0  0.16249101767E+02 -0.28608888021E+01 -0.88584222311E+01  0.18726709198E+02  0.00000000000E+00 0. -1.
         11    1    3    3    0    0 -0.25586095453E+02 -0.18980047918E+01 -0.19708159093E+02  0.32352159708E+02  0.51100000000E-03 0. -1.
        -11    1    3    3    0    0 -0.77854339078E+01 -0.32699462791E+01  0.13528138639E+02  0.15947290211E+02  0.51100000000E-03 0.  1.
        -12    1    3    3    0    0  0.17122427594E+02  0.80288398730E+01  0.15038442685E+02  0.24161840882E+02  0.00000000000E+00 0.  1.
</event>
<event>
 7    1  0.1692604E-013  0.7246164E+02  0.7816164E-02  0.1226708E+00
        -11   -1    0    0    0    0  0.00000000000E+00  0.00000000000E+00  0.45593999997E+02  0.45594000000E+02  0.51100000000E-03 0. -1.
         11   -1    0    0    0    0 -0.00000000000E+00 -0.00000000000E+00 -0.45593999997E+02  0.45594000000E+02  0.51100000000E-03 0.  1.
    9900012    2    1    2    0    0  0.14839558651E+02 -0.83146206648E+01  0.78314091503E+01  0.72461644587E+02  0.70000096780E+02 0.  0.
         12    1    1    2    0    0 -0.14839558651E+02  0.83146206648E+01 -0.78314091503E+01  0.18726355413E+02  0.00000000000E+00 0. -1.
         11    1    3    3    0    0 -0.46138505174E+01 -0.21224262255E+02  0.13487121589E+02  0.25566763070E+02  0.51100000000E-03 0. -1.
        -11    1    3    3    0    0 -0.43472530824E+01 -0.96838242297E+01 -0.89886200940E+01  0.13909362046E+02  0.51100000000E-03 0.  1.
        -12    1    3    3    0    0  0.23800662251E+02  0.22593465820E+02  0.33329076550E+01  0.32985519471E+02  0.00000000000E+00 0.  1.
</event>
<event>
 7    1  0.1692604E-013  0.7246157E+02  0.7816164E-02  0.1226708E+00
        -11   -1    0    0    0    0  0.00000000000E+00  0.00000000000E+00  0.45593999997E+02  0.45594000000E+02  0.51100000000E-03 0. -1.
         11   -1    0    0    0    0 -0.00000000000E+00 -0.00000000000E+00 -0.45593999997E+02  0.45594000000E+02  0.51100000000E-03 0.  1.
    9900012    2    1    2    0    0  0.49493517932E+00 -0.11543488423E+02 -0.14737093014E+02  0.72461574919E+02  0.70000006024E+02 0.  0.
         12    1    1    2    0    0 -0.49493517932E+00  0.11543488423E+02  0.14737093014E+02  0.18726425081E+02  0.00000000000E+00 0. -1.
         11    1    3    3    0    0  0.26218737073E+02 -0.10196558396E+02 -0.85714573882E+01  0.29408533775E+02  0.51100000000E-03 0. -1.
        -11    1    3    3    0    0 -0.48332446345E+01 -0.26844652909E+01 -0.18121452721E+02  0.18946072326E+02  0.51100000000E-03 0.  1.
         12    1    3    3    0    0 -0.20890557259E+02  0.13375352632E+01  0.11955817095E+02  0.24106968818E+02  0.00000000000E+00 0. -1.
</event>
<event>
 7    1  0.1692604E-013  0.7246151E+02  0.7816164E-02  0.1226708E+00
        -11   -1    0    0    0    0  0.00000000000E+00  0.00000000000E+00  0.45593999997E+02  0.45594000000E+02  0.51100000000E-03 0. -1.
         11   -1    0    0    0    0 -0.00000000000E+00 -0.00000000000E+00 -0.45593999997E+02  0.45594000000E+02  0.51100000000E-03 0.  1.
    9900012    2    1    2    0    0  0.52578673319E+01 -0.17972283121E+02 -0.18288767674E+00  0.72461506005E+02  0.69999916251E+02 0.  0.
         12    1    1    2    0    0 -0.52578673319E+01  0.17972283121E+02  0.18288767674E+00  0.18726493995E+02  0.00000000000E+00 0. -1.
         11    1    3    3    0    0 -0.69904730816E+01  0.48243516821E+01  0.75134072217E+01  0.11339857645E+02  0.51100000000E-03 0. -1.
        -11    1    3    3    0    0  0.14714878412E+02  0.15069331528E+02  0.39481834422E+01  0.21428965260E+02  0.51100000000E-03 0.  1.
         12    1    3    3    0    0 -0.24665379986E+01 -0.37865966330E+02 -0.11644478341E+02  0.39692683100E+02  0.00000000000E+00 0. -1.
</event>
<event>
 7    1  0.1692604E-013  0.7246157E+02  0.7816164E-02  0.1226708E+00
        -11   -1    0    0    0    0  0.00000000000E+00  0.00000000000E+00  0.45593999997E+02  0.45594000000E+02  0.51100000000E-03 0.  1.
         11   -1    0    0    0    0 -0.00000000000E+00 -0.00000000000E+00 -0.45593999997E+02  0.45594000000E+02  0.51100000000E-03 0. -1.
    9900012    2    1    2    0    0  0.14063045495E+02 -0.58193303884E+01  0.10910785655E+02  0.72461572194E+02  0.70000002474E+02 0.  0.
         12    1    1    2    0    0 -0.14063045495E+02  0.58193303884E+01 -0.10910785655E+02  0.18726427806E+02  0.00000000000E+00 0. -1.
         11    1    3    3    0    0 -0.12181669608E+01 -0.33736345831E+02 -0.29602111513E+01  0.33887871150E+02  0.51100000000E-03 0. -1.
        -11    1    3    3    0    0 -0.25344869823E+01  0.16501365196E+01  0.46062671988E+01  0.55103786226E+01  0.51100000000E-03 0.  1.
        -12    1    3    3    0    0  0.17815699438E+02  0.26266878923E+02  0.92647296079E+01  0.33063322421E+02  0.00000000000E+00 0.  1.
</event>
<event>
 7    1  0.1798589E-013  0.7246155E+02  0.7816164E-02  0.1226708E+00
        -11   -1    0    0    0    0  0.00000000000E+00  0.00000000000E+00  0.45593999997E+02  0.45594000000E+02  0.51100000000E-03 0. -1.
         11   -1    0    0    0    0 -0.00000000000E+00 -0.00000000000E+00 -0.45593999997E+02  0.45594000000E+02  0.51100000000E-03 0.  1.
    9900012    2    1    2    0    0 -0.65535430308E+01 -0.81507978883E+01 -0.15533685239E+02  0.72461553204E+02  0.69999977737E+02 0.  0.
         12    1    1    2    0    0  0.65535430308E+01  0.81507978883E+01  0.15533685239E+02  0.18726446796E+02  0.00000000000E+00 0. -1.
         11    1    3    3    0    0 -0.42176331351E+01 -0.25048748170E+02  0.88687641883E+01  0.26905077451E+02  0.51100000000E-03 0. -1.
        -11    1    3    3    0    0  0.15874129999E+02  0.71515987203E+01 -0.78997848937E+01  0.19119099589E+02  0.51100000000E-03 0.  1.
        -12    1    3    3    0    0 -0.18210039895E+02  0.97463515615E+01 -0.16502664534E+02  0.26437376164E+02  0.00000000000E+00 0.  1.
</event>
<event>
 7    1  0.1692604E-013  0.7246152E+02  0.7816164E-02  0.1226708E+00
        -11   -1    0    0    0    0  0.00000000000E+00  0.00000000000E+00  0.45593999997E+02  0.45594000000E+02  0.51100000000E-03 0.  1.
         11   -1    0    0    0    0 -0.00000000000E+00 -0.00000000000E+00 -0.45593999997E+02  0.45594000000E+02  0.51100000000E-03 0. -1.
    9900012    2    1    2    0    0 -0.98509963767E+01  0.23769288499E+01  0.15747666977E+02  0.72461523140E+02  0.69999938572E+02 0.  0.
         12    1    1    2    0    0  0.98509963767E+01 -0.23769288499E+01 -0.15747666977E+02  0.18726476860E+02  0.00000000000E+00 0. -1.
         11    1    3    3    0    0 -0.71116964846E+00 -0.99045334247E+01  0.56130678833E+01  0.11406668048E+02  0.51100000000E-03 0. -1.
        -11    1    3    3    0    0 -0.82174118210E+01  0.21229616254E+02  0.30925905707E+02  0.38400964928E+02  0.51100000000E-03 0.  1.
         12    1    3    3    0    0 -0.92241490725E+00 -0.89481539796E+01 -0.20791306613E+02  0.22653890164E+02  0.00000000000E+00 0. -1.
</event>
<event>
 7    1  0.1692604E-013  0.7246160E+02  0.7816164E-02  0.1226708E+00
        -11   -1    0    0    0    0  0.00000000000E+00  0.00000000000E+00  0.45593999997E+02  0.45594000000E+02  0.51100000000E-03 0.  1.
         11   -1    0    0    0    0 -0.00000000000E+00 -0.00000000000E+00 -0.45593999997E+02  0.45594000000E+02  0.51100000000E-03 0. -1.
    9900012    2    1    2    0    0 -0.15165338409E+02  0.10156600536E+02  0.41873796318E+01  0.72461596937E+02  0.70000034707E+02 0.  0.
         12    1    1    2    0    0  0.15165338409E+02 -0.10156600536E+02 -0.41873796318E+01  0.18726403063E+02  0.00000000000E+00 0. -1.
         11    1    3    3    0    0 -0.10971812167E+02 -0.19945877169E+01 -0.29456297068E+01  0.11534113620E+02  0.51100000000E-03 0. -1.
        -11    1    3    3    0    0 -0.98280415514E+01  0.15669544686E+02 -0.23316319743E+02  0.29761985787E+02  0.51100000000E-03 0.  1.
        -12    1    3    3    0    0  0.56345153091E+01 -0.35183564333E+01  0.30449329081E+02  0.31165497529E+02  0.00000000000E+00 0.  1.
</event>
<event>
 7    1  0.1692604E-013  0.7246168E+02  0.7816164E-02  0.1226708E+00
        -11   -1    0    0    0    0  0.00000000000E+00  0.00000000000E+00  0.45593999997E+02  0.45594000000E+02  0.51100000000E-03 0.  1.
         11   -1    0    0    0    0 -0.00000000000E+00 -0.00000000000E+00 -0.45593999997E+02  0.45594000000E+02  0.51100000000E-03 0. -1.
    9900012    2    1    2    0    0 -0.16057110806E+02 -0.86811345597E+01  0.41811708494E+01  0.72461679102E+02  0.70000141743E+02 0.  0.
         12    1    1    2    0    0  0.16057110806E+02  0.86811345597E+01 -0.41811708494E+01  0.18726320898E+02  0.00000000000E+00 0. -1.
         11    1    3    3    0    0  0.11080206676E+02  0.13043189435E+01  0.18569698611E+02  0.21663470051E+02  0.51100000000E-03 0. -1.
        -11    1    3    3    0    0  0.79594812283E+01 -0.10713887517E+02 -0.16248991372E+01  0.13445483428E+02  0.51100000000E-03 0.  1.
        -12    1    3    3    0    0 -0.35096798710E+02  0.72843401332E+00 -0.12763628625E+02  0.37352725623E+02  0.00000000000E+00 0.  1.
</event>
<event>
 7    1  0.1692604E-013  0.7246156E+02  0.7816164E-02  0.1226708E+00
        -11   -1    0    0    0    0  0.00000000000E+00  0.00000000000E+00  0.45593999997E+02  0.45594000000E+02  0.51100000000E-03 0.  1.
         11   -1    0    0    0    0 -0.00000000000E+00 -0.00000000000E+00 -0.45593999997E+02  0.45594000000E+02  0.51100000000E-03 0. -1.
    9900012    2    1    2    0    0  0.18012580627E+02 -0.36768549465E+01 -0.35647392654E+01  0.72461556420E+02  0.69999981925E+02 0.  0.
         12    1    1    2    0    0 -0.18012580627E+02  0.36768549465E+01  0.35647392654E+01  0.18726443580E+02  0.00000000000E+00 0. -1.
         11    1    3    3    0    0 -0.64274219755E+01 -0.13253947919E+02 -0.80520882438E+01  0.16787346843E+02  0.51100000000E-03 0. -1.
        -11    1    3    3    0    0  0.40586041968E+01  0.16234273433E+02 -0.18018140054E+02  0.24590186522E+02  0.51100000000E-03 0.  1.
         12    1    3    3    0    0  0.20381398406E+02 -0.66571804605E+01  0.22505489033E+02  0.31084023055E+02  0.00000000000E+00 0. -1.
</event>
<event>
 7    1  0.1692604E-013  0.7246154E+02  0.7816164E-02  0.1226708E+00
        -11   -1    0    0    0    0  0.00000000000E+00  0.00000000000E+00  0.45593999997E+02  0.45594000000E+02  0.51100000000E-03 0. -1.
         11   -1    0    0    0    0 -0.00000000000E+00 -0.00000000000E+00 -0.45593999997E+02  0.45594000000E+02  0.51100000000E-03 0.  1.
    9900012    2    1    2    0    0 -0.17859017849E+02 -0.19175042699E+01 -0.52970654291E+01  0.72461541624E+02  0.69999962651E+02 0.  0.
         12    1    1    2    0    0  0.17859017849E+02  0.19175042699E+01  0.52970654291E+01  0.18726458376E+02  0.00000000000E+00 0. -1.
         11    1    3    3    0    0  0.20042564770E+01 -0.12931095566E+02 -0.71863120673E+01  0.14928943632E+02  0.51100000000E-03 0. -1.
        -11    1    3    3    0    0  0.76280577732E+01 -0.10253727930E+02 -0.14309713903E+02  0.19185778954E+02  0.51100000000E-03 0.  1.
         12    1    3    3    0    0 -0.27491332099E+02  0.21267319226E+02  0.16198960541E+02  0.38346819037E+02  0.00000000000E+00 0. -1.
</event>
<event>
 7    1  0.1692604E-013  0.7246157E+02  0.7816164E-02  0.1226708E+00
        -11   -1    0    0    0    0  0.00000000000E+00  0.00000000000E+00  0.45593999997E+02  0.45594000000E+02  0.51100000000E-03 0. -1.
         11   -1    0    0    0    0 -0.00000000000E+00 -0.00000000000E+00 -0.45593999997E+02  0.45594000000E+02  0.51100000000E-03 0.  1.
    9900012    2    1    2    0    0  0.35978060713E+01 -0.11345520219E+02 -0.14457319207E+02  0.72461571718E+02  0.70000001854E+02 0.  0.
         12    1    1    2    0    0 -0.35978060713E+01  0.11345520219E+02  0.14457319207E+02  0.18726428282E+02  0.00000000000E+00 0. -1.
         11    1    3    3    0    0 -0.17990909540E+02 -0.17773282081E+01 -0.12103293434E+02  0.21755951688E+02  0.51100000000E-03 0.  1.
        -11    1    3    3    0    0 -0.60157686195E+01  0.87081205301E+01  0.10763251325E+02  0.15095311014E+02  0.51100000000E-03 0. -1.
        -12    1    3    3    0    0  0.27604484231E+02 -0.18276312541E+02 -0.13117277097E+02  0.35610309016E+02  0.00000000000E+00 0.  1.
</event>
<event>
 7    1  0.1692604E-013  0.7246155E+02  0.7816164E-02  0.1226708E+00
        -11   -1    0    0    0    0  0.00000000000E+00  0.00000000000E+00  0.45593999997E+02  0.45594000000E+02  0.51100000000E-03 0.  1.
         11   -1    0    0    0    0 -0.00000000000E+00 -0.00000000000E+00 -0.45593999997E+02  0.45594000000E+02  0.51100000000E-03 0. -1.
    9900012    2    1    2    0    0 -0.55564714364E+00  0.70827812722E+01  0.17326435046E+02  0.72461551172E+02  0.69999975090E+02 0.  0.
         12    1    1    2    0    0  0.55564714364E+00 -0.70827812722E+01 -0.17326435046E+02  0.18726448828E+02  0.00000000000E+00 0. -1.
         11    1    3    3    0    0  0.11863504293E+02  0.18964728213E+01  0.59468938808E+01  0.13405405266E+02  0.51100000000E-03 0. -1.
        -11    1    3    3    0    0 -0.89237570750E+01  0.12647454560E+02  0.32711186834E+02  0.36188579574E+02  0.51100000000E-03 0.  1.
         12    1    3    3    0    0 -0.34953943614E+01 -0.74611461094E+01 -0.21331645669E+02  0.22867566332E+02  0.00000000000E+00 0. -1.
</event>
<event>
 7    1  0.1692604E-013  0.7246152E+02  0.7816164E-02  0.1226708E+00
        -11   -1    0    0    0    0  0.00000000000E+00  0.00000000000E+00  0.45593999997E+02  0.45594000000E+02  0.51100000000E-03 0.  1.
         11   -1    0    0    0    0 -0.00000000000E+00 -0.00000000000E+00 -0.45593999997E+02  0.45594000000E+02  0.51100000000E-03 0. -1.
    9900012    2    1    2    0    0  0.17836414815E+02 -0.21361354568E-01 -0.57046341102E+01  0.72461521418E+02  0.69999936329E+02 0.  0.
         12    1    1    2    0    0 -0.17836414815E+02  0.21361354568E-01  0.57046341102E+01  0.18726478582E+02  0.00000000000E+00 0. -1.
         11    1    3    3    0    0  0.27250514251E+01 -0.17344053395E+01 -0.21798366485E+02  0.22036398273E+02  0.51100000000E-03 0. -1.
        -11    1    3    3    0    0 -0.12052019171E+02  0.24404285107E+01 -0.75297789265E+01  0.14418891370E+02  0.51100000000E-03 0.  1.
        -12    1    3    3    0    0  0.27163382561E+02 -0.72738452578E+00  0.23623511301E+02  0.36006231775E+02  0.00000000000E+00 0.  1.
</event>
<event>
 7    1  0.1692604E-013  0.7246157E+02  0.7816164E-02  0.1226708E+00
        -11   -1    0    0    0    0  0.00000000000E+00  0.00000000000E+00  0.45593999997E+02  0.45594000000E+02  0.51100000000E-03 0. -1.
         11   -1    0    0    0    0 -0.00000000000E+00 -0.00000000000E+00 -0.45593999997E+02  0.45594000000E+02  0.51100000000E-03 0.  1.
    9900012    2    1    2    0    0  0.10079892611E+02  0.61474818865E+01 -0.14535588907E+02  0.72461571791E+02  0.70000001949E+02 0.  0.
         12    1    1    2    0    0 -0.10079892611E+02 -0.61474818865E+01  0.14535588907E+02  0.18726428209E+02  0.00000000000E+00 0. -1.
         11    1    3    3    0    0 -0.13536314208E+02  0.19319900737E+02 -0.19789214987E+02  0.30791287678E+02  0.51100000000E-03 0. -1.
        -11    1    3    3    0    0  0.11104035831E+02 -0.40033280798E+01 -0.13104008314E+02  0.17636362483E+02  0.51100000000E-03 0.  1.
        -12    1    3    3    0    0  0.12512170988E+02 -0.91690907706E+01  0.18357634394E+02  0.24033921630E+02  0.00000000000E+00 0.  1.
</event>
<event>
 7    1  0.1692604E-013  0.7246111E+02  0.7816164E-02  0.1226709E+00
        -11   -1    0    0    0    0  0.00000000000E+00  0.00000000000E+00  0.45593999997E+02  0.45594000000E+02  0.51100000000E-03 0.  1.
         11   -1    0    0    0    0 -0.00000000000E+00 -0.00000000000E+00 -0.45593999997E+02  0.45594000000E+02  0.51100000000E-03 0. -1.
    9900012    2    1    2    0    0  0.10026696638E+02 -0.85443198271E+01  0.13310005622E+02  0.72461113007E+02  0.69999404296E+02 0.  0.
         12    1    1    2    0    0 -0.10026696638E+02  0.85443198271E+01 -0.13310005622E+02  0.18726886993E+02  0.00000000000E+00 0. -1.
         11    1    3    3    0    0 -0.59096140143E+01 -0.11908338819E+02 -0.23498547246E+01  0.13500144026E+02  0.51100000000E-03 0. -1.
        -11    1    3    3    0    0 -0.89472452369E+01  0.99168104297E+01  0.27548348040E+02  0.30615483116E+02  0.51100000000E-03 0.  1.
        -12    1    3    3    0    0  0.24883555890E+02 -0.65527914379E+01 -0.11888487693E+02  0.28345485866E+02  0.00000000000E+00 0.  1.
</event>
<event>
 7    1  0.1692604E-013  0.7246155E+02  0.7816164E-02  0.1226708E+00
        -11   -1    0    0    0    0  0.00000000000E+00  0.00000000000E+00  0.45593999997E+02  0.45594000000E+02  0.51100000000E-03 0.  1.
         11   -1    0    0    0    0 -0.00000000000E+00 -0.00000000000E+00 -0.45593999997E+02  0.45594000000E+02  0.51100000000E-03 0. -1.
    9900012    2    1    2    0    0 -0.10058782283E+02 -0.12635250807E+02  0.94789824095E+01  0.72461554222E+02  0.69999979063E+02 0.  0.
         12    1    1    2    0    0  0.10058782283E+02  0.12635250807E+02 -0.94789824095E+01  0.18726445778E+02  0.00000000000E+00 0. -1.
         11    1    3    3    0    0 -0.16255798413E+01  0.28462289334E+00  0.26937290649E+01  0.31590657714E+01  0.51100000000E-03 0. -1.
        -11    1    3    3    0    0  0.96186766173E+01  0.17767861776E+02  0.22626068698E+02  0.30334054080E+02  0.51100000000E-03 0.  1.
         12    1    3    3    0    0 -0.18051879059E+02 -0.30687735476E+02 -0.15840815353E+02  0.38968434370E+02  0.00000000000E+00 0. -1.
</event>
<event>
 7    1  0.1692604E-013  0.7246155E+02  0.7816164E-02  0.1226708E+00
        -11   -1    0    0    0    0  0.00000000000E+00  0.00000000000E+00  0.45593999997E+02  0.45594000000E+02  0.51100000000E-03 0. -1.
         11   -1    0    0    0    0 -0.00000000000E+00 -0.00000000000E+00 -0.45593999997E+02  0.45594000000E+02  0.51100000000E-03 0.  1.
    9900012    2    1    2    0    0 -0.17650464769E+02  0.13701911973E+01 -0.61043929668E+01  0.72461549616E+02  0.69999973063E+02 0.  0.
         12    1    1    2    0    0  0.17650464769E+02 -0.13701911973E+01  0.61043929668E+01  0.18726450384E+02  0.00000000000E+00 0. -1.
         11    1    3    3    0    0  0.12277299542E+02  0.11239401968E+02  0.58913276782E+01  0.17656839545E+02  0.51100000000E-03 0. -1.
        -11    1    3    3    0    0 -0.16651550059E+02  0.10273500007E+02 -0.21323513012E+02  0.28939784539E+02  0.51100000000E-03 0.  1.
         12    1    3    3    0    0 -0.13276214252E+02 -0.20142710777E+02  0.93277923669E+01  0.25864925532E+02  0.00000000000E+00 0. -1.
</event>
<event>
 7    1  0.1692604E-013  0.7246158E+02  0.7816164E-02  0.1226708E+00
        -11   -1    0    0    0    0  0.00000000000E+00  0.00000000000E+00  0.45593999997E+02  0.45594000000E+02  0.51100000000E-03 0. -1.
         11   -1    0    0    0    0 -0.00000000000E+00 -0.00000000000E+00 -0.45593999997E+02  0.45594000000E+02  0.51100000000E-03 0.  1.
    9900012    2    1    2    0    0  0.94636320702E+01 -0.71466390666E+01 -0.14492894382E+02  0.72461580975E+02  0.70000013914E+02 0.  0.
         12    1    1    2    0    0 -0.94636320702E+01  0.71466390666E+01  0.14492894382E+02  0.18726419025E+02  0.00000000000E+00 0. -1.
         11    1    3    3    0    0 -0.67536168495E+01 -0.14778401537E+02 -0.71355383755E+01  0.17746222153E+02  0.51100000000E-03 0. -1.
        -11    1    3    3    0    0  0.27054842430E+02 -0.57267022108E+01 -0.19344719488E+02  0.33748745005E+02  0.51100000000E-03 0.  1.
         12    1    3    3    0    0 -0.10837593510E+02  0.13358464681E+02  0.11987363481E+02  0.20966613817E+02  0.00000000000E+00 0. -1.
</event>
<event>
 7    1  0.1692604E-013  0.7246149E+02  0.7816164E-02  0.1226708E+00
        -11   -1    0    0    0    0  0.00000000000E+00  0.00000000000E+00  0.45593999997E+02  0.45594000000E+02  0.51100000000E-03 0. -1.
         11   -1    0    0    0    0 -0.00000000000E+00 -0.00000000000E+00 -0.45593999997E+02  0.45594000000E+02  0.51100000000E-03 0.  1.
    9900012    2    1    2    0    0 -0.91930734826E+01 -0.15411755470E+02 -0.53523347085E+01  0.72461486882E+02  0.69999891340E+02 0.  0.
         12    1    1    2    0    0  0.91930734826E+01  0.15411755470E+02  0.53523347085E+01  0.18726513118E+02  0.00000000000E+00 0. -1.
         11    1    3    3    0    0  0.18401579140E+01 -0.15111889211E+01 -0.59414174604E+01  0.64008057933E+01  0.51100000000E-03 0. -1.
        -11    1    3    3    0    0  0.13363442453E+02 -0.17980947794E+02 -0.22838193857E+02  0.31991861101E+02  0.51100000000E-03 0.  1.
         12    1    3    3    0    0 -0.24396673850E+02  0.40803812451E+01  0.23427276609E+02  0.34068819988E+02  0.00000000000E+00 0. -1.
</event>
<event>
 7    1  0.1692604E-013  0.7246171E+02  0.7816164E-02  0.1226708E+00
        -11   -1    0    0    0    0  0.00000000000E+00  0.00000000000E+00  0.45593999997E+02  0.45594000000E+02  0.51100000000E-03 0.  1.
         11   -1    0    0    0    0 -0.00000000000E+00 -0.00000000000E+00 -0.45593999997E+02  0.45594000000E+02  0.51100000000E-03 0. -1.
    9900012    2    1    2    0    0 -0.11148174364E+02  0.30528134323E+01 -0.14733377004E+02  0.72461712075E+02  0.70000184696E+02 0.  0.
         12    1    1    2    0    0  0.11148174364E+02 -0.30528134323E+01  0.14733377004E+02  0.18726287925E+02  0.00000000000E+00 0. -1.
         11    1    3    3    0    0 -0.22059833429E+02 -0.30140831910E+00 -0.15441575713E+02  0.26928968763E+02  0.51100000000E-03 0. -1.
        -11    1    3    3    0    0 -0.16775150624E+02  0.25004230282E+01  0.45687118138E+01  0.17565048297E+02  0.51100000000E-03 0.  1.
         12    1    3    3    0    0  0.27686809689E+02  0.85379872315E+00 -0.38605131040E+01  0.27967695015E+02  0.00000000000E+00 0. -1.
</event>
<event>
 7    1  0.1692604E-013  0.7246153E+02  0.7816164E-02  0.1226708E+00
        -11   -1    0    0    0    0  0.00000000000E+00  0.00000000000E+00  0.45593999997E+02  0.45594000000E+02  0.51100000000E-03 0. -1.
         11   -1    0    0    0    0 -0.00000000000E+00 -0.00000000000E+00 -0.45593999997E+02  0.45594000000E+02  0.51100000000E-03 0.  1.
    9900012    2    1    2    0    0  0.84376121855E+01  0.28491500549E+01 -0.16473300464E+02  0.72461532538E+02  0.69999950815E+02 0.  0.
         12    1    1    2    0    0 -0.84376121855E+01 -0.28491500549E+01  0.16473300464E+02  0.18726467462E+02  0.00000000000E+00 0. -1.
         11    1    3    3    0    0 -0.14213957760E+02  0.10424214387E+02 -0.14896073557E+02  0.23077994897E+02  0.51100000000E-03 0. -1.
        -11    1    3    3    0    0 -0.43240855039E+01  0.37482071664E+01  0.14791490516E+02  0.15859853857E+02  0.51100000000E-03 0.  1.
        -12    1    3    3    0    0  0.26975655450E+02 -0.11323271498E+02 -0.16368717424E+02  0.33523683784E+02  0.00000000000E+00 0.  1.
</event>
<event>
 7    1  0.1692604E-013  0.7246203E+02  0.7816164E-02  0.1226707E+00
        -11   -1    0    0    0    0  0.00000000000E+00  0.00000000000E+00  0.45593999997E+02  0.45594000000E+02  0.51100000000E-03 0. -1.
         11   -1    0    0    0    0 -0.00000000000E+00 -0.00000000000E+00 -0.45593999997E+02  0.45594000000E+02  0.51100000000E-03 0.  1.
    9900012    2    1    2    0    0  0.10162743168E+01  0.26215905452E+01 -0.18513686081E+02  0.72462025452E+02  0.70000592924E+02 0.  0.
         12    1    1    2    0    0 -0.10162743168E+01 -0.26215905452E+01  0.18513686081E+02  0.18725974548E+02  0.00000000000E+00 0. -1.
         11    1    3    3    0    0 -0.64346285966E+01 -0.81667038906E+01  0.84471174000E+01  0.13396017701E+02  0.51100000000E-03 0. -1.
        -11    1    3    3    0    0 -0.11829628916E+02 -0.12570158034E+02  0.17284887619E+01  0.17347526249E+02  0.51100000000E-03 0.  1.
         12    1    3    3    0    0  0.19280531829E+02  0.23358452470E+02 -0.28689292243E+02  0.41718481502E+02  0.00000000000E+00 0. -1.
</event>
<event>
 7    1  0.1692604E-013  0.7246158E+02  0.7816164E-02  0.1226708E+00
        -11   -1    0    0    0    0  0.00000000000E+00  0.00000000000E+00  0.45593999997E+02  0.45594000000E+02  0.51100000000E-03 0. -1.
         11   -1    0    0    0    0 -0.00000000000E+00 -0.00000000000E+00 -0.45593999997E+02  0.45594000000E+02  0.51100000000E-03 0.  1.
    9900012    2    1    2    0    0  0.97190531863E+01 -0.15713157345E+02  0.30521421826E+01  0.72461578012E+02  0.70000010053E+02 0.  0.
         12    1    1    2    0    0 -0.97190531863E+01  0.15713157345E+02 -0.30521421826E+01  0.18726421988E+02  0.00000000000E+00 0. -1.
         11    1    3    3    0    0  0.15799044098E+01  0.70624372943E+00  0.34993625322E+01  0.39038976091E+01  0.51100000000E-03 0. -1.
        -11    1    3    3    0    0  0.28121584118E+02 -0.32252863986E+02  0.26621741178E+01  0.42873743712E+02  0.51100000000E-03 0.  1.
        -12    1    3    3    0    0 -0.19982435341E+02  0.15833462912E+02 -0.31093944674E+01  0.25683936690E+02  0.00000000000E+00 0.  1.
</event>
<event>
 7    1  0.1692604E-013  0.7246158E+02  0.7816164E-02  0.1226708E+00
        -11   -1    0    0    0    0  0.00000000000E+00  0.00000000000E+00  0.45593999997E+02  0.45594000000E+02  0.51100000000E-03 0.  1.
         11   -1    0    0    0    0 -0.00000000000E+00 -0.00000000000E+00 -0.45593999997E+02  0.45594000000E+02  0.51100000000E-03 0. -1.
    9900012    2    1    2    0    0 -0.12562700987E+02 -0.61507036978E+01  0.12450952484E+02  0.72461579364E+02  0.70000011815E+02 0.  0.
         12    1    1    2    0    0  0.12562700987E+02  0.61507036978E+01 -0.12450952484E+02  0.18726420636E+02  0.00000000000E+00 0. -1.
         11    1    3    3    0    0  0.32055326180E+00 -0.36013110323E+01  0.30865559313E+02  0.31076598069E+02  0.51100000000E-03 0.  1.
        -11    1    3    3    0    0  0.10533823452E+02 -0.48004683304E+01 -0.10852547434E+00  0.11576601865E+02  0.51100000000E-03 0. -1.
         12    1    3    3    0    0 -0.23417077701E+02  0.22510756650E+01 -0.18306081355E+02  0.29808379430E+02  0.00000000000E+00 0. -1.
</event>
<event>
 7    1  0.1692604E-013  0.7246159E+02  0.7816164E-02  0.1226708E+00
        -11   -1    0    0    0    0  0.00000000000E+00  0.00000000000E+00  0.45593999997E+02  0.45594000000E+02  0.51100000000E-03 0.  1.
         11   -1    0    0    0    0 -0.00000000000E+00 -0.00000000000E+00 -0.45593999997E+02  0.45594000000E+02  0.51100000000E-03 0. -1.
    9900012    2    1    2    0    0 -0.56771312775E+01  0.11253451407E+02 -0.13849491978E+02  0.72461590410E+02  0.70000026204E+02 0.  0.
         12    1    1    2    0    0  0.56771312775E+01 -0.11253451407E+02  0.13849491978E+02  0.18726409590E+02  0.00000000000E+00 0. -1.
         11    1    3    3    0    0 -0.12240493744E+02  0.10908194902E+02 -0.68190572227E+01  0.17757194169E+02  0.51100000000E-03 0.  1.
        -11    1    3    3    0    0  0.21619359842E+02  0.10814953575E+02  0.13082229222E+02  0.27486445068E+02  0.51100000000E-03 0. -1.
         12    1    3    3    0    0 -0.15055997376E+02 -0.10469697071E+02 -0.20112663977E+02  0.27217951172E+02  0.00000000000E+00 0. -1.
</event>
<event>
 7    1  0.1692604E-013  0.7246115E+02  0.7816164E-02  0.1226709E+00
        -11   -1    0    0    0    0  0.00000000000E+00  0.00000000000E+00  0.45593999997E+02  0.45594000000E+02  0.51100000000E-03 0. -1.
         11   -1    0    0    0    0 -0.00000000000E+00 -0.00000000000E+00 -0.45593999997E+02  0.45594000000E+02  0.51100000000E-03 0.  1.
    9900012    2    1    2    0    0  0.48810562530E+01 -0.10589916352E+02 -0.14653461256E+02  0.72461148549E+02  0.69999450596E+02 0.  0.
         12    1    1    2    0    0 -0.48810562530E+01  0.10589916352E+02  0.14653461256E+02  0.18726851451E+02  0.00000000000E+00 0. -1.
         11    1    3    3    0    0 -0.72045889267E+01 -0.24949875344E+01  0.50898638851E+01  0.91672121732E+01  0.51100000000E-03 0. -1.
        -11    1    3    3    0    0  0.53564834372E+01 -0.22217457401E+02  0.13507205920E+02  0.26547164447E+02  0.51100000000E-03 0.  1.
        -12    1    3    3    0    0  0.67291617424E+01  0.14122528583E+02 -0.33250531061E+02  0.36746771928E+02  0.00000000000E+00 0.  1.
</event>
<event>
 7    1  0.1692604E-013  0.7246180E+02  0.7816164E-02  0.1226707E+00
        -11   -1    0    0    0    0  0.00000000000E+00  0.00000000000E+00  0.45593999997E+02  0.45594000000E+02  0.51100000000E-03 0. -1.
         11   -1    0    0    0    0 -0.00000000000E+00 -0.00000000000E+00 -0.45593999997E+02  0.45594000000E+02  0.51100000000E-03 0.  1.
    9900012    2    1    2    0    0 -0.11257644878E+02  0.70213011217E+01 -0.13215037328E+02  0.72461803130E+02  0.70000303311E+02 0.  0.
         12    1    1    2    0    0  0.11257644878E+02 -0.70213011217E+01  0.13215037328E+02  0.18726196870E+02  0.00000000000E+00 0. -1.
         11    1    3    3    0    0 -0.10729694492E+02 -0.66827687575E+01 -0.15107714895E+01  0.12730599864E+02  0.51100000000E-03 0. -1.
        -11    1    3    3    0    0 -0.11363312041E+01 -0.10720747771E+02 -0.28240852037E+02  0.30228652061E+02  0.51100000000E-03 0.  1.
         12    1    3    3    0    0  0.60838081739E+00  0.24424817650E+02  0.16536586199E+02  0.29502551204E+02  0.00000000000E+00 0. -1.
</event>
<event>
 7    1  0.1692604E-013  0.7246165E+02  0.7816164E-02  0.1226708E+00
        -11   -1    0    0    0    0  0.00000000000E+00  0.00000000000E+00  0.45593999997E+02  0.45594000000E+02  0.51100000000E-03 0.  1.
         11   -1    0    0    0    0 -0.00000000000E+00 -0.00000000000E+00 -0.45593999997E+02  0.45594000000E+02  0.51100000000E-03 0. -1.
    9900012    2    1    2    0    0 -0.12507982268E+01 -0.15500054291E+02  0.10433608253E+02  0.72461645298E+02  0.70000097706E+02 0.  0.
         12    1    1    2    0    0  0.12507982268E+01  0.15500054291E+02 -0.10433608253E+02  0.18726354702E+02  0.00000000000E+00 0. -1.
         11    1    3    3    0    0  0.93900765741E+01  0.20663021375E+02 -0.17633707575E+01  0.22764961391E+02  0.51100000000E-03 0. -1.
        -11    1    3    3    0    0 -0.34789290013E+01 -0.38058635620E+01  0.15554315339E+02  0.16386710175E+02  0.51100000000E-03 0.  1.
        -12    1    3    3    0    0 -0.71619457997E+01 -0.32357212105E+02 -0.33573363280E+01  0.33309973732E+02  0.00000000000E+00 0.  1.
</event>
<event>
 7    1  0.1692604E-013  0.7246160E+02  0.7816164E-02  0.1226708E+00
        -11   -1    0    0    0    0  0.00000000000E+00  0.00000000000E+00  0.45593999997E+02  0.45594000000E+02  0.51100000000E-03 0. -1.
         11   -1    0    0    0    0 -0.00000000000E+00 -0.00000000000E+00 -0.45593999997E+02  0.45594000000E+02  0.51100000000E-03 0.  1.
    9900012    2    1    2    0    0 -0.10035763695E+02 -0.12188223065E+02 -0.10070198998E+02  0.72461595051E+02  0.70000032251E+02 0.  0.
         12    1    1    2    0    0  0.10035763695E+02  0.12188223065E+02  0.10070198998E+02  0.18726404949E+02  0.00000000000E+00 0. -1.
         11    1    3    3    0    0  0.61672522362E+01 -0.77241593804E+01  0.60398796678E+01  0.11583513497E+02  0.51100000000E-03 0. -1.
        -11    1    3    3    0    0 -0.50224343060E+01 -0.29449812122E+02 -0.16506898992E+01  0.29920579168E+02  0.51100000000E-03 0.  1.
         12    1    3    3    0    0 -0.11180581625E+02  0.24985748437E+02 -0.14459388767E+02  0.30957502386E+02  0.00000000000E+00 0. -1.
</event>
<event>
 7    1  0.1692604E-013  0.7246157E+02  0.7816164E-02  0.1226708E+00
        -11   -1    0    0    0    0  0.00000000000E+00  0.00000000000E+00  0.45593999997E+02  0.45594000000E+02  0.51100000000E-03 0.  1.
         11   -1    0    0    0    0 -0.00000000000E+00 -0.00000000000E+00 -0.45593999997E+02  0.45594000000E+02  0.51100000000E-03 0. -1.
    9900012    2    1    2    0    0  0.70470621846E+01 -0.17286687445E+02  0.14794225217E+01  0.72461565763E+02  0.69999994097E+02 0.  0.
         12    1    1    2    0    0 -0.70470621846E+01  0.17286687445E+02 -0.14794225217E+01  0.18726434237E+02  0.00000000000E+00 0. -1.
         11    1    3    3    0    0 -0.17478399668E+01 -0.31229045955E+01 -0.14050504780E+02  0.14499109024E+02  0.51100000000E-03 0. -1.
        -11    1    3    3    0    0  0.13927312844E+02 -0.33265691358E+02  0.10126313976E+02  0.37458223391E+02  0.51100000000E-03 0.  1.
         12    1    3    3    0    0 -0.51324106923E+01  0.19101908509E+02  0.54036133256E+01  0.20504233348E+02  0.00000000000E+00 0. -1.
</event>
<event>
 7    1  0.1692604E-013  0.7246157E+02  0.7816164E-02  0.1226708E+00
        -11   -1    0    0    0    0  0.00000000000E+00  0.00000000000E+00  0.45593999997E+02  0.45594000000E+02  0.51100000000E-03 0.  1.
         11   -1    0    0    0    0 -0.00000000000E+00 -0.00000000000E+00 -0.45593999997E+02  0.45594000000E+02  0.51100000000E-03 0. -1.
    9900012    2    1    2    0    0  0.11230771810E+01  0.13541442610E+02  0.12885931144E+02  0.72461569701E+02  0.69999999227E+02 0.  0.
         12    1    1    2    0    0 -0.11230771810E+01 -0.13541442610E+02 -0.12885931144E+02  0.18726430299E+02  0.00000000000E+00 0. -1.
         11    1    3    3    0    0 -0.22897530678E+01 -0.28502751728E+01  0.13078146321E+02  0.13579578385E+02  0.51100000000E-03 0. -1.
        -11    1    3    3    0    0  0.21005966579E+02  0.21942767109E+02  0.16002646981E+02  0.34333953617E+02  0.51100000000E-03 0.  1.
         12    1    3    3    0    0 -0.17593136330E+02 -0.55510493259E+01 -0.16194862158E+02  0.24548037699E+02  0.00000000000E+00 0. -1.
</event>
<event>
 7    1  0.1692604E-013  0.7246187E+02  0.7816164E-02  0.1226707E+00
        -11   -1    0    0    0    0  0.00000000000E+00  0.00000000000E+00  0.45593999997E+02  0.45594000000E+02  0.51100000000E-03 0. -1.
         11   -1    0    0    0    0 -0.00000000000E+00 -0.00000000000E+00 -0.45593999997E+02  0.45594000000E+02  0.51100000000E-03 0.  1.
    9900012    2    1    2    0    0  0.65524430765E+01  0.36305586307E+01 -0.17162536586E+02  0.72461865100E+02  0.70000384038E+02 0.  0.
         12    1    1    2    0    0 -0.65524430765E+01 -0.36305586307E+01  0.17162536586E+02  0.18726134900E+02  0.00000000000E+00 0. -1.
         11    1    3    3    0    0 -0.17177928259E+02 -0.73691999440E+01 -0.84557044247E+01  0.20515488409E+02  0.51100000000E-03 0. -1.
        -11    1    3    3    0    0  0.15900007161E+02 -0.10584386743E+02 -0.18858378195E+02  0.26841719372E+02  0.51100000000E-03 0.  1.
        -12    1    3    3    0    0  0.78303641750E+01  0.21584145317E+02  0.10151546034E+02  0.25104657318E+02  0.00000000000E+00 0.  1.
</event>
<event>
 7    1  0.1692604E-013  0.7246157E+02  0.7816164E-02  0.1226708E+00
        -11   -1    0    0    0    0  0.00000000000E+00  0.00000000000E+00  0.45593999997E+02  0.45594000000E+02  0.51100000000E-03 0.  1.
         11   -1    0    0    0    0 -0.00000000000E+00 -0.00000000000E+00 -0.45593999997E+02  0.45594000000E+02  0.51100000000E-03 0. -1.
    9900012    2    1    2    0    0  0.73818368956E+01  0.14488449100E+02  0.92882913732E+01  0.72461574022E+02  0.70000004856E+02 0.  0.
         12    1    1    2    0    0 -0.73818368956E+01 -0.14488449100E+02 -0.92882913732E+01  0.18726425978E+02  0.00000000000E+00 0. -1.
         11    1    3    3    0    0 -0.13971011408E+02 -0.79450364889E+01  0.34251338755E+01  0.16433024885E+02  0.51100000000E-03 0. -1.
        -11    1    3    3    0    0 -0.66612456472E+01  0.11157363083E+02  0.19063543938E+02  0.23071143280E+02  0.51100000000E-03 0.  1.
        -12    1    3    3    0    0  0.28014093950E+02  0.11276122506E+02 -0.13200386440E+02  0.32957405857E+02  0.00000000000E+00 0.  1.
</event>
<event>
 7    1  0.1692604E-013  0.7246171E+02  0.7816164E-02  0.1226708E+00
        -11   -1    0    0    0    0  0.00000000000E+00  0.00000000000E+00  0.45593999997E+02  0.45594000000E+02  0.51100000000E-03 0.  1.
         11   -1    0    0    0    0 -0.00000000000E+00 -0.00000000000E+00 -0.45593999997E+02  0.45594000000E+02  0.51100000000E-03 0. -1.
    9900012    2    1    2    0    0 -0.11106603338E+02 -0.76374715565E+01  0.12999480435E+02  0.72461705624E+02  0.70000176292E+02 0.  0.
         12    1    1    2    0    0  0.11106603338E+02  0.76374715565E+01 -0.12999480435E+02  0.18726294376E+02  0.00000000000E+00 0. -1.
         11    1    3    3    0    0 -0.36522914429E+01 -0.14536680237E+02 -0.16090232606E+02  0.21989767863E+02  0.51100000000E-03 0. -1.
        -11    1    3    3    0    0  0.56440817137E+01  0.64037244989E+01 -0.76510092617E+01  0.11463040122E+02  0.51100000000E-03 0.  1.
        -12    1    3    3    0    0 -0.13098393609E+02  0.49548418123E+00  0.36740722303E+02  0.39008897639E+02  0.00000000000E+00 0.  1.
</event>
<event>
 7    1  0.1692604E-013  0.7246156E+02  0.7816164E-02  0.1226708E+00
        -11   -1    0    0    0    0  0.00000000000E+00  0.00000000000E+00  0.45593999997E+02  0.45594000000E+02  0.51100000000E-03 0.  1.
         11   -1    0    0    0    0 -0.00000000000E+00 -0.00000000000E+00 -0.45593999997E+02  0.45594000000E+02  0.51100000000E-03 0. -1.
    9900012    2    1    2    0    0  0.14183319843E+02 -0.47903490778E+01  0.11250142708E+02  0.72461555676E+02  0.69999980957E+02 0.  0.
         12    1    1    2    0    0 -0.14183319843E+02  0.47903490778E+01 -0.11250142708E+02  0.18726444324E+02  0.00000000000E+00 0. -1.
         11    1    3    3    0    0  0.44724683882E+01 -0.26158090131E+00  0.81833123891E+00  0.45542358667E+01  0.51100000000E-03 0. -1.
        -11    1    3    3    0    0  0.32023873561E+02 -0.63918152841E+01  0.25058968174E+02  0.41162308811E+02  0.51100000000E-03 0.  1.
         12    1    3    3    0    0 -0.22313022106E+02  0.18630471076E+01 -0.14627156704E+02  0.26745010998E+02  0.00000000000E+00 0. -1.
</event>
<event>
 7    1  0.1692604E-013  0.7246178E+02  0.7816164E-02  0.1226707E+00
        -11   -1    0    0    0    0  0.00000000000E+00  0.00000000000E+00  0.45593999997E+02  0.45594000000E+02  0.51100000000E-03 0.  1.
         11   -1    0    0    0    0 -0.00000000000E+00 -0.00000000000E+00 -0.45593999997E+02  0.45594000000E+02  0.51100000000E-03 0. -1.
    9900012    2    1    2    0    0  0.18018354562E+02  0.49190861939E+01  0.13463808688E+01  0.72461781707E+02  0.70000275403E+02 0.  0.
         12    1    1    2    0    0 -0.18018354562E+02 -0.49190861939E+01 -0.13463808688E+01  0.18726218293E+02  0.00000000000E+00 0. -1.
         11    1    3    3    0    0  0.84244707250E+01  0.31207447166E+01 -0.79816339209E+01  0.12017372212E+02  0.51100000000E-03 0. -1.
        -11    1    3    3    0    0  0.31260862916E+02  0.51889197640E+01  0.18476910400E+02  0.36681911848E+02  0.51100000000E-03 0.  1.
         12    1    3    3    0    0 -0.21666979079E+02 -0.33905782867E+01 -0.91488956107E+01  0.23762497647E+02  0.00000000000E+00 0. -1.
</event>
<event>
 7    1  0.1692604E-013  0.7246155E+02  0.7816164E-02  0.1226708E+00
        -11   -1    0    0    0    0  0.00000000000E+00  0.00000000000E+00  0.45593999997E+02  0.45594000000E+02  0.51100000000E-03 0. -1.
         11   -1    0    0    0    0 -0.00000000000E+00 -0.00000000000E+00 -0.45593999997E+02  0.45594000000E+02  0.51100000000E-03 0.  1.
    9900012    2    1    2    0    0  0.17404451861E+02  0.58508307674E+01  0.36786832262E+01  0.72461551443E+02  0.69999975443E+02 0.  0.
         12    1    1    2    0    0 -0.17404451861E+02 -0.58508307674E+01 -0.36786832262E+01  0.18726448557E+02  0.00000000000E+00 0. -1.
         11    1    3    3    0    0  0.58493063112E+01 -0.85693653153E+01 -0.66125236631E+00  0.10396425404E+02  0.51100000000E-03 0. -1.
        -11    1    3    3    0    0  0.13971337838E+02 -0.61310485844E+01 -0.23108260525E+02  0.27690788044E+02  0.51100000000E-03 0.  1.
         12    1    3    3    0    0 -0.24161922879E+01  0.20551244667E+02  0.27448196117E+02  0.34374337996E+02  0.00000000000E+00 0. -1.
</event>
<event>
 7    1  0.1692604E-013  0.7246155E+02  0.7816164E-02  0.1226708E+00
        -11   -1    0    0    0    0  0.00000000000E+00  0.00000000000E+00  0.45593999997E+02  0.45594000000E+02  0.51100000000E-03 0. -1.
         11   -1    0    0    0    0 -0.00000000000E+00 -0.00000000000E+00 -0.45593999997E+02  0.45594000000E+02  0.51100000000E-03 0.  1.
    9900012    2    1    2    0    0  0.17856721202E+02  0.26485438131E+01 -0.49802338762E+01  0.72461547963E+02  0.69999970910E+02 0.  0.
         12    1    1    2    0    0 -0.17856721202E+02 -0.26485438131E+01  0.49802338762E+01  0.18726452037E+02  0.00000000000E+00 0. -1.
         11    1    3    3    0    0 -0.77237510902E+01  0.10398869827E+02  0.73611796760E+01  0.14898986243E+02  0.51100000000E-03 0. -1.
        -11    1    3    3    0    0 -0.12077722758E+02  0.34426832370E+01  0.63311979517E+01  0.14064406232E+02  0.51100000000E-03 0.  1.
        -12    1    3    3    0    0  0.37658195050E+02 -0.11193009251E+02 -0.18672611504E+02  0.43498155489E+02  0.00000000000E+00 0.  1.
</event>
<event>
 7    1  0.1692604E-013  0.7246145E+02  0.7816164E-02  0.1226708E+00
        -11   -1    0    0    0    0  0.00000000000E+00  0.00000000000E+00  0.45593999997E+02  0.45594000000E+02  0.51100000000E-03 0. -1.
         11   -1    0    0    0    0 -0.00000000000E+00 -0.00000000000E+00 -0.45593999997E+02  0.45594000000E+02  0.51100000000E-03 0.  1.
    9900012    2    1    2    0    0  0.14964283391E+02 -0.94364204695E+01 -0.61406669027E+01  0.72461452035E+02  0.69999845945E+02 0.  0.
         12    1    1    2    0    0 -0.14964283391E+02  0.94364204695E+01  0.61406669027E+01  0.18726547965E+02  0.00000000000E+00 0. -1.
         11    1    3    3    0    0 -0.13139062103E+02  0.40214825894E+01  0.16206776811E+02  0.21247750235E+02  0.51100000000E-03 0. -1.
        -11    1    3    3    0    0  0.14396337615E+02  0.10680697464E+02 -0.55365406394E+01  0.18761266416E+02  0.51100000000E-03 0.  1.
        -12    1    3    3    0    0  0.13707007880E+02 -0.24138600523E+02 -0.16810903074E+02  0.32452435384E+02  0.00000000000E+00 0.  1.
</event>
<event>
 7    1  0.1692604E-013  0.7246155E+02  0.7816164E-02  0.1226708E+00
        -11   -1    0    0    0    0  0.00000000000E+00  0.00000000000E+00  0.45593999997E+02  0.45594000000E+02  0.51100000000E-03 0.  1.
         11   -1    0    0    0    0 -0.00000000000E+00 -0.00000000000E+00 -0.45593999997E+02  0.45594000000E+02  0.51100000000E-03 0. -1.
    9900012    2    1    2    0    0 -0.13811625516E+02  0.11543625336E+02  0.51636680406E+01  0.72461554717E+02  0.69999979708E+02 0.  0.
         12    1    1    2    0    0  0.13811625516E+02 -0.11543625336E+02 -0.51636680406E+01  0.18726445283E+02  0.00000000000E+00 0. -1.
         11    1    3    3    0    0 -0.37665828686E+01 -0.10991600686E+02 -0.10256597915E+02  0.15498394536E+02  0.51100000000E-03 0. -1.
        -11    1    3    3    0    0  0.18865554215E+02  0.14815729041E+02  0.17109545760E+01  0.24048749005E+02  0.51100000000E-03 0.  1.
        -12    1    3    3    0    0 -0.28910596863E+02  0.77194969811E+01  0.13709311380E+02  0.32914411177E+02  0.00000000000E+00 0.  1.
</event>
<event>
 7    1  0.1692604E-013  0.7246202E+02  0.7816164E-02  0.1226707E+00
        -11   -1    0    0    0    0  0.00000000000E+00  0.00000000000E+00  0.45593999997E+02  0.45594000000E+02  0.51100000000E-03 0.  1.
         11   -1    0    0    0    0 -0.00000000000E+00 -0.00000000000E+00 -0.45593999997E+02  0.45594000000E+02  0.51100000000E-03 0. -1.
    9900012    2    1    2    0    0 -0.48186174154E+01 -0.18076829591E+02 -0.81953786318E+00  0.72462015802E+02  0.70000580355E+02 0.  0.
         12    1    1    2    0    0  0.48186174154E+01  0.18076829591E+02  0.81953786318E+00  0.18725984198E+02  0.00000000000E+00 0. -1.
         11    1    3    3    0    0 -0.14635408901E+02  0.76558616406E+01 -0.11190202129E+01  0.16554746077E+02  0.51100000000E-03 0. -1.
        -11    1    3    3    0    0  0.14598713694E+01 -0.22906071060E+02  0.22424310042E+02  0.32088455820E+02  0.51100000000E-03 0.  1.
         12    1    3    3    0    0  0.83569201165E+01 -0.28266201720E+01 -0.22124827693E+02  0.23818813905E+02  0.00000000000E+00 0. -1.
</event>
<event>
 7    1  0.1692604E-013  0.7246152E+02  0.7816164E-02  0.1226708E+00
        -11   -1    0    0    0    0  0.00000000000E+00  0.00000000000E+00  0.45593999997E+02  0.45594000000E+02  0.51100000000E-03 0.  1.
         11   -1    0    0    0    0 -0.00000000000E+00 -0.00000000000E+00 -0.45593999997E+02  0.45594000000E+02  0.51100000000E-03 0. -1.
    9900012    2    1    2    0    0  0.49627261013E+01 -0.18047896297E+02 -0.57086982678E+00  0.72461518658E+02  0.69999932734E+02 0.  0.
         12    1    1    2    0    0 -0.49627261013E+01  0.18047896297E+02  0.57086982678E+00  0.18726481342E+02  0.00000000000E+00 0. -1.
         11    1    3    3    0    0  0.12243970480E+02 -0.11868360824E+02 -0.82808162777E+01  0.18956389959E+02  0.51100000000E-03 0. -1.
        -11    1    3    3    0    0  0.21630248149E+02  0.41741099055E+01  0.88894892595E+00  0.22047246062E+02  0.51100000000E-03 0.  1.
        -12    1    3    3    0    0 -0.28911492528E+02 -0.10353645378E+02  0.68209975250E+01  0.31457882637E+02  0.00000000000E+00 0.  1.
</event>
<event>
 7    1  0.1692604E-013  0.7246152E+02  0.7816164E-02  0.1226708E+00
        -11   -1    0    0    0    0  0.00000000000E+00  0.00000000000E+00  0.45593999997E+02  0.45594000000E+02  0.51100000000E-03 0.  1.
         11   -1    0    0    0    0 -0.00000000000E+00 -0.00000000000E+00 -0.45593999997E+02  0.45594000000E+02  0.51100000000E-03 0. -1.
    9900012    2    1    2    0    0 -0.10339969097E+01  0.38232260600E+01  0.18302860080E+02  0.72461524244E+02  0.69999940011E+02 0.  0.
         12    1    1    2    0    0  0.10339969097E+01 -0.38232260600E+01 -0.18302860080E+02  0.18726475756E+02  0.00000000000E+00 0. -1.
         11    1    3    3    0    0  0.64583099349E+01 -0.82028482229E+00  0.61824472683E+01  0.89780448257E+01  0.51100000000E-03 0. -1.
        -11    1    3    3    0    0 -0.10337998072E+02 -0.27842544466E+02  0.61945445332E+01  0.30338982658E+02  0.51100000000E-03 0.  1.
         12    1    3    3    0    0  0.28456912272E+01  0.32486055348E+02  0.59258682787E+01  0.33144496761E+02  0.00000000000E+00 0. -1.
</event>
<event>
 7    1  0.1692604E-013  0.7246161E+02  0.7816164E-02  0.1226708E+00
        -11   -1    0    0    0    0  0.00000000000E+00  0.00000000000E+00  0.45593999997E+02  0.45594000000E+02  0.51100000000E-03 0. -1.
         11   -1    0    0    0    0 -0.00000000000E+00 -0.00000000000E+00 -0.45593999997E+02  0.45594000000E+02  0.51100000000E-03 0.  1.
    9900012    2    1    2    0    0  0.16902501601E+02 -0.80179597802E+01 -0.83394803804E+00  0.72461609298E+02  0.70000050809E+02 0.  0.
         12    1    1    2    0    0 -0.16902501601E+02  0.80179597802E+01  0.83394803804E+00  0.18726390702E+02  0.00000000000E+00 0. -1.
         11    1    3    3    0    0  0.19737786154E+02 -0.14823082141E+01  0.11229714992E+02  0.22757063496E+02  0.51100000000E-03 0. -1.
        -11    1    3    3    0    0  0.12158242462E+01  0.20408457950E+02 -0.88170257690E+01  0.22264845118E+02  0.51100000000E-03 0.  1.
        -12    1    3    3    0    0 -0.40511087989E+01 -0.26944109516E+02 -0.32466372606E+01  0.27439700683E+02  0.00000000000E+00 0.  1.
</event>
<event>
 7    1  0.1692604E-013  0.7246160E+02  0.7816164E-02  0.1226708E+00
        -11   -1    0    0    0    0  0.00000000000E+00  0.00000000000E+00  0.45593999997E+02  0.45594000000E+02  0.51100000000E-03 0. -1.
         11   -1    0    0    0    0 -0.00000000000E+00 -0.00000000000E+00 -0.45593999997E+02  0.45594000000E+02  0.51100000000E-03 0.  1.
    9900012    2    1    2    0    0 -0.74720856069E+01  0.17117386481E+02  0.13569031944E+01  0.72461596994E+02  0.70000034782E+02 0.  0.
         12    1    1    2    0    0  0.74720856069E+01 -0.17117386481E+02 -0.13569031944E+01  0.18726403006E+02  0.00000000000E+00 0. -1.
         11    1    3    3    0    0 -0.46755710124E+01 -0.13187747317E+02  0.16913135024E+02  0.21950666965E+02  0.51100000000E-03 0. -1.
        -11    1    3    3    0    0 -0.16807103014E+02  0.25663674082E+02 -0.24547334074E+01  0.30775454432E+02  0.51100000000E-03 0.  1.
         12    1    3    3    0    0  0.14010588419E+02  0.46414597158E+01 -0.13101498422E+02  0.19735475598E+02  0.00000000000E+00 0. -1.
</event>
<event>
 7    1  0.1692604E-013  0.7246161E+02  0.7816164E-02  0.1226708E+00
        -11   -1    0    0    0    0  0.00000000000E+00  0.00000000000E+00  0.45593999997E+02  0.45594000000E+02  0.51100000000E-03 0.  1.
         11   -1    0    0    0    0 -0.00000000000E+00 -0.00000000000E+00 -0.45593999997E+02  0.45594000000E+02  0.51100000000E-03 0. -1.
    9900012    2    1    2    0    0 -0.18643167383E+02 -0.14077709122E+01  0.10621751647E+01  0.72461608861E+02  0.70000050240E+02 0.  0.
         12    1    1    2    0    0  0.18643167383E+02  0.14077709122E+01 -0.10621751647E+01  0.18726391139E+02  0.00000000000E+00 0. -1.
         11    1    3    3    0    0  0.13896806444E+02  0.25347452227E+01  0.45232408647E+01  0.14832594880E+02  0.51100000000E-03 0. -1.
        -11    1    3    3    0    0  0.82276841288E+01  0.52470789795E+01  0.97554178220E+01  0.13798362261E+02  0.51100000000E-03 0.  1.
         12    1    3    3    0    0 -0.40767657956E+02 -0.91895951144E+01 -0.13216483522E+02  0.43830651720E+02  0.00000000000E+00 0. -1.
</event>
<event>
 7    1  0.1692604E-013  0.7246150E+02  0.7816164E-02  0.1226708E+00
        -11   -1    0    0    0    0  0.00000000000E+00  0.00000000000E+00  0.45593999997E+02  0.45594000000E+02  0.51100000000E-03 0.  1.
         11   -1    0    0    0    0 -0.00000000000E+00 -0.00000000000E+00 -0.45593999997E+02  0.45594000000E+02  0.51100000000E-03 0. -1.
    9900012    2    1    2    0    0  0.71158899608E+01  0.16252905187E+02 -0.59907563432E+01  0.72461495293E+02  0.69999902297E+02 0.  0.
         12    1    1    2    0    0 -0.71158899608E+01 -0.16252905187E+02  0.59907563432E+01  0.18726504707E+02  0.00000000000E+00 0. -1.
         11    1    3    3    0    0 -0.43167136888E+01 -0.37756795024E+01  0.30609326194E+01  0.65006985422E+01  0.51100000000E-03 0. -1.
        -11    1    3    3    0    0 -0.21097012685E+02 -0.56413207071E+00  0.95946945288E+01  0.23183191165E+02  0.51100000000E-03 0.  1.
         12    1    3    3    0    0  0.32529616334E+02  0.20592716760E+02 -0.18646383491E+02  0.42777605587E+02  0.00000000000E+00 0. -1.
</event>
<event>
 7    1  0.1692604E-013  0.7246171E+02  0.7816164E-02  0.1226708E+00
        -11   -1    0    0    0    0  0.00000000000E+00  0.00000000000E+00  0.45593999997E+02  0.45594000000E+02  0.51100000000E-03 0. -1.
         11   -1    0    0    0    0 -0.00000000000E+00 -0.00000000000E+00 -0.45593999997E+02  0.45594000000E+02  0.51100000000E-03 0.  1.
    9900012    2    1    2    0    0  0.48945800060E+01 -0.18006769715E+02 -0.15726261356E+01  0.72461713076E+02  0.70000186000E+02 0.  0.
         12    1    1    2    0    0 -0.48945800060E+01  0.18006769715E+02  0.15726261356E+01  0.18726286924E+02  0.00000000000E+00 0. -1.
         11    1    3    3    0    0  0.43673832474E+00 -0.49510136716E+01  0.10109501689E+02  0.11265225315E+02  0.51100000000E-03 0. -1.
        -11    1    3    3    0    0 -0.72178038008E+01 -0.94816847420E+01  0.22191928022E+02  0.25188900469E+02  0.51100000000E-03 0.  1.
        -12    1    3    3    0    0  0.11675645482E+02 -0.35740713010E+01 -0.33874055847E+02  0.36007587292E+02  0.00000000000E+00 0.  1.
</event>
<event>
 7    1  0.1692604E-013  0.7246156E+02  0.7816164E-02  0.1226708E+00
        -11   -1    0    0    0    0  0.00000000000E+00  0.00000000000E+00  0.45593999997E+02  0.45594000000E+02  0.51100000000E-03 0. -1.
         11   -1    0    0    0    0 -0.00000000000E+00 -0.00000000000E+00 -0.45593999997E+02  0.45594000000E+02  0.51100000000E-03 0.  1.
    9900012    2    1    2    0    0 -0.16292009295E+02 -0.78211531637E+01 -0.49070992160E+01  0.72461558096E+02  0.69999984109E+02 0.  0.
         12    1    1    2    0    0  0.16292009295E+02  0.78211531637E+01  0.49070992160E+01  0.18726441904E+02  0.00000000000E+00 0. -1.
         11    1    3    3    0    0 -0.24006394353E+02 -0.23732211117E+01  0.50437574270E+01  0.24645053003E+02  0.51100000000E-03 0. -1.
        -11    1    3    3    0    0  0.13649058983E+01 -0.75513549246E+01 -0.27755567679E+02  0.28796830846E+02  0.51100000000E-03 0.  1.
         12    1    3    3    0    0  0.63494791591E+01  0.21034228726E+01  0.17804711036E+02  0.19019674247E+02  0.00000000000E+00 0. -1.
</event>
<event>
 7    1  0.1692604E-013  0.7246156E+02  0.7816164E-02  0.1226708E+00
        -11   -1    0    0    0    0  0.00000000000E+00  0.00000000000E+00  0.45593999997E+02  0.45594000000E+02  0.51100000000E-03 0. -1.
         11   -1    0    0    0    0 -0.00000000000E+00 -0.00000000000E+00 -0.45593999997E+02  0.45594000000E+02  0.51100000000E-03 0.  1.
    9900012    2    1    2    0    0  0.16145240357E+02  0.75682343611E+01 -0.57212496069E+01  0.72461557343E+02  0.69999983128E+02 0.  0.
         12    1    1    2    0    0 -0.16145240357E+02 -0.75682343611E+01  0.57212496069E+01  0.18726442657E+02  0.00000000000E+00 0. -1.
         11    1    3    3    0    0 -0.12669161461E+02  0.14750621277E+01  0.11044432817E+01  0.12802470684E+02  0.51100000000E-03 0. -1.
        -11    1    3    3    0    0  0.31465728295E+02  0.11674255666E+02  0.15156321516E+02  0.36825186824E+02  0.51100000000E-03 0.  1.
         12    1    3    3    0    0 -0.26513264773E+01 -0.55810834324E+01 -0.21982014404E+02  0.22833899834E+02  0.00000000000E+00 0. -1.
</event>
<event>
 7    1  0.1692604E-013  0.7246161E+02  0.7816164E-02  0.1226708E+00
        -11   -1    0    0    0    0  0.00000000000E+00  0.00000000000E+00  0.45593999997E+02  0.45594000000E+02  0.51100000000E-03 0. -1.
         11   -1    0    0    0    0 -0.00000000000E+00 -0.00000000000E+00 -0.45593999997E+02  0.45594000000E+02  0.51100000000E-03 0.  1.
    9900012    2    1    2    0    0 -0.22913467785E+01 -0.82284511953E+00 -0.18567452233E+02  0.72461611492E+02  0.70000053667E+02 0.  0.
         12    1    1    2    0    0  0.22913467785E+01  0.82284511953E+00  0.18567452233E+02  0.18726388508E+02  0.00000000000E+00 0. -1.
         11    1    3    3    0    0 -0.23735858113E+01 -0.97445069682E+01 -0.64931005671E+01  0.11947789791E+02  0.51100000000E-03 0. -1.
        -11    1    3    3    0    0  0.25060344404E+02  0.26425956098E+01 -0.21462876864E+02  0.33100744052E+02  0.51100000000E-03 0.  1.
         12    1    3    3    0    0 -0.24978105372E+02  0.62790662389E+01  0.93885251987E+01  0.27413077649E+02  0.00000000000E+00 0. -1.
</event>
<event>
 7    1  0.1692604E-013  0.7246156E+02  0.7816164E-02  0.1226708E+00
        -11   -1    0    0    0    0  0.00000000000E+00  0.00000000000E+00  0.45593999997E+02  0.45594000000E+02  0.51100000000E-03 0. -1.
         11   -1    0    0    0    0 -0.00000000000E+00 -0.00000000000E+00 -0.45593999997E+02  0.45594000000E+02  0.51100000000E-03 0.  1.
    9900012    2    1    2    0    0 -0.16039136046E+02  0.96592370519E+01 -0.35317320643E+00  0.72461562089E+02  0.69999989310E+02 0.  0.
         12    1    1    2    0    0  0.16039136046E+02 -0.96592370519E+01  0.35317320643E+00  0.18726437911E+02  0.00000000000E+00 0. -1.
         11    1    3    3    0    0  0.59114303203E-01  0.93772347498E+01  0.91409900835E+01  0.13095561310E+02  0.51100000000E-03 0. -1.
        -11    1    3    3    0    0 -0.82824548195E+01  0.28139067588E+02 -0.16030020016E+01  0.29376449722E+02  0.51100000000E-03 0.  1.
        -12    1    3    3    0    0 -0.78157955300E+01 -0.27857065286E+02 -0.78911612883E+01  0.29989551057E+02  0.00000000000E+00 0.  1.
</event>
<event>
 7    1  0.1692604E-013  0.7246158E+02  0.7816164E-02  0.1226708E+00
        -11   -1    0    0    0    0  0.00000000000E+00  0.00000000000E+00  0.45593999997E+02  0.45594000000E+02  0.51100000000E-03 0.  1.
         11   -1    0    0    0    0 -0.00000000000E+00 -0.00000000000E+00 -0.45593999997E+02  0.45594000000E+02  0.51100000000E-03 0. -1.
    9900012    2    1    2    0    0 -0.46310473828E+01 -0.35114559068E+01  0.17801736072E+02  0.72461582040E+02  0.70000015300E+02 0.  0.
         12    1    1    2    0    0  0.46310473828E+01  0.35114559068E+01 -0.17801736072E+02  0.18726417960E+02  0.00000000000E+00 0. -1.
         11    1    3    3    0    0 -0.96625865537E+01 -0.81567379150E+01 -0.29486733645E+01  0.12984322362E+02  0.51100000000E-03 0. -1.
        -11    1    3    3    0    0 -0.11591016249E+02 -0.15894756683E+02  0.25933090640E+02  0.32550270938E+02  0.51100000000E-03 0.  1.
         12    1    3    3    0    0  0.16622555420E+02  0.20540038692E+02 -0.51826812036E+01  0.26926988740E+02  0.00000000000E+00 0. -1.
</event>
<event>
 7    1  0.1692604E-013  0.7246148E+02  0.7816164E-02  0.1226708E+00
        -11   -1    0    0    0    0  0.00000000000E+00  0.00000000000E+00  0.45593999997E+02  0.45594000000E+02  0.51100000000E-03 0.  1.
         11   -1    0    0    0    0 -0.00000000000E+00 -0.00000000000E+00 -0.45593999997E+02  0.45594000000E+02  0.51100000000E-03 0. -1.
    9900012    2    1    2    0    0 -0.60778889432E+01  0.64863708484E+01  0.16482373574E+02  0.72461484589E+02  0.69999888353E+02 0.  0.
         12    1    1    2    0    0  0.60778889432E+01 -0.64863708484E+01 -0.16482373574E+02  0.18726515411E+02  0.00000000000E+00 0. -1.
         11    1    3    3    0    0  0.39468992191E+01 -0.24173348683E+02  0.38742132566E+00  0.24496507823E+02  0.51100000000E-03 0. -1.
        -11    1    3    3    0    0 -0.11257731551E+02  0.69412017678E+01  0.19917640135E+02  0.23908768067E+02  0.51100000000E-03 0.  1.
        -12    1    3    3    0    0  0.12329433883E+01  0.23718517764E+02 -0.38226878866E+01  0.24056208699E+02  0.00000000000E+00 0.  1.
</event>
<event>
 7    1  0.1692604E-013  0.7246156E+02  0.7816164E-02  0.1226708E+00
        -11   -1    0    0    0    0  0.00000000000E+00  0.00000000000E+00  0.45593999997E+02  0.45594000000E+02  0.51100000000E-03 0.  1.
         11   -1    0    0    0    0 -0.00000000000E+00 -0.00000000000E+00 -0.45593999997E+02  0.45594000000E+02  0.51100000000E-03 0. -1.
    9900012    2    1    2    0    0  0.18057582238E+02  0.56081564716E+00  0.49283567640E+01  0.72461561715E+02  0.69999988824E+02 0.  0.
         12    1    1    2    0    0 -0.18057582238E+02 -0.56081564716E+00 -0.49283567640E+01  0.18726438285E+02  0.00000000000E+00 0. -1.
         11    1    3    3    0    0  0.14509372677E+02  0.10395944062E+01  0.78680819113E+01  0.16538118552E+02  0.51100000000E-03 0. -1.
        -11    1    3    3    0    0  0.99918011628E+01 -0.26799870089E+02 -0.35283556104E+01  0.28818716502E+02  0.51100000000E-03 0.  1.
         12    1    3    3    0    0 -0.64435916026E+01  0.26321091330E+02  0.58863046304E+00  0.27104726661E+02  0.00000000000E+00 0. -1.
</event>
<event>
 7    1  0.1692604E-013  0.7246183E+02  0.7816164E-02  0.1226707E+00
        -11   -1    0    0    0    0  0.00000000000E+00  0.00000000000E+00  0.45593999997E+02  0.45594000000E+02  0.51100000000E-03 0. -1.
         11   -1    0    0    0    0 -0.00000000000E+00 -0.00000000000E+00 -0.45593999997E+02  0.45594000000E+02  0.51100000000E-03 0.  1.
    9900012    2    1    2    0    0 -0.83281300537E+01 -0.10739014360E+02 -0.12883533798E+02  0.72461825197E+02  0.70000332058E+02 0.  0.
         12    1    1    2    0    0  0.83281300537E+01  0.10739014360E+02  0.12883533798E+02  0.18726174803E+02  0.00000000000E+00 0. -1.
         11    1    3    3    0    0 -0.18844116562E+02 -0.14215928778E+02  0.22777964520E+02  0.32802881397E+02  0.51100000000E-03 0. -1.
        -11    1    3    3    0    0 -0.62055382385E+00 -0.44562083206E+00  0.93354070412E+00  0.12063015716E+01  0.51100000000E-03 0.  1.
        -12    1    3    3    0    0  0.11136540332E+02  0.39225352498E+01 -0.36595039022E+02  0.38452642229E+02  0.00000000000E+00 0.  1.
</event>
<event>
 7    1  0.1692604E-013  0.7246153E+02  0.7816164E-02  0.1226708E+00
        -11   -1    0    0    0    0  0.00000000000E+00  0.00000000000E+00  0.45593999997E+02  0.45594000000E+02  0.51100000000E-03 0.  1.
         11   -1    0    0    0    0 -0.00000000000E+00 -0.00000000000E+00 -0.45593999997E+02  0.45594000000E+02  0.51100000000E-03 0. -1.
    9900012    2    1    2    0    0  0.17850573775E+01 -0.88513589287E+01  0.16405716258E+02  0.72461534485E+02  0.69999953352E+02 0.  0.
         12    1    1    2    0    0 -0.17850573775E+01  0.88513589287E+01 -0.16405716258E+02  0.18726465515E+02  0.00000000000E+00 0. -1.
         11    1    3    3    0    0  0.94987355262E+00  0.14945141302E+02  0.20264998363E+02  0.25197810762E+02  0.51100000000E-03 0. -1.
        -11    1    3    3    0    0  0.16908200419E+02 -0.89364848021E+01  0.97721421998E+01  0.21476563167E+02  0.51100000000E-03 0.  1.
        -12    1    3    3    0    0 -0.16073016594E+02 -0.14860015428E+02 -0.13631424305E+02  0.25787160556E+02  0.00000000000E+00 0.  1.
</event>
<event>
 7    1  0.1692604E-013  0.7246146E+02  0.7816164E-02  0.1226708E+00
        -11   -1    0    0    0    0  0.00000000000E+00  0.00000000000E+00  0.45593999997E+02  0.45594000000E+02  0.51100000000E-03 0. -1.
         11   -1    0    0    0    0 -0.00000000000E+00 -0.00000000000E+00 -0.45593999997E+02  0.45594000000E+02  0.51100000000E-03 0.  1.
    9900012    2    1    2    0    0 -0.16221746434E+02 -0.65117095324E+01 -0.67183112477E+01  0.72461464698E+02  0.69999862441E+02 0.  0.
         12    1    1    2    0    0  0.16221746434E+02  0.65117095324E+01  0.67183112477E+01  0.18726535302E+02  0.00000000000E+00 0. -1.
         11    1    3    3    0    0  0.22111281869E+02 -0.69068248628E+01  0.38888881481E+01  0.23489071222E+02  0.51100000000E-03 0. -1.
        -11    1    3    3    0    0 -0.82274326458E+01  0.12606327475E+02 -0.57931294914E+01  0.16129801298E+02  0.51100000000E-03 0.  1.
        -12    1    3    3    0    0 -0.30105595657E+02 -0.12211212145E+02 -0.48140699044E+01  0.32842592178E+02  0.00000000000E+00 0.  1.
</event>
<event>
 7    1  0.1692604E-013  0.7246153E+02  0.7816164E-02  0.1226708E+00
        -11   -1    0    0    0    0  0.00000000000E+00  0.00000000000E+00  0.45593999997E+02  0.45594000000E+02  0.51100000000E-03 0.  1.
         11   -1    0    0    0    0 -0.00000000000E+00 -0.00000000000E+00 -0.45593999997E+02  0.45594000000E+02  0.51100000000E-03 0. -1.
    9900012    2    1    2    0    0 -0.10383603220E+02 -0.69627370559E+01  0.13942083496E+02  0.72461531690E+02  0.69999949711E+02 0.  0.
         12    1    1    2    0    0  0.10383603220E+02  0.69627370559E+01 -0.13942083496E+02  0.18726468310E+02  0.00000000000E+00 0. -1.
         11    1    3    3    0    0  0.35019538877E+01  0.12494594863E+02  0.83047701376E+01  0.15406095843E+02  0.51100000000E-03 0. -1.
        -11    1    3    3    0    0  0.28520517833E-01 -0.35337897401E+02  0.64694027105E+01  0.35925213678E+02  0.51100000000E-03 0.  1.
         12    1    3    3    0    0 -0.13914077626E+02  0.15880565482E+02 -0.83208935220E+00  0.21130222169E+02  0.00000000000E+00 0. -1.
</event>
<event>
 7    1  0.1692604E-013  0.7246159E+02  0.7816164E-02  0.1226708E+00
        -11   -1    0    0    0    0  0.00000000000E+00  0.00000000000E+00  0.45593999997E+02  0.45594000000E+02  0.51100000000E-03 0.  1.
         11   -1    0    0    0    0 -0.00000000000E+00 -0.00000000000E+00 -0.45593999997E+02  0.45594000000E+02  0.51100000000E-03 0. -1.
    9900012    2    1    2    0    0 -0.16369727120E+01 -0.13792782789E+02 -0.12560164581E+02  0.72461594284E+02  0.70000031252E+02 0.  0.
         12    1    1    2    0    0  0.16369727120E+01  0.13792782789E+02  0.12560164581E+02  0.18726405716E+02  0.00000000000E+00 0. -1.
         11    1    3    3    0    0 -0.39484988891E+01 -0.10347126737E+02 -0.34178073527E+02  0.35927627051E+02  0.51100000000E-03 0. -1.
        -11    1    3    3    0    0  0.12473376642E+02  0.47333830613E+01  0.27918988548E+01  0.13630287580E+02  0.51100000000E-03 0.  1.
        -12    1    3    3    0    0 -0.10161850465E+02 -0.81790391134E+01  0.18826010092E+02  0.22903679653E+02  0.00000000000E+00 0.  1.
</event>
<event>
 7    1  0.1692604E-013  0.7246157E+02  0.7816164E-02  0.1226708E+00
        -11   -1    0    0    0    0  0.00000000000E+00  0.00000000000E+00  0.45593999997E+02  0.45594000000E+02  0.51100000000E-03 0.  1.
         11   -1    0    0    0    0 -0.00000000000E+00 -0.00000000000E+00 -0.45593999997E+02  0.45594000000E+02  0.51100000000E-03 0. -1.
    9900012    2    1    2    0    0 -0.15536743079E+02  0.92096224223E+01 -0.49468772904E+01  0.72461571467E+02  0.70000001528E+02 0.  0.
         12    1    1    2    0    0  0.15536743079E+02 -0.92096224223E+01  0.49468772904E+01  0.18726428533E+02  0.00000000000E+00 0. -1.
         11    1    3    3    0    0 -0.60839115870E+01 -0.28890485392E+01  0.28016532357E+01  0.72945077130E+01  0.51100000000E-03 0. -1.
        -11    1    3    3    0    0 -0.11455132174E+02  0.31129711832E+02  0.14170132697E+02  0.36070371121E+02  0.51100000000E-03 0.  1.
         12    1    3    3    0    0  0.20023006821E+01 -0.19031040871E+02 -0.21918663223E+02  0.29096692633E+02  0.00000000000E+00 0. -1.
</event>
<event>
 7    1  0.1692604E-013  0.7246142E+02  0.7816164E-02  0.1226708E+00
        -11   -1    0    0    0    0  0.00000000000E+00  0.00000000000E+00  0.45593999997E+02  0.45594000000E+02  0.51100000000E-03 0. -1.
         11   -1    0    0    0    0 -0.00000000000E+00 -0.00000000000E+00 -0.45593999997E+02  0.45594000000E+02  0.51100000000E-03 0.  1.
    9900012    2    1    2    0    0 -0.98843736335E+01  0.15162456245E+02 -0.48045497354E+01  0.72461424774E+02  0.69999810433E+02 0.  0.
         12    1    1    2    0    0  0.98843736335E+01 -0.15162456245E+02  0.48045497354E+01  0.18726575226E+02  0.00000000000E+00 0. -1.
         11    1    3    3    0    0  0.10053829037E+01  0.78659282794E+01 -0.46397003189E+01  0.91875155395E+01  0.51100000000E-03 0. -1.
        -11    1    3    3    0    0 -0.35038528848E+02  0.81952034950E+01 -0.97423962954E+01  0.37279674757E+02  0.51100000000E-03 0.  1.
         12    1    3    3    0    0  0.24148772311E+02 -0.89867552892E+00  0.95775468789E+01  0.25994234477E+02  0.00000000000E+00 0. -1.
</event>
<event>
 7    1  0.1692604E-013  0.7246156E+02  0.7816164E-02  0.1226708E+00
        -11   -1    0    0    0    0  0.00000000000E+00  0.00000000000E+00  0.45593999997E+02  0.45594000000E+02  0.51100000000E-03 0.  1.
         11   -1    0    0    0    0 -0.00000000000E+00 -0.00000000000E+00 -0.45593999997E+02  0.45594000000E+02  0.51100000000E-03 0. -1.
    9900012    2    1    2    0    0  0.17073017649E+02  0.67974691913E+01  0.36035896773E+01  0.72461564738E+02  0.69999992762E+02 0.  0.
         12    1    1    2    0    0 -0.17073017649E+02 -0.67974691913E+01 -0.36035896773E+01  0.18726435262E+02  0.00000000000E+00 0. -1.
         11    1    3    3    0    0  0.81759075076E+01 -0.20284766275E+02 -0.45201168422E+00  0.21875134770E+02  0.51100000000E-03 0. -1.
        -11    1    3    3    0    0  0.78476369790E+01 -0.67753107523E+01  0.11933944055E+02  0.15808518682E+02  0.51100000000E-03 0.  1.
         12    1    3    3    0    0  0.10494731622E+01  0.33857546218E+02 -0.78783426938E+01  0.34777911286E+02  0.00000000000E+00 0. -1.
</event>
<event>
 7    1  0.1692604E-013  0.7246158E+02  0.7816164E-02  0.1226708E+00
        -11   -1    0    0    0    0  0.00000000000E+00  0.00000000000E+00  0.45593999997E+02  0.45594000000E+02  0.51100000000E-03 0.  1.
         11   -1    0    0    0    0 -0.00000000000E+00 -0.00000000000E+00 -0.45593999997E+02  0.45594000000E+02  0.51100000000E-03 0. -1.
    9900012    2    1    2    0    0  0.17165924564E+02 -0.65098240221E+01  0.36921362758E+01  0.72461584293E+02  0.70000018236E+02 0.  0.
         12    1    1    2    0    0 -0.17165924564E+02  0.65098240221E+01 -0.36921362758E+01  0.18726415707E+02  0.00000000000E+00 0. -1.
         11    1    3    3    0    0 -0.79735730090E+01  0.10097586141E+02  0.17691121559E+02  0.21874983307E+02  0.51100000000E-03 0.  1.
        -11    1    3    3    0    0 -0.27174225243E+01  0.93701382466E+01 -0.66155571609E+01  0.11787683095E+02  0.51100000000E-03 0. -1.
         12    1    3    3    0    0  0.27856920097E+02 -0.25977548410E+02 -0.73834281226E+01  0.38798917891E+02  0.00000000000E+00 0. -1.
</event>
<event>
 7    1  0.1692604E-013  0.7246159E+02  0.7816164E-02  0.1226708E+00
        -11   -1    0    0    0    0  0.00000000000E+00  0.00000000000E+00  0.45593999997E+02  0.45594000000E+02  0.51100000000E-03 0.  1.
         11   -1    0    0    0    0 -0.00000000000E+00 -0.00000000000E+00 -0.45593999997E+02  0.45594000000E+02  0.51100000000E-03 0. -1.
    9900012    2    1    2    0    0  0.83887034463E+00  0.14999277223E+01  0.18647384426E+02  0.72461589971E+02  0.70000025633E+02 0.  0.
         12    1    1    2    0    0 -0.83887034463E+00 -0.14999277223E+01 -0.18647384426E+02  0.18726410029E+02  0.00000000000E+00 0. -1.
         11    1    3    3    0    0  0.14698903848E+01 -0.16138744559E+02  0.33110150500E+01  0.16540328733E+02  0.51100000000E-03 0. -1.
        -11    1    3    3    0    0  0.13011106228E+01 -0.42893361827E+01 -0.16565800928E+02  0.17161499188E+02  0.51100000000E-03 0.  1.
        -12    1    3    3    0    0 -0.19321306630E+01  0.21928008464E+02  0.31902170304E+02  0.38759762050E+02  0.00000000000E+00 0.  1.
</event>
<event>
 7    1  0.1692604E-013  0.7246156E+02  0.7816164E-02  0.1226708E+00
        -11   -1    0    0    0    0  0.00000000000E+00  0.00000000000E+00  0.45593999997E+02  0.45594000000E+02  0.51100000000E-03 0.  1.
         11   -1    0    0    0    0 -0.00000000000E+00 -0.00000000000E+00 -0.45593999997E+02  0.45594000000E+02  0.51100000000E-03 0. -1.
    9900012    2    1    2    0    0  0.43848395456E+01  0.10606051047E+02  0.14797450603E+02  0.72461556638E+02  0.69999982210E+02 0.  0.
         12    1    1    2    0    0 -0.43848395456E+01 -0.10606051047E+02 -0.14797450603E+02  0.18726443362E+02  0.00000000000E+00 0. -1.
         11    1    3    3    0    0 -0.90064814522E+01 -0.74657676553E+01 -0.10130190697E+02  0.15474984932E+02  0.51100000000E-03 0. -1.
        -11    1    3    3    0    0 -0.10699881574E+02  0.21492040747E+02  0.29335107360E+01  0.24186789093E+02  0.51100000000E-03 0.  1.
        -12    1    3    3    0    0  0.24091202572E+02 -0.34202220444E+01  0.21994130564E+02  0.32799782613E+02  0.00000000000E+00 0.  1.
</event>
<event>
 7    1  0.1692604E-013  0.7246156E+02  0.7816164E-02  0.1226708E+00
        -11   -1    0    0    0    0  0.00000000000E+00  0.00000000000E+00  0.45593999997E+02  0.45594000000E+02  0.51100000000E-03 0.  1.
         11   -1    0    0    0    0 -0.00000000000E+00 -0.00000000000E+00 -0.45593999997E+02  0.45594000000E+02  0.51100000000E-03 0. -1.
    9900012    2    1    2    0    0  0.41040873143E+01 -0.68036445601E+01  0.16957199125E+02  0.72461555753E+02  0.69999981057E+02 0.  0.
         12    1    1    2    0    0 -0.41040873143E+01  0.68036445601E+01 -0.16957199125E+02  0.18726444247E+02  0.00000000000E+00 0. -1.
         11    1    3    3    0    0 -0.23381661870E+01  0.52688493421E+01 -0.14667149318E+02  0.15759221550E+02  0.51100000000E-03 0. -1.
        -11    1    3    3    0    0  0.15466153572E+02 -0.90060224692E+01 -0.52218777928E+01  0.18643453408E+02  0.51100000000E-03 0.  1.
         12    1    3    3    0    0 -0.90239000711E+01 -0.30664714329E+01  0.36846226235E+02  0.38058880794E+02  0.00000000000E+00 0. -1.
</event>
<event>
 7    1  0.1692604E-013  0.7246164E+02  0.7816164E-02  0.1226708E+00
        -11   -1    0    0    0    0  0.00000000000E+00  0.00000000000E+00  0.45593999997E+02  0.45594000000E+02  0.51100000000E-03 0. -1.
         11   -1    0    0    0    0 -0.00000000000E+00 -0.00000000000E+00 -0.45593999997E+02  0.45594000000E+02  0.51100000000E-03 0.  1.
    9900012    2    1    2    0    0 -0.13894315971E+02  0.95253916607E+01 -0.81787236746E+01  0.72461638273E+02  0.70000088555E+02 0.  0.
         12    1    1    2    0    0  0.13894315971E+02 -0.95253916607E+01  0.81787236746E+01  0.18726361727E+02  0.00000000000E+00 0. -1.
         11    1    3    3    0    0 -0.28654656037E+02 -0.18878949405E+01 -0.19454401370E+02  0.34686123923E+02  0.51100000000E-03 0.  1.
        -11    1    3    3    0    0 -0.60231011278E+01  0.17102348389E+01 -0.62976516845E+01  0.88804880159E+01  0.51100000000E-03 0. -1.
         12    1    3    3    0    0  0.20783441194E+02  0.97030517623E+01  0.17573329380E+02  0.28895026334E+02  0.00000000000E+00 0. -1.
</event>
<event>
 7    1  0.1692604E-013  0.7246178E+02  0.7816164E-02  0.1226707E+00
        -11   -1    0    0    0    0  0.00000000000E+00  0.00000000000E+00  0.45593999997E+02  0.45594000000E+02  0.51100000000E-03 0. -1.
         11   -1    0    0    0    0 -0.00000000000E+00 -0.00000000000E+00 -0.45593999997E+02  0.45594000000E+02  0.51100000000E-03 0.  1.
    9900012    2    1    2    0    0 -0.38090003544E+01 -0.17029611518E+02  0.67937484281E+01  0.72461783888E+02  0.70000278245E+02 0.  0.
         12    1    1    2    0    0  0.38090003544E+01  0.17029611518E+02 -0.67937484281E+01  0.18726216112E+02  0.00000000000E+00 0. -1.
         11    1    3    3    0    0 -0.75256180902E+01  0.55209126439E+01 -0.33176389631E+01  0.99056616444E+01  0.51100000000E-03 0. -1.
        -11    1    3    3    0    0 -0.26410972093E+02 -0.94838161563E+01 -0.43352213123E+00  0.28065462003E+02  0.51100000000E-03 0.  1.
         12    1    3    3    0    0  0.30127589829E+02 -0.13066708006E+02  0.10544909522E+02  0.34490660240E+02  0.00000000000E+00 0. -1.
</event>
<event>
 7    1  0.1692604E-013  0.7246140E+02  0.7816164E-02  0.1226708E+00
        -11   -1    0    0    0    0  0.00000000000E+00  0.00000000000E+00  0.45593999997E+02  0.45594000000E+02  0.51100000000E-03 0. -1.
         11   -1    0    0    0    0 -0.00000000000E+00 -0.00000000000E+00 -0.45593999997E+02  0.45594000000E+02  0.51100000000E-03 0.  1.
    9900012    2    1    2    0    0  0.52642962339E+01 -0.16396744857E+02 -0.73565906671E+01  0.72461401724E+02  0.69999780406E+02 0.  0.
         12    1    1    2    0    0 -0.52642962339E+01  0.16396744857E+02  0.73565906671E+01  0.18726598276E+02  0.00000000000E+00 0. -1.
         11    1    3    3    0    0  0.98094974333E+01 -0.70881220703E+01  0.13955761979E+01  0.12182583780E+02  0.51100000000E-03 0. -1.
        -11    1    3    3    0    0  0.18404531762E+02 -0.22013188061E+02 -0.16277868562E+02  0.32989032165E+02  0.51100000000E-03 0.  1.
        -12    1    3    3    0    0 -0.22949732962E+02  0.12704565274E+02  0.75257016974E+01  0.27289785779E+02  0.00000000000E+00 0.  1.
</event>
<event>
 7    1  0.1692604E-013  0.7246153E+02  0.7816164E-02  0.1226708E+00
        -11   -1    0    0    0    0  0.00000000000E+00  0.00000000000E+00  0.45593999997E+02  0.45594000000E+02  0.51100000000E-03 0.  1.
         11   -1    0    0    0    0 -0.00000000000E+00 -0.00000000000E+00 -0.45593999997E+02  0.45594000000E+02  0.51100000000E-03 0. -1.
    9900012    2    1    2    0    0  0.14403329528E+02  0.55098881888E+01  0.10623836180E+02  0.72461530377E+02  0.69999948000E+02 0.  0.
         12    1    1    2    0    0 -0.14403329528E+02 -0.55098881888E+01 -0.10623836180E+02  0.18726469623E+02  0.00000000000E+00 0. -1.
         11    1    3    3    0    0  0.99212964112E+01 -0.43648944870E+01 -0.23474318675E+02  0.25855909651E+02  0.51100000000E-03 0. -1.
        -11    1    3    3    0    0  0.79465687261E+01 -0.33469351309E+01 -0.12445911459E+01  0.87119995793E+01  0.51100000000E-03 0.  1.
        -12    1    3    3    0    0 -0.34645356089E+01  0.13221717807E+02  0.35342746001E+02  0.37893621147E+02  0.00000000000E+00 0.  1.
</event>
<event>
 7    1  0.1692604E-013  0.7246158E+02  0.7816164E-02  0.1226708E+00
        -11   -1    0    0    0    0  0.00000000000E+00  0.00000000000E+00  0.45593999997E+02  0.45594000000E+02  0.51100000000E-03 0.  1.
         11   -1    0    0    0    0 -0.00000000000E+00 -0.00000000000E+00 -0.45593999997E+02  0.45594000000E+02  0.51100000000E-03 0. -1.
    9900012    2    1    2    0    0 -0.17793901879E+02 -0.24029760722E+01  0.53180554227E+01  0.72461576114E+02  0.70000007581E+02 0.  0.
         12    1    1    2    0    0  0.17793901879E+02  0.24029760722E+01 -0.53180554227E+01  0.18726423886E+02  0.00000000000E+00 0. -1.
         11    1    3    3    0    0 -0.11505772790E+02 -0.17309443858E+01 -0.80504581678E+01  0.14148811008E+02  0.51100000000E-03 0. -1.
        -11    1    3    3    0    0 -0.31152896648E+02 -0.20288164824E+01  0.11755503604E+02  0.33358820890E+02  0.51100000000E-03 0.  1.
         12    1    3    3    0    0  0.24864767559E+02  0.13567847961E+01  0.16130099860E+01  0.24953944216E+02  0.00000000000E+00 0. -1.
</event>
<event>
 7    1  0.1692604E-013  0.7246169E+02  0.7816164E-02  0.1226708E+00
        -11   -1    0    0    0    0  0.00000000000E+00  0.00000000000E+00  0.45593999997E+02  0.45594000000E+02  0.51100000000E-03 0. -1.
         11   -1    0    0    0    0 -0.00000000000E+00 -0.00000000000E+00 -0.45593999997E+02  0.45594000000E+02  0.51100000000E-03 0.  1.
    9900012    2    1    2    0    0  0.10377553129E+02 -0.37464455342E+01 -0.15130934035E+02  0.72461691558E+02  0.70000157968E+02 0.  0.
         12    1    1    2    0    0 -0.10377553129E+02  0.37464455342E+01  0.15130934035E+02  0.18726308442E+02  0.00000000000E+00 0. -1.
         11    1    3    3    0    0 -0.97590263032E+01 -0.12326296734E+02  0.81278104147E+01  0.17698516547E+02  0.51100000000E-03 0. -1.
        -11    1    3    3    0    0 -0.26821570965E+01  0.11395044782E+02  0.92678905957E+01  0.14931001595E+02  0.51100000000E-03 0.  1.
        -12    1    3    3    0    0  0.22818736529E+02 -0.28151935817E+01 -0.32526635046E+02  0.39832173416E+02  0.00000000000E+00 0.  1.
</event>
<event>
 7    1  0.1692604E-013  0.7246150E+02  0.7816164E-02  0.1226708E+00
        -11   -1    0    0    0    0  0.00000000000E+00  0.00000000000E+00  0.45593999997E+02  0.45594000000E+02  0.51100000000E-03 0. -1.
         11   -1    0    0    0    0 -0.00000000000E+00 -0.00000000000E+00 -0.45593999997E+02  0.45594000000E+02  0.51100000000E-03 0.  1.
    9900012    2    1    2    0    0  0.52553262672E+01 -0.57047868469E+01 -0.17044608684E+02  0.72461501867E+02  0.69999910860E+02 0.  0.
         12    1    1    2    0    0 -0.52553262672E+01  0.57047868469E+01  0.17044608684E+02  0.18726498133E+02  0.00000000000E+00 0. -1.
         11    1    3    3    0    0 -0.25498279033E+01  0.18956208373E+01 -0.12243427312E+00  0.31796212208E+01  0.51100000000E-03 0. -1.
        -11    1    3    3    0    0 -0.20137862054E+02  0.12399224026E+02 -0.24544595002E+02  0.34083887522E+02  0.51100000000E-03 0.  1.
        -12    1    3    3    0    0  0.27943016224E+02 -0.19999631710E+02  0.76224205914E+01  0.35197993124E+02  0.00000000000E+00 0.  1.
</event>
<event>
 7    1  0.1692604E-013  0.7246159E+02  0.7816164E-02  0.1226708E+00
        -11   -1    0    0    0    0  0.00000000000E+00  0.00000000000E+00  0.45593999997E+02  0.45594000000E+02  0.51100000000E-03 0. -1.
         11   -1    0    0    0    0 -0.00000000000E+00 -0.00000000000E+00 -0.45593999997E+02  0.45594000000E+02  0.51100000000E-03 0.  1.
    9900012    2    1    2    0    0  0.76338944558E+01  0.36521106421E+01 -0.16705209743E+02  0.72461593797E+02  0.70000030617E+02 0.  0.
         12    1    1    2    0    0 -0.76338944558E+01 -0.36521106421E+01  0.16705209743E+02  0.18726406203E+02  0.00000000000E+00 0. -1.
         11    1    3    3    0    0  0.70215793474E+01  0.20966179991E+02 -0.38390655245E+01  0.22441517424E+02  0.51100000000E-03 0. -1.
        -11    1    3    3    0    0 -0.15553345244E+02 -0.97131153437E+01 -0.23052638053E+02  0.29456328343E+02  0.51100000000E-03 0.  1.
         12    1    3    3    0    0  0.16165660352E+02 -0.76009540051E+01  0.10186493834E+02  0.20563748030E+02  0.00000000000E+00 0. -1.
</event>
<event>
 7    1  0.1692604E-013  0.7246155E+02  0.7816164E-02  0.1226708E+00
        -11   -1    0    0    0    0  0.00000000000E+00  0.00000000000E+00  0.45593999997E+02  0.45594000000E+02  0.51100000000E-03 0. -1.
         11   -1    0    0    0    0 -0.00000000000E+00 -0.00000000000E+00 -0.45593999997E+02  0.45594000000E+02  0.51100000000E-03 0.  1.
    9900012    2    1    2    0    0 -0.26591295501E+01 -0.16894227088E+02 -0.76285140858E+01  0.72461545289E+02  0.69999967426E+02 0.  0.
         12    1    1    2    0    0  0.26591295501E+01  0.16894227088E+02  0.76285140858E+01  0.18726454711E+02  0.00000000000E+00 0. -1.
         11    1    3    3    0    0 -0.36496002937E+01  0.64999348917E-01 -0.12432144923E+02  0.12956929994E+02  0.51100000000E-03 0. -1.
        -11    1    3    3    0    0 -0.58709061520E+01  0.18279017164E+02  0.12339449418E+02  0.22822182624E+02  0.51100000000E-03 0.  1.
         12    1    3    3    0    0  0.68613768956E+01 -0.35238243601E+02 -0.75358185807E+01  0.36682432671E+02  0.00000000000E+00 0. -1.
</event>
<event>
 7    1  0.1692604E-013  0.7246157E+02  0.7816164E-02  0.1226708E+00
        -11   -1    0    0    0    0  0.00000000000E+00  0.00000000000E+00  0.45593999997E+02  0.45594000000E+02  0.51100000000E-03 0.  1.
         11   -1    0    0    0    0 -0.00000000000E+00 -0.00000000000E+00 -0.45593999997E+02  0.45594000000E+02  0.51100000000E-03 0. -1.
    9900012    2    1    2    0    0  0.72407802198E+00  0.12948598910E+02  0.13508839204E+02  0.72461568430E+02  0.69999997571E+02 0.  0.
         12    1    1    2    0    0 -0.72407802198E+00 -0.12948598910E+02 -0.13508839204E+02  0.18726431570E+02  0.00000000000E+00 0. -1.
         11    1    3    3    0    0  0.48855074635E+00 -0.24493771341E+02 -0.58092760828E+01  0.25177990492E+02  0.51100000000E-03 0. -1.
        -11    1    3    3    0    0 -0.10877662100E+01  0.15445315329E+02 -0.31627094518E+01  0.15803282326E+02  0.51100000000E-03 0.  1.
        -12    1    3    3    0    0  0.13232934856E+01  0.21997054922E+02  0.22480824738E+02  0.31480295612E+02  0.00000000000E+00 0.  1.
</event>
<event>
 7    1  0.1692604E-013  0.7246153E+02  0.7816164E-02  0.1226708E+00
        -11   -1    0    0    0    0  0.00000000000E+00  0.00000000000E+00  0.45593999997E+02  0.45594000000E+02  0.51100000000E-03 0.  1.
         11   -1    0    0    0    0 -0.00000000000E+00 -0.00000000000E+00 -0.45593999997E+02  0.45594000000E+02  0.51100000000E-03 0. -1.
    9900012    2    1    2    0    0 -0.10752957835E+02 -0.93688718835E+00  0.15302840952E+02  0.72461526733E+02  0.69999943253E+02 0.  0.
         12    1    1    2    0    0  0.10752957835E+02  0.93688718835E+00 -0.15302840952E+02  0.18726473267E+02  0.00000000000E+00 0. -1.
         11    1    3    3    0    0 -0.30062834321E+02  0.14666329795E+02  0.25150505489E+02  0.41850007930E+02  0.51100000000E-03 0.  1.
        -11    1    3    3    0    0  0.81935400664E+01 -0.37748644531E+01  0.34191207602E+01  0.96474912538E+01  0.51100000000E-03 0. -1.
        -12    1    3    3    0    0  0.11116336420E+02 -0.11828352531E+02 -0.13266785297E+02  0.20964027550E+02  0.00000000000E+00 0.  1.
</event>
<event>
 7    1  0.1692604E-013  0.7246159E+02  0.7816164E-02  0.1226708E+00
        -11   -1    0    0    0    0  0.00000000000E+00  0.00000000000E+00  0.45593999997E+02  0.45594000000E+02  0.51100000000E-03 0. -1.
         11   -1    0    0    0    0 -0.00000000000E+00 -0.00000000000E+00 -0.45593999997E+02  0.45594000000E+02  0.51100000000E-03 0.  1.
    9900012    2    1    2    0    0 -0.16652574955E+02 -0.41476346376E+01  0.74944839923E+01  0.72461590412E+02  0.70000026207E+02 0.  0.
         12    1    1    2    0    0  0.16652574955E+02  0.41476346376E+01 -0.74944839923E+01  0.18726409588E+02  0.00000000000E+00 0. -1.
         11    1    3    3    0    0 -0.37913693171E+00 -0.27235603484E+02  0.17448994716E+02  0.32347940565E+02  0.51100000000E-03 0. -1.
        -11    1    3    3    0    0 -0.96956993977E+01  0.52803243987E+01  0.82729290030E+01  0.13796005477E+02  0.51100000000E-03 0.  1.
        -12    1    3    3    0    0 -0.65777386260E+01  0.17807644447E+02 -0.18227439727E+02  0.26317644370E+02  0.00000000000E+00 0.  1.
</event>
<event>
 7    1  0.1692604E-013  0.7246156E+02  0.7816164E-02  0.1226708E+00
        -11   -1    0    0    0    0  0.00000000000E+00  0.00000000000E+00  0.45593999997E+02  0.45594000000E+02  0.51100000000E-03 0.  1.
         11   -1    0    0    0    0 -0.00000000000E+00 -0.00000000000E+00 -0.45593999997E+02  0.45594000000E+02  0.51100000000E-03 0. -1.
    9900012    2    1    2    0    0 -0.13235352047E+02  0.10804157199E+02  0.76665072710E+01  0.72461556389E+02  0.69999981885E+02 0.  0.
         12    1    1    2    0    0  0.13235352047E+02 -0.10804157199E+02 -0.76665072710E+01  0.18726443611E+02  0.00000000000E+00 0. -1.
         11    1    3    3    0    0  0.35401540404E+01  0.85027366349E+01  0.12179058437E+02  0.15269534557E+02  0.51100000000E-03 0.  1.
        -11    1    3    3    0    0  0.46608507490E+01 -0.22396850844E+02  0.43995562281E+01  0.23295891327E+02  0.51100000000E-03 0. -1.
         12    1    3    3    0    0 -0.21436356836E+02  0.24698271409E+02 -0.89121073941E+01  0.33896130505E+02  0.00000000000E+00 0. -1.
</event>
<event>
 7    1  0.1692604E-013  0.7246161E+02  0.7816164E-02  0.1226708E+00
        -11   -1    0    0    0    0  0.00000000000E+00  0.00000000000E+00  0.45593999997E+02  0.45594000000E+02  0.51100000000E-03 0.  1.
         11   -1    0    0    0    0 -0.00000000000E+00 -0.00000000000E+00 -0.45593999997E+02  0.45594000000E+02  0.51100000000E-03 0. -1.
    9900012    2    1    2    0    0  0.11600681300E+02 -0.11625975009E+02  0.89965791704E+01  0.72461613848E+02  0.70000056737E+02 0.  0.
         12    1    1    2    0    0 -0.11600681300E+02  0.11625975009E+02 -0.89965791704E+01  0.18726386152E+02  0.00000000000E+00 0. -1.
         11    1    3    3    0    0 -0.17374529618E+00  0.15424690803E+02 -0.21333825438E+02  0.26326476822E+02  0.51100000000E-03 0. -1.
        -11    1    3    3    0    0 -0.29571334959E+00 -0.48037520357E+01 -0.18828083927E+01  0.51680216438E+01  0.51100000000E-03 0.  1.
        -12    1    3    3    0    0  0.12070139946E+02 -0.22246913776E+02  0.32213213001E+02  0.40967115382E+02  0.00000000000E+00 0.  1.
</event>
<event>
 7    1  0.1692604E-013  0.7246155E+02  0.7816164E-02  0.1226708E+00
        -11   -1    0    0    0    0  0.00000000000E+00  0.00000000000E+00  0.45593999997E+02  0.45594000000E+02  0.51100000000E-03 0.  1.
         11   -1    0    0    0    0 -0.00000000000E+00 -0.00000000000E+00 -0.45593999997E+02  0.45594000000E+02  0.51100000000E-03 0. -1.
    9900012    2    1    2    0    0  0.10628863253E+02  0.10736666269E+02  0.11064863529E+02  0.72461549681E+02  0.69999973148E+02 0.  0.
         12    1    1    2    0    0 -0.10628863253E+02 -0.10736666269E+02 -0.11064863529E+02  0.18726450319E+02  0.00000000000E+00 0. -1.
         11    1    3    3    0    0  0.39546503112E+00 -0.12628695426E+02  0.42676632892E+00  0.12642091224E+02  0.51100000000E-03 0.  1.
        -11    1    3    3    0    0  0.30082706955E+02  0.21577919302E+02 -0.42778844414E+00  0.37023760781E+02  0.51100000000E-03 0. -1.
         12    1    3    3    0    0 -0.19849308733E+02  0.17874423933E+01  0.11065885644E+02  0.22795697677E+02  0.00000000000E+00 0. -1.
</event>
<event>
 7    1  0.1692604E-013  0.7246150E+02  0.7816164E-02  0.1226708E+00
        -11   -1    0    0    0    0  0.00000000000E+00  0.00000000000E+00  0.45593999997E+02  0.45594000000E+02  0.51100000000E-03 0.  1.
         11   -1    0    0    0    0 -0.00000000000E+00 -0.00000000000E+00 -0.45593999997E+02  0.45594000000E+02  0.51100000000E-03 0. -1.
    9900012    2    1    2    0    0 -0.59842047472E+01 -0.17684831340E+02 -0.14552984187E+01  0.72461498472E+02  0.69999906438E+02 0.  0.
         12    1    1    2    0    0  0.59842047472E+01  0.17684831340E+02  0.14552984187E+01  0.18726501528E+02  0.00000000000E+00 0. -1.
         11    1    3    3    0    0 -0.28536228963E+02  0.74783915343E+01 -0.73418475693E+01  0.30399760351E+02  0.51100000000E-03 0. -1.
        -11    1    3    3    0    0 -0.46401774313E+01 -0.81163283238E+00 -0.12381988366E+01  0.48706396981E+01  0.51100000000E-03 0.  1.
        -12    1    3    3    0    0  0.27192201648E+02 -0.24351590042E+02  0.71247479872E+01  0.37191098423E+02  0.00000000000E+00 0.  1.
</event>
<event>
 7    1  0.1692604E-013  0.7246175E+02  0.7816164E-02  0.1226708E+00
        -11   -1    0    0    0    0  0.00000000000E+00  0.00000000000E+00  0.45593999997E+02  0.45594000000E+02  0.51100000000E-03 0.  1.
         11   -1    0    0    0    0 -0.00000000000E+00 -0.00000000000E+00 -0.45593999997E+02  0.45594000000E+02  0.51100000000E-03 0. -1.
    9900012    2    1    2    0    0 -0.16853863323E+02 -0.51611294397E+01  0.63231784615E+01  0.72461746988E+02  0.70000230176E+02 0.  0.
         12    1    1    2    0    0  0.16853863323E+02  0.51611294397E+01 -0.63231784615E+01  0.18726253012E+02  0.00000000000E+00 0. -1.
         11    1    3    3    0    0 -0.15277051549E+02 -0.11251980920E+01 -0.13622396092E+01  0.15378883958E+02  0.51100000000E-03 0. -1.
        -11    1    3    3    0    0 -0.28919564502E+02 -0.33417069546E+01  0.22701447474E+01  0.29200372837E+02  0.51100000000E-03 0.  1.
         12    1    3    3    0    0  0.27342752728E+02 -0.69422439311E+00  0.54152733234E+01  0.27882490194E+02  0.00000000000E+00 0. -1.
</event>
<event>
 7    1  0.1692604E-013  0.7246157E+02  0.7816164E-02  0.1226708E+00
        -11   -1    0    0    0    0  0.00000000000E+00  0.00000000000E+00  0.45593999997E+02  0.45594000000E+02  0.51100000000E-03 0.  1.
         11   -1    0    0    0    0 -0.00000000000E+00 -0.00000000000E+00 -0.45593999997E+02  0.45594000000E+02  0.51100000000E-03 0. -1.
    9900012    2    1    2    0    0  0.12718994103E+02  0.66900588551E+01  0.12006223045E+02  0.72461572410E+02  0.70000002756E+02 0.  0.
         12    1    1    2    0    0 -0.12718994103E+02 -0.66900588551E+01 -0.12006223045E+02  0.18726427590E+02  0.00000000000E+00 0. -1.
         11    1    3    3    0    0  0.14870874415E+02  0.63874867401E+00 -0.14221495443E+02  0.20586447936E+02  0.51100000000E-03 0. -1.
        -11    1    3    3    0    0  0.11173076987E+02  0.61011722915E-03  0.33656890038E+02  0.35462993345E+02  0.51100000000E-03 0.  1.
         12    1    3    3    0    0 -0.13324957298E+02  0.60507000639E+01 -0.74291715503E+01  0.16412131129E+02  0.00000000000E+00 0. -1.
</event>
<event>
 7    1  0.1692604E-013  0.7246155E+02  0.7816164E-02  0.1226708E+00
        -11   -1    0    0    0    0  0.00000000000E+00  0.00000000000E+00  0.45593999997E+02  0.45594000000E+02  0.51100000000E-03 0. -1.
         11   -1    0    0    0    0 -0.00000000000E+00 -0.00000000000E+00 -0.45593999997E+02  0.45594000000E+02  0.51100000000E-03 0.  1.
    9900012    2    1    2    0    0 -0.17487656253E+01  0.35317655161E+01 -0.18307056847E+02  0.72461551344E+02  0.69999975313E+02 0.  0.
         12    1    1    2    0    0  0.17487656253E+01 -0.35317655161E+01  0.18307056847E+02  0.18726448656E+02  0.00000000000E+00 0. -1.
         11    1    3    3    0    0  0.15154646467E+02  0.15139344217E+01 -0.42303192209E+01  0.15806672893E+02  0.51100000000E-03 0. -1.
        -11    1    3    3    0    0  0.71957377682E+00  0.14352280562E+02 -0.27691150739E+02  0.31197845651E+02  0.51100000000E-03 0.  1.
        -12    1    3    3    0    0 -0.17622985869E+02 -0.12334449467E+02  0.13614413113E+02  0.25457032800E+02  0.00000000000E+00 0.  1.
</event>
<event>
 7    1  0.1692604E-013  0.7246210E+02  0.7816164E-02  0.1226707E+00
        -11   -1    0    0    0    0  0.00000000000E+00  0.00000000000E+00  0.45593999997E+02  0.45594000000E+02  0.51100000000E-03 0.  1.
         11   -1    0    0    0    0 -0.00000000000E+00 -0.00000000000E+00 -0.45593999997E+02  0.45594000000E+02  0.51100000000E-03 0. -1.
    9900012    2    1    2    0    0 -0.13086637215E+02  0.93504211727E+01  0.95900418227E+01  0.72462099438E+02  0.70000689304E+02 0.  0.
         12    1    1    2    0    0  0.13086637215E+02 -0.93504211727E+01 -0.95900418227E+01  0.18725900562E+02  0.00000000000E+00 0. -1.
         11    1    3    3    0    0 -0.18296158655E+02  0.46485821763E+01 -0.19089125743E+02  0.26846851950E+02  0.51100000000E-03 0. -1.
        -11    1    3    3    0    0 -0.36443066711E+01 -0.16314670959E+01 -0.71388235467E+01  0.81795756546E+01  0.51100000000E-03 0.  1.
        -12    1    3    3    0    0  0.88538281109E+01  0.63333060924E+01  0.35817991112E+02  0.37435671833E+02  0.00000000000E+00 0.  1.
</event>
<event>
 7    1  0.1692604E-013  0.7246167E+02  0.7816164E-02  0.1226708E+00
        -11   -1    0    0    0    0  0.00000000000E+00  0.00000000000E+00  0.45593999997E+02  0.45594000000E+02  0.51100000000E-03 0.  1.
         11   -1    0    0    0    0 -0.00000000000E+00 -0.00000000000E+00 -0.45593999997E+02  0.45594000000E+02  0.51100000000E-03 0. -1.
    9900012    2    1    2    0    0  0.85512916362E+01  0.16307679519E+01  0.16579848525E+02  0.72461671746E+02  0.70000132160E+02 0.  0.
         12    1    1    2    0    0 -0.85512916362E+01 -0.16307679519E+01 -0.16579848525E+02  0.18726328254E+02  0.00000000000E+00 0. -1.
         11    1    3    3    0    0 -0.86573066304E+01 -0.12822427183E+02 -0.84280644178E+01  0.17618055143E+02  0.51100000000E-03 0. -1.
        -11    1    3    3    0    0  0.25854940564E+02  0.72975610569E+01 -0.61326531920E+00  0.26872075535E+02  0.51100000000E-03 0.  1.
         12    1    3    3    0    0 -0.86463422971E+01  0.71556340775E+01  0.25621178262E+02  0.27971541068E+02  0.00000000000E+00 0. -1.
</event>
<event>
 7    1  0.1692604E-013  0.7246161E+02  0.7816164E-02  0.1226708E+00
        -11   -1    0    0    0    0  0.00000000000E+00  0.00000000000E+00  0.45593999997E+02  0.45594000000E+02  0.51100000000E-03 0. -1.
         11   -1    0    0    0    0 -0.00000000000E+00 -0.00000000000E+00 -0.45593999997E+02  0.45594000000E+02  0.51100000000E-03 0.  1.
    9900012    2    1    2    0    0  0.15761534453E+02 -0.92762182973E+00 -0.10069330500E+02  0.72461605064E+02  0.70000045294E+02 0.  0.
         12    1    1    2    0    0 -0.15761534453E+02  0.92762182973E+00  0.10069330500E+02  0.18726394936E+02  0.00000000000E+00 0. -1.
         11    1    3    3    0    0  0.17701302361E+02  0.29709943786E+02 -0.13461580532E+02  0.37111063252E+02  0.51100000000E-03 0. -1.
        -11    1    3    3    0    0 -0.68011152291E+01 -0.43368353249E+01  0.29862629405E+01  0.86012252386E+01  0.51100000000E-03 0.  1.
        -12    1    3    3    0    0  0.48613473212E+01 -0.26300730291E+02  0.40598709177E+00  0.26749316573E+02  0.00000000000E+00 0.  1.
</event>
<event>
 7    1  0.1692604E-013  0.7246157E+02  0.7816164E-02  0.1226708E+00
        -11   -1    0    0    0    0  0.00000000000E+00  0.00000000000E+00  0.45593999997E+02  0.45594000000E+02  0.51100000000E-03 0.  1.
         11   -1    0    0    0    0 -0.00000000000E+00 -0.00000000000E+00 -0.45593999997E+02  0.45594000000E+02  0.51100000000E-03 0. -1.
    9900012    2    1    2    0    0  0.72653688281E+01 -0.85351927146E+01  0.15001468648E+02  0.72461570536E+02  0.70000000314E+02 0.  0.
         12    1    1    2    0    0 -0.72653688281E+01  0.85351927146E+01 -0.15001468648E+02  0.18726429464E+02  0.00000000000E+00 0. -1.
         11    1    3    3    0    0 -0.38276507942E+01 -0.73089239658E+01 -0.45636696226E+00  0.82631441477E+01  0.51100000000E-03 0. -1.
        -11    1    3    3    0    0 -0.88059077293E+00 -0.30142985961E+02  0.12891179037E+02  0.32795693924E+02  0.51100000000E-03 0.  1.
         12    1    3    3    0    0  0.11973610395E+02  0.28916717212E+02  0.25666565738E+01  0.31402732464E+02  0.00000000000E+00 0. -1.
</event>
<event>
 7    1  0.1692604E-013  0.7246098E+02  0.7816164E-02  0.1226710E+00
        -11   -1    0    0    0    0  0.00000000000E+00  0.00000000000E+00  0.45593999997E+02  0.45594000000E+02  0.51100000000E-03 0.  1.
         11   -1    0    0    0    0 -0.00000000000E+00 -0.00000000000E+00 -0.45593999997E+02  0.45594000000E+02  0.51100000000E-03 0. -1.
    9900012    2    1    2    0    0 -0.19637183790E+00 -0.47129516467E+01  0.18123211454E+02  0.72460980255E+02  0.69999231360E+02 0.  0.
         12    1    1    2    0    0  0.19637183790E+00  0.47129516467E+01 -0.18123211454E+02  0.18727019745E+02  0.00000000000E+00 0. -1.
         11    1    3    3    0    0  0.61310606957E+00  0.14686224283E+01 -0.12670493768E+01  0.20342480856E+01  0.51100000000E-03 0. -1.
        -11    1    3    3    0    0 -0.22060082846E+02 -0.27045901121E+02  0.22253586543E-01  0.34901697926E+02  0.51100000000E-03 0.  1.
         12    1    3    3    0    0  0.21250604939E+02  0.20864327046E+02  0.19368007244E+02  0.35525034243E+02  0.00000000000E+00 0. -1.
</event>
<event>
 7    1  0.1692604E-013  0.7246162E+02  0.7816164E-02  0.1226708E+00
        -11   -1    0    0    0    0  0.00000000000E+00  0.00000000000E+00  0.45593999997E+02  0.45594000000E+02  0.51100000000E-03 0.  1.
         11   -1    0    0    0    0 -0.00000000000E+00 -0.00000000000E+00 -0.45593999997E+02  0.45594000000E+02  0.51100000000E-03 0. -1.
    9900012    2    1    2    0    0  0.17488253124E+02 -0.28830361674E+01  0.60437212603E+01  0.72461615898E+02  0.70000059407E+02 0.  0.
         12    1    1    2    0    0 -0.17488253124E+02  0.28830361674E+01 -0.60437212603E+01  0.18726384102E+02  0.00000000000E+00 0. -1.
         11    1    3    3    0    0  0.10646428013E+02 -0.20010002293E+01 -0.51902274308E+01  0.12012031152E+02  0.51100000000E-03 0. -1.
        -11    1    3    3    0    0  0.17099883225E+02 -0.23059237018E+02  0.19443587859E+02  0.34672576011E+02  0.51100000000E-03 0.  1.
         12    1    3    3    0    0 -0.10258058114E+02  0.22177201080E+02 -0.82096391675E+01  0.25777008734E+02  0.00000000000E+00 0. -1.
</event>
<event>
 7    1  0.1692604E-013  0.7246158E+02  0.7816164E-02  0.1226708E+00
        -11   -1    0    0    0    0  0.00000000000E+00  0.00000000000E+00  0.45593999997E+02  0.45594000000E+02  0.51100000000E-03 0.  1.
         11   -1    0    0    0    0 -0.00000000000E+00 -0.00000000000E+00 -0.45593999997E+02  0.45594000000E+02  0.51100000000E-03 0. -1.
    9900012    2    1    2    0    0  0.31874915333E+01 -0.16077573813E+02  0.90570561088E+01  0.72461581566E+02  0.70000014684E+02 0.  0.
         12    1    1    2    0    0 -0.31874915333E+01  0.16077573813E+02 -0.90570561088E+01  0.18726418434E+02  0.00000000000E+00 0. -1.
         11    1    3    3    0    0 -0.12449223821E+02 -0.21848631187E+02 -0.19534812415E+02  0.31842656215E+02  0.51100000000E-03 0. -1.
        -11    1    3    3    0    0 -0.41704515518E+01  0.78692873912E+01  0.80281963599E+01  0.11990424815E+02  0.51100000000E-03 0.  1.
        -12    1    3    3    0    0  0.19807166906E+02 -0.20982300179E+01  0.20563672164E+02  0.28628500536E+02  0.00000000000E+00 0.  1.
</event>
<event>
 7    1  0.1692604E-013  0.7246156E+02  0.7816164E-02  0.1226708E+00
        -11   -1    0    0    0    0  0.00000000000E+00  0.00000000000E+00  0.45593999997E+02  0.45594000000E+02  0.51100000000E-03 0. -1.
         11   -1    0    0    0    0 -0.00000000000E+00 -0.00000000000E+00 -0.45593999997E+02  0.45594000000E+02  0.51100000000E-03 0.  1.
    9900012    2    1    2    0    0  0.16236474568E+02  0.23732053964E+01 -0.90235519710E+01  0.72461556119E+02  0.69999981534E+02 0.  0.
         12    1    1    2    0    0 -0.16236474568E+02 -0.23732053964E+01  0.90235519710E+01  0.18726443881E+02  0.00000000000E+00 0. -1.
         11    1    3    3    0    0  0.31597873616E+02  0.20826841800E+02  0.31426218901E+01  0.37974452320E+02  0.51100000000E-03 0. -1.
        -11    1    3    3    0    0  0.52631362206E+01 -0.67258948436E+01 -0.29896428659E+01  0.90485484499E+01  0.51100000000E-03 0.  1.
        -12    1    3    3    0    0 -0.20624535268E+02 -0.11727741560E+02 -0.91765309952E+01  0.25438555349E+02  0.00000000000E+00 0.  1.
</event>
<event>
 7    1  0.1692604E-013  0.7246159E+02  0.7816164E-02  0.1226708E+00
        -11   -1    0    0    0    0  0.00000000000E+00  0.00000000000E+00  0.45593999997E+02  0.45594000000E+02  0.51100000000E-03 0.  1.
         11   -1    0    0    0    0 -0.00000000000E+00 -0.00000000000E+00 -0.45593999997E+02  0.45594000000E+02  0.51100000000E-03 0. -1.
    9900012    2    1    2    0    0 -0.12310739445E+01  0.18189235481E+02  0.42795710046E+01  0.72461586610E+02  0.70000021255E+02 0.  0.
         12    1    1    2    0    0  0.12310739445E+01 -0.18189235481E+02 -0.42795710046E+01  0.18726413390E+02  0.00000000000E+00 0. -1.
         11    1    3    3    0    0 -0.12749420715E+02 -0.17316766485E+01 -0.84515073024E+01  0.15393973123E+02  0.51100000000E-03 0. -1.
        -11    1    3    3    0    0 -0.16738524245E+02 -0.35050406157E+01  0.10976549066E+02  0.20321125295E+02  0.51100000000E-03 0.  1.
         12    1    3    3    0    0  0.28256871015E+02  0.23425952746E+02  0.17545292407E+01  0.36746488192E+02  0.00000000000E+00 0. -1.
</event>
<event>
 7    1  0.1692604E-013  0.7246163E+02  0.7816164E-02  0.1226708E+00
        -11   -1    0    0    0    0  0.00000000000E+00  0.00000000000E+00  0.45593999997E+02  0.45594000000E+02  0.51100000000E-03 0.  1.
         11   -1    0    0    0    0 -0.00000000000E+00 -0.00000000000E+00 -0.45593999997E+02  0.45594000000E+02  0.51100000000E-03 0. -1.
    9900012    2    1    2    0    0  0.55773035293E+01 -0.36137090891E+01  0.17507477022E+02  0.72461629297E+02  0.70000076862E+02 0.  0.
         12    1    1    2    0    0 -0.55773035293E+01  0.36137090891E+01 -0.17507477022E+02  0.18726370703E+02  0.00000000000E+00 0. -1.
         11    1    3    3    0    0 -0.19136595234E+02  0.52701070486E+01 -0.90701346992E+01  0.21823167716E+02  0.51100000000E-03 0. -1.
        -11    1    3    3    0    0  0.15963056346E+02  0.98760148716E+01  0.25820998376E+01  0.18947877915E+02  0.51100000000E-03 0.  1.
        -12    1    3    3    0    0  0.87508424180E+01 -0.18759831009E+02  0.23995511884E+02  0.31690583666E+02  0.00000000000E+00 0.  1.
</event>
<event>
 7    1  0.1692604E-013  0.7246158E+02  0.7816164E-02  0.1226708E+00
        -11   -1    0    0    0    0  0.00000000000E+00  0.00000000000E+00  0.45593999997E+02  0.45594000000E+02  0.51100000000E-03 0. -1.
         11   -1    0    0    0    0 -0.00000000000E+00 -0.00000000000E+00 -0.45593999997E+02  0.45594000000E+02  0.51100000000E-03 0.  1.
    9900012    2    1    2    0    0  0.13010922315E+02  0.12783527432E+02 -0.42398399674E+01  0.72461577062E+02  0.70000008816E+02 0.  0.
         12    1    1    2    0    0 -0.13010922315E+02 -0.12783527432E+02  0.42398399674E+01  0.18726422938E+02  0.00000000000E+00 0. -1.
         11    1    3    3    0    0 -0.15308461950E+02  0.10964439167E+02 -0.10874923010E+02  0.21744697843E+02  0.51100000000E-03 0. -1.
        -11    1    3    3    0    0 -0.65829228356E+01  0.41501742528E+01 -0.94281276224E+01  0.12224909411E+02  0.51100000000E-03 0.  1.
         12    1    3    3    0    0  0.34902307101E+02 -0.23310859872E+01  0.16063210665E+02  0.38491969808E+02  0.00000000000E+00 0. -1.
</event>
<event>
 7    1  0.1692604E-013  0.7246154E+02  0.7816164E-02  0.1226708E+00
        -11   -1    0    0    0    0  0.00000000000E+00  0.00000000000E+00  0.45593999997E+02  0.45594000000E+02  0.51100000000E-03 0.  1.
         11   -1    0    0    0    0 -0.00000000000E+00 -0.00000000000E+00 -0.45593999997E+02  0.45594000000E+02  0.51100000000E-03 0. -1.
    9900012    2    1    2    0    0 -0.70940346201E+01  0.10435615362E+02  0.13836654686E+02  0.72461537225E+02  0.69999956921E+02 0.  0.
         12    1    1    2    0    0  0.70940346201E+01 -0.10435615362E+02 -0.13836654686E+02  0.18726462775E+02  0.00000000000E+00 0. -1.
         11    1    3    3    0    0  0.21748587148E+01 -0.16286371772E+02  0.12850552124E+02  0.20859352964E+02  0.51100000000E-03 0. -1.
        -11    1    3    3    0    0 -0.19949303254E+02  0.81180320848E+00 -0.89334864222E+01  0.21873292040E+02  0.51100000000E-03 0.  1.
         12    1    3    3    0    0  0.10680409919E+02  0.25910183925E+02  0.99195889842E+01  0.29728892221E+02  0.00000000000E+00 0. -1.
</event>
<event>
 7    1  0.1692604E-013  0.7246156E+02  0.7816164E-02  0.1226708E+00
        -11   -1    0    0    0    0  0.00000000000E+00  0.00000000000E+00  0.45593999997E+02  0.45594000000E+02  0.51100000000E-03 0.  1.
         11   -1    0    0    0    0 -0.00000000000E+00 -0.00000000000E+00 -0.45593999997E+02  0.45594000000E+02  0.51100000000E-03 0. -1.
    9900012    2    1    2    0    0  0.17106897802E+02  0.58939668486E+01 -0.48264551371E+01  0.72461562357E+02  0.69999989660E+02 0.  0.
         12    1    1    2    0    0 -0.17106897802E+02 -0.58939668486E+01  0.48264551371E+01  0.18726437643E+02  0.00000000000E+00 0. -1.
         11    1    3    3    0    0  0.15438276042E+02  0.51815808554E+01 -0.12981724699E+02  0.20825809077E+02  0.51100000000E-03 0. -1.
        -11    1    3    3    0    0  0.13292393150E+02  0.18992427399E+02 -0.80958916351E+01  0.24554907366E+02  0.51100000000E-03 0.  1.
        -12    1    3    3    0    0 -0.11623771389E+02 -0.18280041406E+02  0.16251161197E+02  0.27080845913E+02  0.00000000000E+00 0.  1.
</event>
<event>
 7    1  0.1692604E-013  0.7246157E+02  0.7816164E-02  0.1226708E+00
        -11   -1    0    0    0    0  0.00000000000E+00  0.00000000000E+00  0.45593999997E+02  0.45594000000E+02  0.51100000000E-03 0. -1.
         11   -1    0    0    0    0 -0.00000000000E+00 -0.00000000000E+00 -0.45593999997E+02  0.45594000000E+02  0.51100000000E-03 0.  1.
    9900012    2    1    2    0    0  0.81570147634E+01  0.16596226499E+02 -0.29508626995E+01  0.72461569092E+02  0.69999998434E+02 0.  0.
         12    1    1    2    0    0 -0.81570147634E+01 -0.16596226499E+02  0.29508626995E+01  0.18726430908E+02  0.00000000000E+00 0. -1.
         11    1    3    3    0    0 -0.49709096844E-01 -0.44017779811E+01 -0.14536108653E+02  0.15188040540E+02  0.51100000000E-03 0. -1.
        -11    1    3    3    0    0  0.18559695741E+02 -0.19353009258E+01 -0.12485646254E+02  0.22452150417E+02  0.51100000000E-03 0.  1.
         12    1    3    3    0    0 -0.10352971881E+02  0.22933305406E+02  0.24070892208E+02  0.34821378136E+02  0.00000000000E+00 0. -1.
</event>
<event>
 7    1  0.1692604E-013  0.7246176E+02  0.7816164E-02  0.1226707E+00
        -11   -1    0    0    0    0  0.00000000000E+00  0.00000000000E+00  0.45593999997E+02  0.45594000000E+02  0.51100000000E-03 0.  1.
         11   -1    0    0    0    0 -0.00000000000E+00 -0.00000000000E+00 -0.45593999997E+02  0.45594000000E+02  0.51100000000E-03 0. -1.
    9900012    2    1    2    0    0 -0.16040722641E+02  0.96312665478E+01 -0.77835880258E+00  0.72461763843E+02  0.70000252133E+02 0.  0.
         12    1    1    2    0    0  0.16040722641E+02 -0.96312665478E+01  0.77835880258E+00  0.18726236157E+02  0.00000000000E+00 0. -1.
         11    1    3    3    0    0 -0.73596995562E+01  0.80956742037E+01  0.10039263392E+02  0.14848970607E+02  0.51100000000E-03 0. -1.
        -11    1    3    3    0    0 -0.29195353482E+01  0.96956974383E+01  0.21511559973E+02  0.23775564099E+02  0.51100000000E-03 0.  1.
         12    1    3    3    0    0 -0.57614877369E+01 -0.81601050942E+01 -0.32329182168E+02  0.33837229138E+02  0.00000000000E+00 0. -1.
</event>
<event>
 7    1  0.1692604E-013  0.7246157E+02  0.7816164E-02  0.1226708E+00
        -11   -1    0    0    0    0  0.00000000000E+00  0.00000000000E+00  0.45593999997E+02  0.45594000000E+02  0.51100000000E-03 0. -1.
         11   -1    0    0    0    0 -0.00000000000E+00 -0.00000000000E+00 -0.45593999997E+02  0.45594000000E+02  0.51100000000E-03 0.  1.
    9900012    2    1    2    0    0  0.15638428395E+02  0.80149966459E+01 -0.64713713280E+01  0.72461567859E+02  0.69999996827E+02 0.  0.
         12    1    1    2    0    0 -0.15638428395E+02 -0.80149966459E+01  0.64713713280E+01  0.18726432141E+02  0.00000000000E+00 0. -1.
         11    1    3    3    0    0  0.62764348111E+01 -0.66114990325E+01  0.28986807113E+02  0.30386519055E+02  0.51100000000E-03 0. -1.
        -11    1    3    3    0    0  0.94264030319E+00 -0.28005731835E+01 -0.25778843444E+01  0.39213860881E+01  0.51100000000E-03 0.  1.
        -12    1    3    3    0    0  0.84193532803E+01  0.17427068862E+02 -0.32880294096E+02  0.38153662716E+02  0.00000000000E+00 0.  1.
</event>
<event>
 7    1  0.1692604E-013  0.7246179E+02  0.7816164E-02  0.1226707E+00
        -11   -1    0    0    0    0  0.00000000000E+00  0.00000000000E+00  0.45593999997E+02  0.45594000000E+02  0.51100000000E-03 0.  1.
         11   -1    0    0    0    0 -0.00000000000E+00 -0.00000000000E+00 -0.45593999997E+02  0.45594000000E+02  0.51100000000E-03 0. -1.
    9900012    2    1    2    0    0  0.14513608667E+02 -0.95783387551E+01  0.69485006234E+01  0.72461786534E+02  0.70000281692E+02 0.  0.
         12    1    1    2    0    0 -0.14513608667E+02  0.95783387551E+01 -0.69485006234E+01  0.18726213466E+02  0.00000000000E+00 0. -1.
         11    1    3    3    0    0  0.10933305005E+02 -0.11109638495E+02 -0.53069023776E+01  0.16465856763E+02  0.51100000000E-03 0. -1.
        -11    1    3    3    0    0  0.15034145301E+02 -0.19848204476E+02  0.18417965389E+02  0.30970924997E+02  0.51100000000E-03 0.  1.
         12    1    3    3    0    0 -0.11453841639E+02  0.21379504215E+02 -0.61625623879E+01  0.25025004775E+02  0.00000000000E+00 0. -1.
</event>
<event>
 7    1  0.1692604E-013  0.7246158E+02  0.7816164E-02  0.1226708E+00
        -11   -1    0    0    0    0  0.00000000000E+00  0.00000000000E+00  0.45593999997E+02  0.45594000000E+02  0.51100000000E-03 0.  1.
         11   -1    0    0    0    0 -0.00000000000E+00 -0.00000000000E+00 -0.45593999997E+02  0.45594000000E+02  0.51100000000E-03 0. -1.
    9900012    2    1    2    0    0  0.72853298079E+01 -0.16917424211E+02  0.33769222081E+01  0.72461578133E+02  0.70000010212E+02 0.  0.
         12    1    1    2    0    0 -0.72853298079E+01  0.16917424211E+02 -0.33769222081E+01  0.18726421867E+02  0.00000000000E+00 0. -1.
         11    1    3    3    0    0  0.22245912282E+02 -0.30297791579E+01 -0.21567447493E+02  0.31132217502E+02  0.51100000000E-03 0. -1.
        -11    1    3    3    0    0 -0.12021395976E+02  0.12462432820E+01  0.95037163485E-01  0.12086195260E+02  0.51100000000E-03 0.  1.
        -12    1    3    3    0    0 -0.29391864972E+01 -0.15133888335E+02  0.24849332537E+02  0.29243165371E+02  0.00000000000E+00 0.  1.
</event>
<event>
 7    1  0.1692604E-013  0.7246154E+02  0.7816164E-02  0.1226708E+00
        -11   -1    0    0    0    0  0.00000000000E+00  0.00000000000E+00  0.45593999997E+02  0.45594000000E+02  0.51100000000E-03 0. -1.
         11   -1    0    0    0    0 -0.00000000000E+00 -0.00000000000E+00 -0.45593999997E+02  0.45594000000E+02  0.51100000000E-03 0.  1.
    9900012    2    1    2    0    0 -0.47259083583E+01 -0.12101699889E+02 -0.13486838533E+02  0.72461543751E+02  0.69999965422E+02 0.  0.
         12    1    1    2    0    0  0.47259083583E+01  0.12101699889E+02  0.13486838533E+02  0.18726456249E+02  0.00000000000E+00 0. -1.
         11    1    3    3    0    0  0.18015358790E+02  0.55701430042E-01 -0.16571670860E+01  0.18091502370E+02  0.51100000000E-03 0. -1.
        -11    1    3    3    0    0 -0.89257349358E+01 -0.14509540016E+02 -0.28122207982E+02  0.32879386820E+02  0.51100000000E-03 0.  1.
         12    1    3    3    0    0 -0.13815532212E+02  0.23521386969E+01  0.16292536534E+02  0.21490654562E+02  0.00000000000E+00 0. -1.
</event>
<event>
 7    1  0.1692604E-013  0.7246168E+02  0.7816164E-02  0.1226708E+00
        -11   -1    0    0    0    0  0.00000000000E+00  0.00000000000E+00  0.45593999997E+02  0.45594000000E+02  0.51100000000E-03 0.  1.
         11   -1    0    0    0    0 -0.00000000000E+00 -0.00000000000E+00 -0.45593999997E+02  0.45594000000E+02  0.51100000000E-03 0. -1.
    9900012    2    1    2    0    0  0.16836706198E+02  0.78190941817E+01  0.24621332737E+01  0.72461681364E+02  0.70000144688E+02 0.  0.
         12    1    1    2    0    0 -0.16836706198E+02 -0.78190941817E+01 -0.24621332737E+01  0.18726318636E+02  0.00000000000E+00 0. -1.
         11    1    3    3    0    0 -0.41534414294E+01  0.22754519656E+02 -0.14889275750E+02  0.27508358240E+02  0.51100000000E-03 0. -1.
        -11    1    3    3    0    0  0.57997700577E+00  0.87442598035E+01 -0.80682622597E+00  0.88005353052E+01  0.51100000000E-03 0.  1.
        -12    1    3    3    0    0  0.20410170621E+02 -0.23679685277E+02  0.18158235250E+02  0.36152787818E+02  0.00000000000E+00 0.  1.
</event>
<event>
 7    1  0.1692604E-013  0.7246155E+02  0.7816164E-02  0.1226708E+00
        -11   -1    0    0    0    0  0.00000000000E+00  0.00000000000E+00  0.45593999997E+02  0.45594000000E+02  0.51100000000E-03 0. -1.
         11   -1    0    0    0    0 -0.00000000000E+00 -0.00000000000E+00 -0.45593999997E+02  0.45594000000E+02  0.51100000000E-03 0.  1.
    9900012    2    1    2    0    0  0.15209928736E+02  0.94812272321E+01  0.54262792237E+01  0.72461545231E+02  0.69999967351E+02 0.  0.
         12    1    1    2    0    0 -0.15209928736E+02 -0.94812272321E+01 -0.54262792237E+01  0.18726454769E+02  0.00000000000E+00 0. -1.
         11    1    3    3    0    0 -0.49335112206E+01  0.11319665894E+01  0.10952743915E+02  0.12065797978E+02  0.51100000000E-03 0. -1.
        -11    1    3    3    0    0 -0.97102528443E+01  0.44741408835E+01  0.18842589160E+02  0.21664489688E+02  0.51100000000E-03 0.  1.
        -12    1    3    3    0    0  0.29853692801E+02  0.38751197592E+01 -0.24369053850E+02  0.38731257565E+02  0.00000000000E+00 0.  1.
</event>
<event>
 7    1  0.1692604E-013  0.7246141E+02  0.7816164E-02  0.1226708E+00
        -11   -1    0    0    0    0  0.00000000000E+00  0.00000000000E+00  0.45593999997E+02  0.45594000000E+02  0.51100000000E-03 0.  1.
         11   -1    0    0    0    0 -0.00000000000E+00 -0.00000000000E+00 -0.45593999997E+02  0.45594000000E+02  0.51100000000E-03 0. -1.
    9900012    2    1    2    0    0 -0.92559329818E+01  0.16264700190E+02  0.68728047446E+00  0.72461411360E+02  0.69999792958E+02 0.  0.
         12    1    1    2    0    0  0.92559329818E+01 -0.16264700190E+02 -0.68728047446E+00  0.18726588640E+02  0.00000000000E+00 0. -1.
         11    1    3    3    0    0 -0.38421045923E+01  0.21385976041E+02 -0.14607356788E+00  0.21728853551E+02  0.51100000000E-03 0. -1.
        -11    1    3    3    0    0 -0.17915520324E+01  0.21773247278E+02  0.69284249457E+01  0.22919141088E+02  0.51100000000E-03 0.  1.
         12    1    3    3    0    0 -0.36222763571E+01 -0.26894523129E+02 -0.60950709034E+01  0.27813416720E+02  0.00000000000E+00 0. -1.
</event>
<event>
 7    1  0.1692604E-013  0.7246159E+02  0.7816164E-02  0.1226708E+00
        -11   -1    0    0    0    0  0.00000000000E+00  0.00000000000E+00  0.45593999997E+02  0.45594000000E+02  0.51100000000E-03 0.  1.
         11   -1    0    0    0    0 -0.00000000000E+00 -0.00000000000E+00 -0.45593999997E+02  0.45594000000E+02  0.51100000000E-03 0. -1.
    9900012    2    1    2    0    0  0.89034577279E+01 -0.32925991083E+01  0.16142046245E+02  0.72461590163E+02  0.70000025883E+02 0.  0.
         12    1    1    2    0    0 -0.89034577279E+01  0.32925991083E+01 -0.16142046245E+02  0.18726409837E+02  0.00000000000E+00 0. -1.
         11    1    3    3    0    0 -0.13531550701E+01 -0.81216487112E+01  0.24638388968E+02  0.25977729263E+02  0.51100000000E-03 0. -1.
        -11    1    3    3    0    0 -0.15959328668E+01  0.15693230287E+02  0.12437741752E+02  0.20087854508E+02  0.51100000000E-03 0.  1.
         12    1    3    3    0    0  0.11852545665E+02 -0.10864180685E+02 -0.20934084475E+02  0.26396006393E+02  0.00000000000E+00 0. -1.
</event>
<event>
 7    1  0.1692604E-013  0.7246130E+02  0.7816164E-02  0.1226709E+00
        -11   -1    0    0    0    0  0.00000000000E+00  0.00000000000E+00  0.45593999997E+02  0.45594000000E+02  0.51100000000E-03 0.  1.
         11   -1    0    0    0    0 -0.00000000000E+00 -0.00000000000E+00 -0.45593999997E+02  0.45594000000E+02  0.51100000000E-03 0. -1.
    9900012    2    1    2    0    0  0.12717752157E+02 -0.83343626039E+01  0.10930994601E+02  0.72461295461E+02  0.69999641978E+02 0.  0.
         12    1    1    2    0    0 -0.12717752157E+02  0.83343626039E+01 -0.10930994601E+02  0.18726704539E+02  0.00000000000E+00 0. -1.
         11    1    3    3    0    0  0.28650126459E+01  0.11888416578E+02  0.10151874155E+02  0.15893498524E+02  0.51100000000E-03 0. -1.
        -11    1    3    3    0    0  0.89828593837E+01  0.14804334217E+02 -0.98897235248E+01  0.19941582334E+02  0.51100000000E-03 0.  1.
        -12    1    3    3    0    0  0.86988012702E+00 -0.35027113399E+02  0.10668843970E+02  0.36626214603E+02  0.00000000000E+00 0.  1.
</event>
<event>
 7    1  0.1692604E-013  0.7246152E+02  0.7816164E-02  0.1226708E+00
        -11   -1    0    0    0    0  0.00000000000E+00  0.00000000000E+00  0.45593999997E+02  0.45594000000E+02  0.51100000000E-03 0. -1.
         11   -1    0    0    0    0 -0.00000000000E+00 -0.00000000000E+00 -0.45593999997E+02  0.45594000000E+02  0.51100000000E-03 0.  1.
    9900012    2    1    2    0    0  0.36932929921E+01  0.85321652668E+01 -0.16255542127E+02  0.72461523900E+02  0.69999939563E+02 0.  0.
         12    1    1    2    0    0 -0.36932929921E+01 -0.85321652668E+01  0.16255542127E+02  0.18726476100E+02  0.00000000000E+00 0. -1.
         11    1    3    3    0    0  0.12557808701E+01  0.49642385393E+01  0.58946526858E+01  0.78081739489E+01  0.51100000000E-03 0. -1.
        -11    1    3    3    0    0  0.29846935975E+02 -0.74865214688E+01 -0.75263407503E+01  0.31678595236E+02  0.51100000000E-03 0.  1.
         12    1    3    3    0    0 -0.27409423853E+02  0.11054448196E+02 -0.14623854063E+02  0.32974754715E+02  0.00000000000E+00 0. -1.
</event>
<event>
 7    1  0.1692604E-013  0.7246160E+02  0.7816164E-02  0.1226708E+00
        -11   -1    0    0    0    0  0.00000000000E+00  0.00000000000E+00  0.45593999997E+02  0.45594000000E+02  0.51100000000E-03 0.  1.
         11   -1    0    0    0    0 -0.00000000000E+00 -0.00000000000E+00 -0.45593999997E+02  0.45594000000E+02  0.51100000000E-03 0. -1.
    9900012    2    1    2    0    0 -0.10693919562E+02 -0.36976561857E+01  0.14921313584E+02  0.72461596823E+02  0.70000034559E+02 0.  0.
         12    1    1    2    0    0  0.10693919562E+02  0.36976561857E+01 -0.14921313584E+02  0.18726403177E+02  0.00000000000E+00 0. -1.
         11    1    3    3    0    0 -0.16491859788E+01 -0.14963483938E+02 -0.45766208811E+01  0.15734393058E+02  0.51100000000E-03 0. -1.
        -11    1    3    3    0    0 -0.28008760085E+02  0.13996382973E+00  0.20512457306E+02  0.34717015084E+02  0.51100000000E-03 0.  1.
         12    1    3    3    0    0  0.18964026502E+02  0.11125863923E+02 -0.10145228414E+01  0.22010188681E+02  0.00000000000E+00 0. -1.
</event>
<event>
 7    1  0.1692604E-013  0.7246157E+02  0.7816164E-02  0.1226708E+00
        -11   -1    0    0    0    0  0.00000000000E+00  0.00000000000E+00  0.45593999997E+02  0.45594000000E+02  0.51100000000E-03 0.  1.
         11   -1    0    0    0    0 -0.00000000000E+00 -0.00000000000E+00 -0.45593999997E+02  0.45594000000E+02  0.51100000000E-03 0. -1.
    9900012    2    1    2    0    0  0.13832359792E+01  0.91387489461E+01  0.16286469550E+02  0.72461570429E+02  0.70000000175E+02 0.  0.
         12    1    1    2    0    0 -0.13832359792E+01 -0.91387489461E+01 -0.16286469550E+02  0.18726429571E+02  0.00000000000E+00 0. -1.
         11    1    3    3    0    0  0.47005044693E+01 -0.14721129717E+01  0.14297695084E+02  0.15122365683E+02  0.51100000000E-03 0. -1.
        -11    1    3    3    0    0  0.96922545264E+01  0.58493409954E+01  0.26704945818E+02  0.29005322258E+02  0.51100000000E-03 0.  1.
         12    1    3    3    0    0 -0.13009523017E+02  0.47615209225E+01 -0.24716171351E+02  0.28333882489E+02  0.00000000000E+00 0. -1.
</event>
<event>
 7    1  0.1692604E-013  0.7246153E+02  0.7816164E-02  0.1226708E+00
        -11   -1    0    0    0    0  0.00000000000E+00  0.00000000000E+00  0.45593999997E+02  0.45594000000E+02  0.51100000000E-03 0.  1.
         11   -1    0    0    0    0 -0.00000000000E+00 -0.00000000000E+00 -0.45593999997E+02  0.45594000000E+02  0.51100000000E-03 0. -1.
    9900012    2    1    2    0    0  0.84982322388E+01  0.15180184188E+02  0.69298506114E+01  0.72461527490E+02  0.69999944240E+02 0.  0.
         12    1    1    2    0    0 -0.84982322388E+01 -0.15180184188E+02 -0.69298506114E+01  0.18726472510E+02  0.00000000000E+00 0. -1.
         11    1    3    3    0    0  0.13487521927E+01  0.22165439054E+02  0.16353660162E+02  0.27578397740E+02  0.51100000000E-03 0. -1.
        -11    1    3    3    0    0  0.62561298925E+01  0.15403100534E+02 -0.14327051504E+02  0.21946732612E+02  0.51100000000E-03 0.  1.
         12    1    3    3    0    0  0.89335015353E+00 -0.22388355400E+02  0.49032419532E+01  0.22936397138E+02  0.00000000000E+00 0. -1.
</event>
<event>
 7    1  0.1692604E-013  0.7246155E+02  0.7816164E-02  0.1226708E+00
        -11   -1    0    0    0    0  0.00000000000E+00  0.00000000000E+00  0.45593999997E+02  0.45594000000E+02  0.51100000000E-03 0. -1.
         11   -1    0    0    0    0 -0.00000000000E+00 -0.00000000000E+00 -0.45593999997E+02  0.45594000000E+02  0.51100000000E-03 0.  1.
    9900012    2    1    2    0    0 -0.16078587697E+02  0.21406608777E+01 -0.93582283453E+01  0.72461552150E+02  0.69999976363E+02 0.  0.
         12    1    1    2    0    0  0.16078587697E+02 -0.21406608777E+01  0.93582283453E+01  0.18726447850E+02  0.00000000000E+00 0. -1.
         11    1    3    3    0    0 -0.74399588335E+01 -0.21112492133E+02  0.95716718567E+01  0.24345578939E+02  0.51100000000E-03 0. -1.
        -11    1    3    3    0    0 -0.13326410085E+02 -0.30538293967E+01  0.24556590287E+01  0.13890620622E+02  0.51100000000E-03 0.  1.
        -12    1    3    3    0    0  0.46877812215E+01  0.26306982407E+02 -0.21385559231E+02  0.34225352588E+02  0.00000000000E+00 0.  1.
</event>
<event>
 7    1  0.1692604E-013  0.7246178E+02  0.7816164E-02  0.1226707E+00
        -11   -1    0    0    0    0  0.00000000000E+00  0.00000000000E+00  0.45593999997E+02  0.45594000000E+02  0.51100000000E-03 0.  1.
         11   -1    0    0    0    0 -0.00000000000E+00 -0.00000000000E+00 -0.45593999997E+02  0.45594000000E+02  0.51100000000E-03 0. -1.
    9900012    2    1    2    0    0  0.45265054610E+01  0.14824525549E+02  0.10507874732E+02  0.72461781993E+02  0.70000275777E+02 0.  0.
         12    1    1    2    0    0 -0.45265054610E+01 -0.14824525549E+02 -0.10507874732E+02  0.18726218007E+02  0.00000000000E+00 0. -1.
         11    1    3    3    0    0  0.48014672714E+01  0.69181413782E+01 -0.19516081378E+02  0.21255404036E+02  0.51100000000E-03 0. -1.
        -11    1    3    3    0    0 -0.10217880627E+02  0.14154161721E+02 -0.15439408981E+01  0.17525100065E+02  0.51100000000E-03 0.  1.
         12    1    3    3    0    0  0.99429188170E+01 -0.62477775504E+01  0.31567897009E+02  0.33681277893E+02  0.00000000000E+00 0. -1.
</event>
<event>
 7    1  0.1692604E-013  0.7246158E+02  0.7816164E-02  0.1226708E+00
        -11   -1    0    0    0    0  0.00000000000E+00  0.00000000000E+00  0.45593999997E+02  0.45594000000E+02  0.51100000000E-03 0. -1.
         11   -1    0    0    0    0 -0.00000000000E+00 -0.00000000000E+00 -0.45593999997E+02  0.45594000000E+02  0.51100000000E-03 0.  1.
    9900012    2    1    2    0    0  0.10140152550E+02 -0.14449941990E+02  0.62494266156E+01  0.72461578818E+02  0.70000011104E+02 0.  0.
         12    1    1    2    0    0 -0.10140152550E+02  0.14449941990E+02 -0.62494266156E+01  0.18726421182E+02  0.00000000000E+00 0. -1.
         11    1    3    3    0    0  0.96453101640E+01 -0.35969798974E+02 -0.17902193698E+01  0.37283553103E+02  0.51100000000E-03 0. -1.
        -11    1    3    3    0    0  0.63157123290E+01 -0.10950729263E+01 -0.52709903449E+01  0.82988400644E+01  0.51100000000E-03 0.  1.
         12    1    3    3    0    0 -0.58208699430E+01  0.22614929910E+02  0.13310636330E+02  0.26879185650E+02  0.00000000000E+00 0. -1.
</event>
<event>
 7    1  0.1692604E-013  0.7246159E+02  0.7816164E-02  0.1226708E+00
        -11   -1    0    0    0    0  0.00000000000E+00  0.00000000000E+00  0.45593999997E+02  0.45594000000E+02  0.51100000000E-03 0.  1.
         11   -1    0    0    0    0 -0.00000000000E+00 -0.00000000000E+00 -0.45593999997E+02  0.45594000000E+02  0.51100000000E-03 0. -1.
    9900012    2    1    2    0    0  0.73118958603E+01 -0.97541379744E+01  0.14215186224E+02  0.72461586887E+02  0.70000021615E+02 0.  0.
         12    1    1    2    0    0 -0.73118958603E+01  0.97541379744E+01 -0.14215186224E+02  0.18726413113E+02  0.00000000000E+00 0. -1.
         11    1    3    3    0    0 -0.16561297652E+02 -0.10460950318E+02 -0.15531742003E+02  0.24998861402E+02  0.51100000000E-03 0. -1.
        -11    1    3    3    0    0  0.57662592689E+01 -0.12959591865E+02  0.96519083498E+01  0.17156925783E+02  0.51100000000E-03 0.  1.
        -12    1    3    3    0    0  0.18106934244E+02  0.13666404209E+02  0.20095019878E+02  0.30305799702E+02  0.00000000000E+00 0.  1.
</event>
<event>
 7    1  0.1692604E-013  0.7246150E+02  0.7816164E-02  0.1226708E+00
        -11   -1    0    0    0    0  0.00000000000E+00  0.00000000000E+00  0.45593999997E+02  0.45594000000E+02  0.51100000000E-03 0.  1.
         11   -1    0    0    0    0 -0.00000000000E+00 -0.00000000000E+00 -0.45593999997E+02  0.45594000000E+02  0.51100000000E-03 0. -1.
    9900012    2    1    2    0    0  0.81302226177E+01 -0.14600257485E+02  0.84506568125E+01  0.72461504359E+02  0.69999914106E+02 0.  0.
         12    1    1    2    0    0 -0.81302226177E+01  0.14600257485E+02 -0.84506568125E+01  0.18726495641E+02  0.00000000000E+00 0. -1.
         11    1    3    3    0    0  0.16975592674E+02 -0.74999937569E+01  0.93477322078E+01  0.20779815944E+02  0.51100000000E-03 0.  1.
        -11    1    3    3    0    0  0.16856710579E+01  0.12613516012E+02 -0.19035438835E+02  0.22897384239E+02  0.51100000000E-03 0. -1.
        -12    1    3    3    0    0 -0.10531041114E+02 -0.19713779741E+02  0.18138363439E+02  0.28784304175E+02  0.00000000000E+00 0.  1.
</event>
<event>
 7    1  0.1692604E-013  0.7246160E+02  0.7816164E-02  0.1226708E+00
        -11   -1    0    0    0    0  0.00000000000E+00  0.00000000000E+00  0.45593999997E+02  0.45594000000E+02  0.51100000000E-03 0. -1.
         11   -1    0    0    0    0 -0.00000000000E+00 -0.00000000000E+00 -0.45593999997E+02  0.45594000000E+02  0.51100000000E-03 0.  1.
    9900012    2    1    2    0    0 -0.56815720628E+01 -0.75401750196E+01 -0.16172312142E+02  0.72461596703E+02  0.70000034402E+02 0.  0.
         12    1    1    2    0    0  0.56815720628E+01  0.75401750196E+01  0.16172312142E+02  0.18726403297E+02  0.00000000000E+00 0. -1.
         11    1    3    3    0    0 -0.38982674973E+01  0.10377290775E+02  0.14627476383E+02  0.18353411642E+02  0.51100000000E-03 0. -1.
        -11    1    3    3    0    0 -0.11019342830E+02  0.10097313488E+02 -0.92465833724E+01  0.17575009542E+02  0.51100000000E-03 0.  1.
        -12    1    3    3    0    0  0.92360382646E+01 -0.28014779283E+02 -0.21553205152E+02  0.36533175518E+02  0.00000000000E+00 0.  1.
</event>
<event>
 7    1  0.1692604E-013  0.7246155E+02  0.7816164E-02  0.1226708E+00
        -11   -1    0    0    0    0  0.00000000000E+00  0.00000000000E+00  0.45593999997E+02  0.45594000000E+02  0.51100000000E-03 0. -1.
         11   -1    0    0    0    0 -0.00000000000E+00 -0.00000000000E+00 -0.45593999997E+02  0.45594000000E+02  0.51100000000E-03 0.  1.
    9900012    2    1    2    0    0 -0.27730287802E+01 -0.18501071107E+02  0.83700876772E+00  0.72461550673E+02  0.69999974439E+02 0.  0.
         12    1    1    2    0    0  0.27730287802E+01  0.18501071107E+02 -0.83700876772E+00  0.18726449327E+02  0.00000000000E+00 0. -1.
         11    1    3    3    0    0 -0.27523837861E+01 -0.16463959188E+02  0.32167410257E+01  0.16999558575E+02  0.51100000000E-03 0. -1.
        -11    1    3    3    0    0  0.17320801710E+02  0.67871356219E+01 -0.21328985050E+02  0.28301960805E+02  0.51100000000E-03 0.  1.
         12    1    3    3    0    0 -0.17341446704E+02 -0.88242475410E+01  0.18949252793E+02  0.27160031293E+02  0.00000000000E+00 0. -1.
</event>
<event>
 7    1  0.1692604E-013  0.7246158E+02  0.7816164E-02  0.1226708E+00
        -11   -1    0    0    0    0  0.00000000000E+00  0.00000000000E+00  0.45593999997E+02  0.45594000000E+02  0.51100000000E-03 0.  1.
         11   -1    0    0    0    0 -0.00000000000E+00 -0.00000000000E+00 -0.45593999997E+02  0.45594000000E+02  0.51100000000E-03 0. -1.
    9900012    2    1    2    0    0 -0.21718409158E+01  0.17916600449E+02 -0.49957488457E+01  0.72461575591E+02  0.70000006900E+02 0.  0.
         12    1    1    2    0    0  0.21718409158E+01 -0.17916600449E+02  0.49957488457E+01  0.18726424409E+02  0.00000000000E+00 0. -1.
         11    1    3    3    0    0 -0.53972428469E+01 -0.10173403530E+02  0.43229330012E+01  0.12301061731E+02  0.51100000000E-03 0. -1.
        -11    1    3    3    0    0  0.28838805742E+01 -0.75653551763E+01  0.14968504938E+02  0.17017858457E+02  0.51100000000E-03 0.  1.
         12    1    3    3    0    0  0.34152135690E+00  0.35655359155E+02 -0.24287186785E+02  0.43142655403E+02  0.00000000000E+00 0. -1.
</event>
<event>
 7    1  0.1692604E-013  0.7246149E+02  0.7816164E-02  0.1226708E+00
        -11   -1    0    0    0    0  0.00000000000E+00  0.00000000000E+00  0.45593999997E+02  0.45594000000E+02  0.51100000000E-03 0.  1.
         11   -1    0    0    0    0 -0.00000000000E+00 -0.00000000000E+00 -0.45593999997E+02  0.45594000000E+02  0.51100000000E-03 0. -1.
    9900012    2    1    2    0    0  0.69057747654E+01  0.66210983206E+01  0.16098244779E+02  0.72461490634E+02  0.69999896227E+02 0.  0.
         12    1    1    2    0    0 -0.69057747654E+01 -0.66210983206E+01 -0.16098244779E+02  0.18726509366E+02  0.00000000000E+00 0. -1.
         11    1    3    3    0    0 -0.40437456336E+01  0.54599533230E+01  0.16997118132E+02  0.18304780635E+02  0.51100000000E-03 0. -1.
        -11    1    3    3    0    0  0.92042929307E+01  0.15769674607E+02  0.20966248294E+02  0.27802611628E+02  0.51100000000E-03 0.  1.
         12    1    3    3    0    0  0.17452274683E+01 -0.14608529609E+02 -0.21865121647E+02  0.26354098370E+02  0.00000000000E+00 0. -1.
</event>
<event>
 7    1  0.1692604E-013  0.7246149E+02  0.7816164E-02  0.1226708E+00
        -11   -1    0    0    0    0  0.00000000000E+00  0.00000000000E+00  0.45593999997E+02  0.45594000000E+02  0.51100000000E-03 0.  1.
         11   -1    0    0    0    0 -0.00000000000E+00 -0.00000000000E+00 -0.45593999997E+02  0.45594000000E+02  0.51100000000E-03 0. -1.
    9900012    2    1    2    0    0  0.78942924165E+01  0.15746251470E+02  0.63575206798E+01  0.72461485180E+02  0.69999889123E+02 0.  0.
         12    1    1    2    0    0 -0.78942924165E+01 -0.15746251470E+02 -0.63575206798E+01  0.18726514820E+02  0.00000000000E+00 0. -1.
         11    1    3    3    0    0  0.15854009135E+02  0.13201344646E+02 -0.19752264391E+02  0.28561811129E+02  0.51100000000E-03 0. -1.
        -11    1    3    3    0    0  0.13534572508E+02  0.23962240109E+00  0.81974975882E+01  0.15825329028E+02  0.51100000000E-03 0.  1.
         12    1    3    3    0    0 -0.21494289227E+02  0.23052844225E+01  0.17912287482E+02  0.28074345023E+02  0.00000000000E+00 0. -1.
</event>
<event>
 7    1  0.1692604E-013  0.7246159E+02  0.7816164E-02  0.1226708E+00
        -11   -1    0    0    0    0  0.00000000000E+00  0.00000000000E+00  0.45593999997E+02  0.45594000000E+02  0.51100000000E-03 0.  1.
         11   -1    0    0    0    0 -0.00000000000E+00 -0.00000000000E+00 -0.45593999997E+02  0.45594000000E+02  0.51100000000E-03 0. -1.
    9900012    2    1    2    0    0  0.27638369010E+01  0.13634279246E+02  0.12535790681E+02  0.72461590494E+02  0.70000026314E+02 0.  0.
         12    1    1    2    0    0 -0.27638369010E+01 -0.13634279246E+02 -0.12535790681E+02  0.18726409506E+02  0.00000000000E+00 0. -1.
         11    1    3    3    0    0  0.24827726733E+02  0.15462922146E+02  0.17387266178E+02  0.34026974615E+02  0.51100000000E-03 0.  1.
        -11    1    3    3    0    0 -0.22275581729E+01 -0.14080366543E+01 -0.15633090517E+02  0.15853646331E+02  0.51100000000E-03 0. -1.
        -12    1    3    3    0    0 -0.19836331659E+02 -0.42060624563E+00  0.10781615019E+02  0.22580969548E+02  0.00000000000E+00 0.  1.
</event>
<event>
 7    1  0.1692604E-013  0.7246157E+02  0.7816164E-02  0.1226708E+00
        -11   -1    0    0    0    0  0.00000000000E+00  0.00000000000E+00  0.45593999997E+02  0.45594000000E+02  0.51100000000E-03 0. -1.
         11   -1    0    0    0    0 -0.00000000000E+00 -0.00000000000E+00 -0.45593999997E+02  0.45594000000E+02  0.51100000000E-03 0.  1.
    9900012    2    1    2    0    0  0.11754717128E+02 -0.13702053575E+02 -0.49759140470E+01  0.72461565007E+02  0.69999993113E+02 0.  0.
         12    1    1    2    0    0 -0.11754717128E+02  0.13702053575E+02  0.49759140470E+01  0.18726434993E+02  0.00000000000E+00 0. -1.
         11    1    3    3    0    0 -0.17488051409E+02 -0.15278819990E+02  0.10447096547E+02  0.25464015961E+02  0.51100000000E-03 0. -1.
        -11    1    3    3    0    0 -0.29720757266E+01  0.88994597183E+01 -0.96516442379E+01  0.13460603781E+02  0.51100000000E-03 0.  1.
        -12    1    3    3    0    0  0.32214844263E+02 -0.73226933040E+01 -0.57713663559E+01  0.33536945265E+02  0.00000000000E+00 0.  1.
</event>
<event>
 7    1  0.1692604E-013  0.7246154E+02  0.7816164E-02  0.1226708E+00
        -11   -1    0    0    0    0  0.00000000000E+00  0.00000000000E+00  0.45593999997E+02  0.45594000000E+02  0.51100000000E-03 0. -1.
         11   -1    0    0    0    0 -0.00000000000E+00 -0.00000000000E+00 -0.45593999997E+02  0.45594000000E+02  0.51100000000E-03 0.  1.
    9900012    2    1    2    0    0  0.12052467625E+02  0.40084926202E+01 -0.13760462219E+02  0.72461539859E+02  0.69999960352E+02 0.  0.
         12    1    1    2    0    0 -0.12052467625E+02 -0.40084926202E+01  0.13760462219E+02  0.18726460141E+02  0.00000000000E+00 0. -1.
         11    1    3    3    0    0  0.18953135836E+02 -0.26684722140E+01  0.23606594722E+01  0.19285093087E+02  0.51100000000E-03 0. -1.
        -11    1    3    3    0    0  0.15185075667E+02 -0.12334733652E+02  0.61093068864E+00  0.19573078803E+02  0.51100000000E-03 0.  1.
         12    1    3    3    0    0 -0.22085743878E+02  0.19011698486E+02 -0.16732052380E+02  0.33603367968E+02  0.00000000000E+00 0. -1.
</event>
<event>
 7    1  0.1692604E-013  0.7246155E+02  0.7816164E-02  0.1226708E+00
        -11   -1    0    0    0    0  0.00000000000E+00  0.00000000000E+00  0.45593999997E+02  0.45594000000E+02  0.51100000000E-03 0. -1.
         11   -1    0    0    0    0 -0.00000000000E+00 -0.00000000000E+00 -0.45593999997E+02  0.45594000000E+02  0.51100000000E-03 0.  1.
    9900012    2    1    2    0    0 -0.10174747633E+02  0.13672044471E+02 -0.77607872884E+01  0.72461545217E+02  0.69999967332E+02 0.  0.
         12    1    1    2    0    0  0.10174747633E+02 -0.13672044471E+02  0.77607872884E+01  0.18726454783E+02  0.00000000000E+00 0. -1.
         11    1    3    3    0    0 -0.61406109165E+01  0.48995125294E+01  0.51570824377E+01  0.93972243234E+01  0.51100000000E-03 0. -1.
        -11    1    3    3    0    0  0.20046801849E+02  0.11707282514E+02  0.13775464990E+02  0.26994409869E+02  0.51100000000E-03 0.  1.
        -12    1    3    3    0    0 -0.24080938565E+02 -0.29347505715E+01 -0.26693334716E+02  0.36069911025E+02  0.00000000000E+00 0.  1.
</event>
<event>
 7    1  0.1692604E-013  0.7246158E+02  0.7816164E-02  0.1226708E+00
        -11   -1    0    0    0    0  0.00000000000E+00  0.00000000000E+00  0.45593999997E+02  0.45594000000E+02  0.51100000000E-03 0.  1.
         11   -1    0    0    0    0 -0.00000000000E+00 -0.00000000000E+00 -0.45593999997E+02  0.45594000000E+02  0.51100000000E-03 0. -1.
    9900012    2    1    2    0    0 -0.15175898418E+02 -0.15724494838E+01 -0.10858096463E+02  0.72461581523E+02  0.70000014627E+02 0.  0.
         12    1    1    2    0    0  0.15175898418E+02  0.15724494838E+01  0.10858096463E+02  0.18726418477E+02  0.00000000000E+00 0. -1.
         11    1    3    3    0    0  0.33162918729E+01 -0.10249887821E+02 -0.18862252581E+02  0.21721937410E+02  0.51100000000E-03 0. -1.
        -11    1    3    3    0    0 -0.27725552622E+02  0.12799543361E+02 -0.82181691251E+01  0.31623928954E+02  0.51100000000E-03 0.  1.
         12    1    3    3    0    0  0.92333623303E+01 -0.41221050242E+01  0.16222325243E+02  0.19115715159E+02  0.00000000000E+00 0. -1.
</event>
<event>
 7    1  0.1692604E-013  0.7246160E+02  0.7816164E-02  0.1226708E+00
        -11   -1    0    0    0    0  0.00000000000E+00  0.00000000000E+00  0.45593999997E+02  0.45594000000E+02  0.51100000000E-03 0.  1.
         11   -1    0    0    0    0 -0.00000000000E+00 -0.00000000000E+00 -0.45593999997E+02  0.45594000000E+02  0.51100000000E-03 0. -1.
    9900012    2    1    2    0    0 -0.62364499662E+01 -0.43044167185E+01  0.17124744355E+02  0.72461596697E+02  0.70000034394E+02 0.  0.
         12    1    1    2    0    0  0.62364499662E+01  0.43044167185E+01 -0.17124744355E+02  0.18726403303E+02  0.00000000000E+00 0. -1.
         11    1    3    3    0    0  0.44601612741E+01 -0.28284669384E+01  0.16999167965E+02  0.17800701548E+02  0.51100000000E-03 0. -1.
        -11    1    3    3    0    0 -0.60586596547E+01  0.25939381596E+02 -0.23783155442E+01  0.26743508735E+02  0.51100000000E-03 0.  1.
         12    1    3    3    0    0 -0.46379515856E+01 -0.27415331376E+02  0.25038919335E+01  0.27917386414E+02  0.00000000000E+00 0. -1.
</event>
<event>
 7    1  0.1692604E-013  0.7246167E+02  0.7816164E-02  0.1226708E+00
        -11   -1    0    0    0    0  0.00000000000E+00  0.00000000000E+00  0.45593999997E+02  0.45594000000E+02  0.51100000000E-03 0.  1.
         11   -1    0    0    0    0 -0.00000000000E+00 -0.00000000000E+00 -0.45593999997E+02  0.45594000000E+02  0.51100000000E-03 0. -1.
    9900012    2    1    2    0    0 -0.12727270097E+02 -0.27894478784E+01  0.13450313442E+02  0.72461672136E+02  0.70000132668E+02 0.  0.
         12    1    1    2    0    0  0.12727270097E+02  0.27894478784E+01 -0.13450313442E+02  0.18726327864E+02  0.00000000000E+00 0. -1.
         11    1    3    3    0    0 -0.29973090503E+02  0.41795306903E+01  0.68079789977E+01  0.31019400533E+02  0.51100000000E-03 0. -1.
        -11    1    3    3    0    0 -0.72229314213E+01 -0.44555709984E+01  0.13464800690E+02  0.15916146177E+02  0.51100000000E-03 0.  1.
        -12    1    3    3    0    0  0.24468751828E+02 -0.25134075704E+01 -0.68224662456E+01  0.25526125427E+02  0.00000000000E+00 0.  1.
</event>
<event>
 7    1  0.1692604E-013  0.7246164E+02  0.7816164E-02  0.1226708E+00
        -11   -1    0    0    0    0  0.00000000000E+00  0.00000000000E+00  0.45593999997E+02  0.45594000000E+02  0.51100000000E-03 0.  1.
         11   -1    0    0    0    0 -0.00000000000E+00 -0.00000000000E+00 -0.45593999997E+02  0.45594000000E+02  0.51100000000E-03 0. -1.
    9900012    2    1    2    0    0  0.46278829096E+01 -0.12705630526E+02  0.12954778025E+02  0.72461638342E+02  0.70000088644E+02 0.  0.
         12    1    1    2    0    0 -0.46278829096E+01  0.12705630526E+02 -0.12954778025E+02  0.18726361658E+02  0.00000000000E+00 0. -1.
         11    1    3    3    0    0  0.47990569724E+01 -0.53775239951E+01 -0.51517239214E+00  0.72259335035E+01  0.51100000000E-03 0. -1.
        -11    1    3    3    0    0  0.15835450120E+02 -0.30651672154E+02  0.13220377965E+02  0.36946784436E+02  0.51100000000E-03 0.  1.
         12    1    3    3    0    0 -0.16006624183E+02  0.23323565623E+02  0.24957245194E+00  0.28288920402E+02  0.00000000000E+00 0. -1.
</event>
<event>
 7    1  0.1692604E-013  0.7246155E+02  0.7816164E-02  0.1226708E+00
        -11   -1    0    0    0    0  0.00000000000E+00  0.00000000000E+00  0.45593999997E+02  0.45594000000E+02  0.51100000000E-03 0.  1.
         11   -1    0    0    0    0 -0.00000000000E+00 -0.00000000000E+00 -0.45593999997E+02  0.45594000000E+02  0.51100000000E-03 0. -1.
    9900012    2    1    2    0    0  0.69974737908E+01 -0.17223942368E+02  0.22474905808E+01  0.72461546944E+02  0.69999969581E+02 0.  0.
         12    1    1    2    0    0 -0.69974737908E+01  0.17223942368E+02 -0.22474905808E+01  0.18726453056E+02  0.00000000000E+00 0. -1.
         11    1    3    3    0    0 -0.82395520494E+01 -0.16173939716E+01 -0.75316004098E+01  0.11279680236E+02  0.51100000000E-03 0. -1.
        -11    1    3    3    0    0 -0.58586958620E+01  0.18981722584E+02  0.25553686729E+01  0.20028979474E+02  0.51100000000E-03 0.  1.
         12    1    3    3    0    0  0.21095721702E+02 -0.34588270980E+02  0.72237223176E+01  0.41152887234E+02  0.00000000000E+00 0. -1.
</event>
<event>
 7    1  0.1692604E-013  0.7246159E+02  0.7816164E-02  0.1226708E+00
        -11   -1    0    0    0    0  0.00000000000E+00  0.00000000000E+00  0.45593999997E+02  0.45594000000E+02  0.51100000000E-03 0.  1.
         11   -1    0    0    0    0 -0.00000000000E+00 -0.00000000000E+00 -0.45593999997E+02  0.45594000000E+02  0.51100000000E-03 0. -1.
    9900012    2    1    2    0    0  0.14342493772E+02 -0.64389614243E+01  0.10174034753E+02  0.72461592577E+02  0.70000029027E+02 0.  0.
         12    1    1    2    0    0 -0.14342493772E+02  0.64389614243E+01 -0.10174034753E+02  0.18726407423E+02  0.00000000000E+00 0. -1.
         11    1    3    3    0    0 -0.13938557348E+02 -0.10907409997E+02 -0.91061173994E+01  0.19904179163E+02  0.51100000000E-03 0. -1.
        -11    1    3    3    0    0 -0.79120652414E+01  0.37277075194E+01 -0.38946097690E+01  0.95741613339E+01  0.51100000000E-03 0.  1.
        -12    1    3    3    0    0  0.36193116362E+02  0.74074105368E+00  0.23174761921E+02  0.42983252080E+02  0.00000000000E+00 0.  1.
</event>
<event>
 7    1  0.1692604E-013  0.7246136E+02  0.7816164E-02  0.1226709E+00
        -11   -1    0    0    0    0  0.00000000000E+00  0.00000000000E+00  0.45593999997E+02  0.45594000000E+02  0.51100000000E-03 0. -1.
         11   -1    0    0    0    0 -0.00000000000E+00 -0.00000000000E+00 -0.45593999997E+02  0.45594000000E+02  0.51100000000E-03 0.  1.
    9900012    2    1    2    0    0 -0.94382991908E+01 -0.74724319893E+01 -0.14344621825E+02  0.72461363709E+02  0.69999730884E+02 0.  0.
         12    1    1    2    0    0  0.94382991908E+01  0.74724319893E+01  0.14344621825E+02  0.18726636291E+02  0.00000000000E+00 0. -1.
         11    1    3    3    0    0 -0.76220960670E+01  0.81594247499E+01 -0.39212200272E+01  0.11834210048E+02  0.51100000000E-03 0. -1.
        -11    1    3    3    0    0 -0.14421329951E+02 -0.56488396942E+01 -0.30916319581E+02  0.34578938158E+02  0.51100000000E-03 0.  1.
         12    1    3    3    0    0  0.12605126827E+02 -0.99830170451E+01  0.20492917783E+02  0.26048215503E+02  0.00000000000E+00 0. -1.
</event>
<event>
 7    1  0.1692604E-013  0.7246208E+02  0.7816164E-02  0.1226707E+00
        -11   -1    0    0    0    0  0.00000000000E+00  0.00000000000E+00  0.45593999997E+02  0.45594000000E+02  0.51100000000E-03 0.  1.
         11   -1    0    0    0    0 -0.00000000000E+00 -0.00000000000E+00 -0.45593999997E+02  0.45594000000E+02  0.51100000000E-03 0. -1.
    9900012    2    1    2    0    0  0.36323164380E+01  0.44545720769E+01  0.17821981530E+02  0.72462083180E+02  0.70000668126E+02 0.  0.
         12    1    1    2    0    0 -0.36323164380E+01 -0.44545720769E+01 -0.17821981530E+02  0.18725916820E+02  0.00000000000E+00 0. -1.
         11    1    3    3    0    0 -0.19080908092E+02 -0.51966372448E+01  0.93468014824E+01  0.21873472301E+02  0.51100000000E-03 0. -1.
        -11    1    3    3    0    0  0.57427249942E+01 -0.15179258533E+02 -0.58813186647E+01  0.17262059248E+02  0.51100000000E-03 0.  1.
         12    1    3    3    0    0  0.16970499536E+02  0.24830467855E+02  0.14356498712E+02  0.33326551632E+02  0.00000000000E+00 0. -1.
</event>
<event>
 7    1  0.1692604E-013  0.7246154E+02  0.7816164E-02  0.1226708E+00
        -11   -1    0    0    0    0  0.00000000000E+00  0.00000000000E+00  0.45593999997E+02  0.45594000000E+02  0.51100000000E-03 0.  1.
         11   -1    0    0    0    0 -0.00000000000E+00 -0.00000000000E+00 -0.45593999997E+02  0.45594000000E+02  0.51100000000E-03 0. -1.
    9900012    2    1    2    0    0 -0.82741829215E+01  0.44996116106E+01  0.16185542076E+02  0.72461537975E+02  0.69999957899E+02 0.  0.
         12    1    1    2    0    0  0.82741829215E+01 -0.44996116106E+01 -0.16185542076E+02  0.18726462025E+02  0.00000000000E+00 0. -1.
         11    1    3    3    0    0  0.17788910200E+02  0.21667371382E+02  0.82641554127E+01  0.29226983656E+02  0.51100000000E-03 0. -1.
        -11    1    3    3    0    0  0.53574660991E+00  0.60779331030E+01  0.48161572197E+01  0.77732660999E+01  0.51100000000E-03 0.  1.
        -12    1    3    3    0    0 -0.26598839732E+02 -0.23245692874E+02  0.31052294436E+01  0.35461288219E+02  0.00000000000E+00 0.  1.
</event>
<event>
 7    1  0.1692604E-013  0.7246154E+02  0.7816164E-02  0.1226708E+00
        -11   -1    0    0    0    0  0.00000000000E+00  0.00000000000E+00  0.45593999997E+02  0.45594000000E+02  0.51100000000E-03 0. -1.
         11   -1    0    0    0    0 -0.00000000000E+00 -0.00000000000E+00 -0.45593999997E+02  0.45594000000E+02  0.51100000000E-03 0.  1.
    9900012    2    1    2    0    0  0.13080231224E+02 -0.40207243301E+01 -0.12783646812E+02  0.72461540142E+02  0.69999960720E+02 0.  0.
         12    1    1    2    0    0 -0.13080231224E+02  0.40207243301E+01  0.12783646812E+02  0.18726459858E+02  0.00000000000E+00 0. -1.
         11    1    3    3    0    0 -0.68532201216E+01  0.24308578051E+01 -0.88943207287E+01  0.11488456693E+02  0.51100000000E-03 0. -1.
        -11    1    3    3    0    0  0.14704110047E+02  0.23741622819E+02 -0.10119950944E+02  0.29703348528E+02  0.51100000000E-03 0.  1.
         12    1    3    3    0    0  0.52293412985E+01 -0.30193204955E+02  0.62306248610E+01  0.31269734921E+02  0.00000000000E+00 0. -1.
</event>
<event>
 7    1  0.1692604E-013  0.7246157E+02  0.7816164E-02  0.1226708E+00
        -11   -1    0    0    0    0  0.00000000000E+00  0.00000000000E+00  0.45593999997E+02  0.45594000000E+02  0.51100000000E-03 0. -1.
         11   -1    0    0    0    0 -0.00000000000E+00 -0.00000000000E+00 -0.45593999997E+02  0.45594000000E+02  0.51100000000E-03 0.  1.
    9900012    2    1    2    0    0  0.14084650092E+02  0.11941997083E+02 -0.31129669929E+01  0.72461568785E+02  0.69999998034E+02 0.  0.
         12    1    1    2    0    0 -0.14084650092E+02 -0.11941997083E+02  0.31129669929E+01  0.18726431215E+02  0.00000000000E+00 0. -1.
         11    1    3    3    0    0  0.57024006533E+01 -0.14005570203E+02  0.20997316897E+02  0.25875870750E+02  0.51100000000E-03 0. -1.
        -11    1    3    3    0    0 -0.23865371557E+01 -0.51889127871E+01  0.80876274194E-01  0.57119976139E+01  0.51100000000E-03 0.  1.
        -12    1    3    3    0    0  0.10768786594E+02  0.31136480073E+02 -0.24191160164E+02  0.40873700422E+02  0.00000000000E+00 0.  1.
</event>
<event>
 7    1  0.1692604E-013  0.7246158E+02  0.7816164E-02  0.1226708E+00
        -11   -1    0    0    0    0  0.00000000000E+00  0.00000000000E+00  0.45593999997E+02  0.45594000000E+02  0.51100000000E-03 0.  1.
         11   -1    0    0    0    0 -0.00000000000E+00 -0.00000000000E+00 -0.45593999997E+02  0.45594000000E+02  0.51100000000E-03 0. -1.
    9900012    2    1    2    0    0  0.30499745322E+01  0.17408774240E+02  0.61895931124E+01  0.72461579411E+02  0.70000011876E+02 0.  0.
         12    1    1    2    0    0 -0.30499745322E+01 -0.17408774240E+02 -0.61895931124E+01  0.18726420589E+02  0.00000000000E+00 0. -1.
         11    1    3    3    0    0  0.66353741925E-01  0.68364102540E+01  0.46255253015E+01  0.82544771220E+01  0.51100000000E-03 0. -1.
        -11    1    3    3    0    0 -0.24793693574E+02 -0.53202011011E+01  0.15040418297E+02  0.29482977523E+02  0.51100000000E-03 0.  1.
         12    1    3    3    0    0  0.27777314364E+02  0.15892565087E+02 -0.13476350486E+02  0.34724124766E+02  0.00000000000E+00 0. -1.
</event>
<event>
 7    1  0.1692604E-013  0.7246157E+02  0.7816164E-02  0.1226708E+00
        -11   -1    0    0    0    0  0.00000000000E+00  0.00000000000E+00  0.45593999997E+02  0.45594000000E+02  0.51100000000E-03 0. -1.
         11   -1    0    0    0    0 -0.00000000000E+00 -0.00000000000E+00 -0.45593999997E+02  0.45594000000E+02  0.51100000000E-03 0.  1.
    9900012    2    1    2    0    0 -0.18282263432E+02  0.19004004243E+01  0.35814002681E+01  0.72461571994E+02  0.70000002214E+02 0.  0.
         12    1    1    2    0    0  0.18282263432E+02 -0.19004004243E+01 -0.35814002681E+01  0.18726428006E+02  0.00000000000E+00 0. -1.
         11    1    3    3    0    0 -0.16588227301E+01 -0.55038874179E+01 -0.61427290547E+01  0.84129418196E+01  0.51100000000E-03 0. -1.
        -11    1    3    3    0    0  0.21721233332E+01 -0.19495098093E+02 -0.13529846642E+02  0.23829261840E+02  0.51100000000E-03 0.  1.
         12    1    3    3    0    0 -0.18795564035E+02  0.26899385935E+02  0.23253975964E+02  0.40219368335E+02  0.00000000000E+00 0. -1.
</event>
<event>
 7    1  0.1692604E-013  0.7246157E+02  0.7816164E-02  0.1226708E+00
        -11   -1    0    0    0    0  0.00000000000E+00  0.00000000000E+00  0.45593999997E+02  0.45594000000E+02  0.51100000000E-03 0.  1.
         11   -1    0    0    0    0 -0.00000000000E+00 -0.00000000000E+00 -0.45593999997E+02  0.45594000000E+02  0.51100000000E-03 0. -1.
    9900012    2    1    2    0    0 -0.10934801565E+02 -0.37035331127E+01  0.14744261221E+02  0.72461567298E+02  0.69999996097E+02 0.  0.
         12    1    1    2    0    0  0.10934801565E+02  0.37035331127E+01 -0.14744261221E+02  0.18726432702E+02  0.00000000000E+00 0. -1.
         11    1    3    3    0    0  0.15921450483E+01  0.13855095961E+02 -0.11232977545E+02  0.17907495491E+02  0.51100000000E-03 0. -1.
        -11    1    3    3    0    0  0.26802716529E+01  0.55124723310E+01 -0.84312136515E+01  0.10423846278E+02  0.51100000000E-03 0.  1.
        -12    1    3    3    0    0 -0.15207218267E+02 -0.23071101405E+02  0.34408452418E+02  0.44130225529E+02  0.00000000000E+00 0.  1.
</event>
<event>
 7    1  0.1692604E-013  0.7246160E+02  0.7816164E-02  0.1226708E+00
        -11   -1    0    0    0    0  0.00000000000E+00  0.00000000000E+00  0.45593999997E+02  0.45594000000E+02  0.51100000000E-03 0. -1.
         11   -1    0    0    0    0 -0.00000000000E+00 -0.00000000000E+00 -0.45593999997E+02  0.45594000000E+02  0.51100000000E-03 0.  1.
    9900012    2    1    2    0    0  0.98262994212E+00 -0.10973738508E+02 -0.15142313623E+02  0.72461597241E+02  0.70000035103E+02 0.  0.
         12    1    1    2    0    0 -0.98262994212E+00  0.10973738508E+02  0.15142313623E+02  0.18726402759E+02  0.00000000000E+00 0. -1.
         11    1    3    3    0    0  0.16186046624E+00 -0.11705464826E+02  0.91190193678E+01  0.14839158335E+02  0.51100000000E-03 0. -1.
        -11    1    3    3    0    0  0.26776463967E+01 -0.25163074155E+02 -0.17588533125E+02  0.30817309891E+02  0.51100000000E-03 0.  1.
        -12    1    3    3    0    0 -0.18568769208E+01  0.25894800473E+02 -0.66727998659E+01  0.26805129015E+02  0.00000000000E+00 0.  1.
</event>
<event>
 7    1  0.1692604E-013  0.7246157E+02  0.7816164E-02  0.1226708E+00
        -11   -1    0    0    0    0  0.00000000000E+00  0.00000000000E+00  0.45593999997E+02  0.45594000000E+02  0.51100000000E-03 0. -1.
         11   -1    0    0    0    0 -0.00000000000E+00 -0.00000000000E+00 -0.45593999997E+02  0.45594000000E+02  0.51100000000E-03 0.  1.
    9900012    2    1    2    0    0 -0.98185865604E+01 -0.12461280171E+02 -0.99494322712E+01  0.72461565527E+02  0.69999993790E+02 0.  0.
         12    1    1    2    0    0  0.98185865604E+01  0.12461280171E+02  0.99494322712E+01  0.18726434473E+02  0.00000000000E+00 0. -1.
         11    1    3    3    0    0 -0.18190132400E+02  0.74372185503E+01 -0.50993863326E+01  0.20302632285E+02  0.51100000000E-03 0. -1.
        -11    1    3    3    0    0 -0.10393831202E+02  0.10296762884E+02 -0.76271641276E+01  0.16499354104E+02  0.51100000000E-03 0.  1.
        -12    1    3    3    0    0  0.18765377041E+02 -0.30195261605E+02  0.27771181890E+01  0.35659579138E+02  0.00000000000E+00 0.  1.
</event>
<event>
 7    1  0.1980481E-013  0.7246151E+02  0.7816164E-02  0.1226708E+00
        -11   -1    0    0    0    0  0.00000000000E+00  0.00000000000E+00  0.45593999997E+02  0.45594000000E+02  0.51100000000E-03 0. -1.
         11   -1    0    0    0    0 -0.00000000000E+00 -0.00000000000E+00 -0.45593999997E+02  0.45594000000E+02  0.51100000000E-03 0.  1.
    9900012    2    1    2    0    0  0.47621099374E+01 -0.14649271935E+02 -0.10649070946E+02  0.72461506167E+02  0.69999916462E+02 0.  0.
         12    1    1    2    0    0 -0.47621099374E+01  0.14649271935E+02  0.10649070946E+02  0.18726493833E+02  0.00000000000E+00 0. -1.
         11    1    3    3    0    0  0.42008991204E+01  0.15602888744E+02  0.57831927209E+01  0.17162255355E+02  0.51100000000E-03 0. -1.
        -11    1    3    3    0    0 -0.14806540035E+02 -0.48322227442E+00  0.48749620436E+01  0.15595909296E+02  0.51100000000E-03 0.  1.
        -12    1    3    3    0    0  0.15367750852E+02 -0.29768938405E+02 -0.21307225710E+02  0.39703341515E+02  0.00000000000E+00 0.  1.
</event>
<event>
 7    1  0.1692604E-013  0.7246155E+02  0.7816164E-02  0.1226708E+00
        -11   -1    0    0    0    0  0.00000000000E+00  0.00000000000E+00  0.45593999997E+02  0.45594000000E+02  0.51100000000E-03 0. -1.
         11   -1    0    0    0    0 -0.00000000000E+00 -0.00000000000E+00 -0.45593999997E+02  0.45594000000E+02  0.51100000000E-03 0.  1.
    9900012    2    1    2    0    0  0.86559857338E+00  0.93474874988E+01 -0.16203557640E+02  0.72461546422E+02  0.69999968901E+02 0.  0.
         12    1    1    2    0    0 -0.86559857338E+00 -0.93474874988E+01  0.16203557640E+02  0.18726453578E+02  0.00000000000E+00 0. -1.
         11    1    3    3    0    0 -0.86974071067E+01  0.29017449500E+02  0.72753142199E+01  0.31154252730E+02  0.51100000000E-03 0. -1.
        -11    1    3    3    0    0  0.22842528175E+01 -0.85455898370E+01  0.47966920577E+01  0.10062463493E+02  0.51100000000E-03 0.  1.
        -12    1    3    3    0    0  0.72787528626E+01 -0.11124372165E+02 -0.28275563918E+02  0.31244830199E+02  0.00000000000E+00 0.  1.
</event>
<event>
 7    1  0.1692604E-013  0.7246156E+02  0.7816164E-02  0.1226708E+00
        -11   -1    0    0    0    0  0.00000000000E+00  0.00000000000E+00  0.45593999997E+02  0.45594000000E+02  0.51100000000E-03 0. -1.
         11   -1    0    0    0    0 -0.00000000000E+00 -0.00000000000E+00 -0.45593999997E+02  0.45594000000E+02  0.51100000000E-03 0.  1.
    9900012    2    1    2    0    0  0.17436639640E+02 -0.44546704609E+01  0.51767987791E+01  0.72461555157E+02  0.69999980281E+02 0.  0.
         12    1    1    2    0    0 -0.17436639640E+02  0.44546704609E+01 -0.51767987791E+01  0.18726444843E+02  0.00000000000E+00 0. -1.
         11    1    3    3    0    0 -0.40405908028E+01 -0.98267611228E+01  0.16535982383E+02  0.19655287376E+02  0.51100000000E-03 0. -1.
        -11    1    3    3    0    0  0.27092694318E+02 -0.13532586570E+02 -0.49016588096E+00  0.30288368189E+02  0.51100000000E-03 0.  1.
        -12    1    3    3    0    0 -0.56154638752E+01  0.18904677232E+02 -0.10869017723E+02  0.22517899592E+02  0.00000000000E+00 0.  1.
</event>
<event>
 7    1  0.1692604E-013  0.7246165E+02  0.7816164E-02  0.1226708E+00
        -11   -1    0    0    0    0  0.00000000000E+00  0.00000000000E+00  0.45593999997E+02  0.45594000000E+02  0.51100000000E-03 0.  1.
         11   -1    0    0    0    0 -0.00000000000E+00 -0.00000000000E+00 -0.45593999997E+02  0.45594000000E+02  0.51100000000E-03 0. -1.
    9900012    2    1    2    0    0 -0.68632120511E+01  0.95087382848E+01  0.14599872910E+02  0.72461652988E+02  0.70000107724E+02 0.  0.
         12    1    1    2    0    0  0.68632120511E+01 -0.95087382848E+01 -0.14599872910E+02  0.18726347012E+02  0.00000000000E+00 0. -1.
         11    1    3    3    0    0  0.46225607100E+01  0.25165578440E+02 -0.19228068923E+02  0.32006140669E+02  0.51100000000E-03 0. -1.
        -11    1    3    3    0    0 -0.54665993638E+00 -0.47417799384E+01  0.22032246429E+01  0.52571392561E+01  0.51100000000E-03 0.  1.
        -12    1    3    3    0    0 -0.10939112825E+02 -0.10915060217E+02  0.31624717190E+02  0.35198373063E+02  0.00000000000E+00 0.  1.
</event>
<event>
 7    1  0.1692604E-013  0.7246170E+02  0.7816164E-02  0.1226708E+00
        -11   -1    0    0    0    0  0.00000000000E+00  0.00000000000E+00  0.45593999997E+02  0.45594000000E+02  0.51100000000E-03 0. -1.
         11   -1    0    0    0    0 -0.00000000000E+00 -0.00000000000E+00 -0.45593999997E+02  0.45594000000E+02  0.51100000000E-03 0.  1.
    9900012    2    1    2    0    0 -0.85942230395E+00 -0.30932348305E+01 -0.18449053820E+02  0.72461700439E+02  0.70000169537E+02 0.  0.
         12    1    1    2    0    0  0.85942230395E+00  0.30932348305E+01  0.18449053820E+02  0.18726299561E+02  0.00000000000E+00 0. -1.
         11    1    3    3    0    0 -0.14879373269E+02 -0.10237791178E+02 -0.22229549407E+02  0.28641944490E+02  0.51100000000E-03 0. -1.
        -11    1    3    3    0    0  0.52364225086E+01 -0.17086337837E+02  0.10454401710E+01  0.17901285060E+02  0.51100000000E-03 0.  1.
        -12    1    3    3    0    0  0.87835284560E+01  0.24230894184E+02  0.27350554165E+01  0.25918470889E+02  0.00000000000E+00 0.  1.
</event>
<event>
 7    1  0.1692604E-013  0.7246157E+02  0.7816164E-02  0.1226708E+00
        -11   -1    0    0    0    0  0.00000000000E+00  0.00000000000E+00  0.45593999997E+02  0.45594000000E+02  0.51100000000E-03 0.  1.
         11   -1    0    0    0    0 -0.00000000000E+00 -0.00000000000E+00 -0.45593999997E+02  0.45594000000E+02  0.51100000000E-03 0. -1.
    9900012    2    1    2    0    0  0.10451435841E+02  0.20424180819E+01  0.15403741443E+02  0.72461568594E+02  0.69999997785E+02 0.  0.
         12    1    1    2    0    0 -0.10451435841E+02 -0.20424180819E+01 -0.15403741443E+02  0.18726431406E+02  0.00000000000E+00 0. -1.
         11    1    3    3    0    0  0.35218100775E+01  0.92232464537E+01 -0.23366621546E+01  0.10145511897E+02  0.51100000000E-03 0. -1.
        -11    1    3    3    0    0 -0.23381293713E+02 -0.18663274381E+01  0.20854030178E+02  0.31385643991E+02  0.51100000000E-03 0.  1.
         12    1    3    3    0    0  0.30310919477E+02 -0.53145009337E+01 -0.31136265801E+01  0.30930412706E+02  0.00000000000E+00 0. -1.
</event>
<event>
 7    1  0.1692604E-013  0.7246150E+02  0.7816164E-02  0.1226708E+00
        -11   -1    0    0    0    0  0.00000000000E+00  0.00000000000E+00  0.45593999997E+02  0.45594000000E+02  0.51100000000E-03 0. -1.
         11   -1    0    0    0    0 -0.00000000000E+00 -0.00000000000E+00 -0.45593999997E+02  0.45594000000E+02  0.51100000000E-03 0.  1.
    9900012    2    1    2    0    0 -0.73362983751E+01 -0.17203659978E+02  0.94575284028E+00  0.72461504361E+02  0.69999914109E+02 0.  0.
         12    1    1    2    0    0  0.73362983751E+01  0.17203659978E+02 -0.94575284028E+00  0.18726495639E+02  0.00000000000E+00 0. -1.
         11    1    3    3    0    0 -0.14255901148E+02 -0.19575271609E+02  0.81836900437E+01  0.25561587570E+02  0.51100000000E-03 0. -1.
        -11    1    3    3    0    0 -0.12847214337E+02 -0.10740587902E+02  0.81520166362E+01  0.18624352880E+02  0.51100000000E-03 0.  1.
        -12    1    3    3    0    0  0.19766817110E+02  0.13112199533E+02 -0.15389953840E+02  0.28275563910E+02  0.00000000000E+00 0.  1.
</event>
<event>
 7    1  0.1692604E-013  0.7246159E+02  0.7816164E-02  0.1226708E+00
        -11   -1    0    0    0    0  0.00000000000E+00  0.00000000000E+00  0.45593999997E+02  0.45594000000E+02  0.51100000000E-03 0.  1.
         11   -1    0    0    0    0 -0.00000000000E+00 -0.00000000000E+00 -0.45593999997E+02  0.45594000000E+02  0.51100000000E-03 0. -1.
    9900012    2    1    2    0    0 -0.30459191747E+01  0.34540804528E+01  0.18151307735E+02  0.72461594368E+02  0.70000031360E+02 0.  0.
         12    1    1    2    0    0  0.30459191747E+01 -0.34540804528E+01 -0.18151307735E+02  0.18726405632E+02  0.00000000000E+00 0. -1.
         11    1    3    3    0    0  0.71609813533E+00  0.31047684792E+02 -0.30494470985E+01  0.31205298514E+02  0.51100000000E-03 0. -1.
        -11    1    3    3    0    0 -0.11257557740E+01  0.34376621757E+01  0.64006515182E-01  0.36178646177E+01  0.51100000000E-03 0.  1.
        -12    1    3    3    0    0 -0.26362615361E+01 -0.31031266515E+02  0.21136748319E+02  0.37638431236E+02  0.00000000000E+00 0.  1.
</event>
<event>
 7    1  0.1692604E-013  0.7246162E+02  0.7816164E-02  0.1226708E+00
        -11   -1    0    0    0    0  0.00000000000E+00  0.00000000000E+00  0.45593999997E+02  0.45594000000E+02  0.51100000000E-03 0.  1.
         11   -1    0    0    0    0 -0.00000000000E+00 -0.00000000000E+00 -0.45593999997E+02  0.45594000000E+02  0.51100000000E-03 0. -1.
    9900012    2    1    2    0    0 -0.17929818526E+02 -0.50153826170E+01  0.20111811198E+01  0.72461620086E+02  0.70000064863E+02 0.  0.
         12    1    1    2    0    0  0.17929818526E+02  0.50153826170E+01 -0.20111811198E+01  0.18726379914E+02  0.00000000000E+00 0. -1.
         11    1    3    3    0    0 -0.17298742737E+02 -0.72938717908E+00  0.59042264577E+01  0.18293124289E+02  0.51100000000E-03 0. -1.
        -11    1    3    3    0    0 -0.13853228136E+02 -0.11603759805E+02  0.19329952154E+02  0.26461410052E+02  0.51100000000E-03 0.  1.
        -12    1    3    3    0    0  0.13222152347E+02  0.73177643675E+01 -0.23222997491E+02  0.27707085746E+02  0.00000000000E+00 0.  1.
</event>
<event>
 7    1  0.1692604E-013  0.7246157E+02  0.7816164E-02  0.1226708E+00
        -11   -1    0    0    0    0  0.00000000000E+00  0.00000000000E+00  0.45593999997E+02  0.45594000000E+02  0.51100000000E-03 0. -1.
         11   -1    0    0    0    0 -0.00000000000E+00 -0.00000000000E+00 -0.45593999997E+02  0.45594000000E+02  0.51100000000E-03 0.  1.
    9900012    2    1    2    0    0  0.29283632391E+01  0.16751171269E+02  0.78423287997E+01  0.72461570251E+02  0.69999999944E+02 0.  0.
         12    1    1    2    0    0 -0.29283632391E+01 -0.16751171269E+02 -0.78423287997E+01  0.18726429749E+02  0.00000000000E+00 0. -1.
         11    1    3    3    0    0 -0.60262514869E+01 -0.45720819653E+01 -0.96642540495E+01  0.12272629998E+02  0.51100000000E-03 0. -1.
        -11    1    3    3    0    0  0.12173710365E+02 -0.10305988203E+02 -0.94213655372E+01  0.18524976268E+02  0.51100000000E-03 0.  1.
         12    1    3    3    0    0 -0.32190956389E+01  0.31629241437E+02  0.26927948386E+02  0.41663963985E+02  0.00000000000E+00 0. -1.
</event>
<event>
 7    1  0.1692604E-013  0.7246162E+02  0.7816164E-02  0.1226708E+00
        -11   -1    0    0    0    0  0.00000000000E+00  0.00000000000E+00  0.45593999997E+02  0.45594000000E+02  0.51100000000E-03 0. -1.
         11   -1    0    0    0    0 -0.00000000000E+00 -0.00000000000E+00 -0.45593999997E+02  0.45594000000E+02  0.51100000000E-03 0.  1.
    9900012    2    1    2    0    0 -0.37931957085E+00 -0.18703342876E+02 -0.84749768670E+00  0.72461623672E+02  0.70000069534E+02 0.  0.
         12    1    1    2    0    0  0.37931957085E+00  0.18703342876E+02  0.84749768670E+00  0.18726376328E+02  0.00000000000E+00 0. -1.
         11    1    3    3    0    0  0.68277883159E+01 -0.65082413580E+01  0.25233664067E+02  0.26939073878E+02  0.51100000000E-03 0. -1.
        -11    1    3    3    0    0 -0.82365209960E+01  0.51347362737E+01  0.42333487892E+01  0.10589005475E+02  0.51100000000E-03 0.  1.
        -12    1    3    3    0    0  0.10294131092E+01 -0.17329837791E+02 -0.30314510543E+02  0.34933544319E+02  0.00000000000E+00 0.  1.
</event>
<event>
 7    1  0.1692604E-013  0.7246157E+02  0.7816164E-02  0.1226708E+00
        -11   -1    0    0    0    0  0.00000000000E+00  0.00000000000E+00  0.45593999997E+02  0.45594000000E+02  0.51100000000E-03 0.  1.
         11   -1    0    0    0    0 -0.00000000000E+00 -0.00000000000E+00 -0.45593999997E+02  0.45594000000E+02  0.51100000000E-03 0. -1.
    9900012    2    1    2    0    0 -0.11630022791E+02 -0.14077217676E+02 -0.41537603014E+01  0.72461569153E+02  0.69999998513E+02 0.  0.
         12    1    1    2    0    0  0.11630022791E+02  0.14077217676E+02  0.41537603014E+01  0.18726430847E+02  0.00000000000E+00 0. -1.
         11    1    3    3    0    0 -0.18243770670E+02 -0.16172660099E+02  0.40031171323E+01  0.24706579083E+02  0.51100000000E-03 0. -1.
        -11    1    3    3    0    0 -0.19348078430E+02  0.24854105549E+01  0.25427134396E+01  0.19672081651E+02  0.51100000000E-03 0.  1.
         12    1    3    3    0    0  0.25961826309E+02 -0.38996813195E+00 -0.10699590873E+02  0.28082908419E+02  0.00000000000E+00 0. -1.
</event>
<event>
 7    1  0.1692604E-013  0.7246115E+02  0.7816164E-02  0.1226709E+00
        -11   -1    0    0    0    0  0.00000000000E+00  0.00000000000E+00  0.45593999997E+02  0.45594000000E+02  0.51100000000E-03 0.  1.
         11   -1    0    0    0    0 -0.00000000000E+00 -0.00000000000E+00 -0.45593999997E+02  0.45594000000E+02  0.51100000000E-03 0. -1.
    9900012    2    1    2    0    0  0.36442052629E+01  0.13947947328E+02  0.11952804280E+02  0.72461147706E+02  0.69999449499E+02 0.  0.
         12    1    1    2    0    0 -0.36442052629E+01 -0.13947947328E+02 -0.11952804280E+02  0.18726852294E+02  0.00000000000E+00 0. -1.
         11    1    3    3    0    0  0.13897715099E+02  0.12295255976E+02 -0.46084383051E+01  0.19119558268E+02  0.51100000000E-03 0. -1.
        -11    1    3    3    0    0 -0.63837347251E+01  0.42512461452E+01  0.34224632245E+02  0.35073503039E+02  0.51100000000E-03 0.  1.
         12    1    3    3    0    0 -0.38697751114E+01 -0.25985547932E+01 -0.17663389660E+02  0.18268086399E+02  0.00000000000E+00 0. -1.
</event>
<event>
 7    1  0.1692604E-013  0.7246158E+02  0.7816164E-02  0.1226708E+00
        -11   -1    0    0    0    0  0.00000000000E+00  0.00000000000E+00  0.45593999997E+02  0.45594000000E+02  0.51100000000E-03 0.  1.
         11   -1    0    0    0    0 -0.00000000000E+00 -0.00000000000E+00 -0.45593999997E+02  0.45594000000E+02  0.51100000000E-03 0. -1.
    9900012    2    1    2    0    0 -0.34034938314E+01  0.18382648313E+02 -0.10832494278E+01  0.72461575927E+02  0.70000007337E+02 0.  0.
         12    1    1    2    0    0  0.34034938314E+01 -0.18382648313E+02  0.10832494278E+01  0.18726424073E+02  0.00000000000E+00 0. -1.
         11    1    3    3    0    0 -0.75646372333E+01 -0.95691833219E+01 -0.14455320197E+02  0.18914261502E+02  0.51100000000E-03 0. -1.
        -11    1    3    3    0    0  0.16744123506E+02  0.20495873429E+01  0.17672431741E+02  0.24431154786E+02  0.51100000000E-03 0.  1.
         12    1    3    3    0    0 -0.12582980104E+02  0.25902244292E+02 -0.43003609724E+01  0.29116159639E+02  0.00000000000E+00 0. -1.
</event>
<event>
 7    1  0.1692604E-013  0.7246169E+02  0.7816164E-02  0.1226708E+00
        -11   -1    0    0    0    0  0.00000000000E+00  0.00000000000E+00  0.45593999997E+02  0.45594000000E+02  0.51100000000E-03 0.  1.
         11   -1    0    0    0    0 -0.00000000000E+00 -0.00000000000E+00 -0.45593999997E+02  0.45594000000E+02  0.51100000000E-03 0. -1.
    9900012    2    1    2    0    0  0.51388746586E+01 -0.13692363576E+02  0.11695544767E+02  0.72461691756E+02  0.70000158227E+02 0.  0.
         12    1    1    2    0    0 -0.51388746586E+01  0.13692363576E+02 -0.11695544767E+02  0.18726308244E+02  0.00000000000E+00 0. -1.
         11    1    3    3    0    0 -0.99997699534E+01 -0.10252883007E+02  0.12465496258E+02  0.18986985182E+02  0.51100000000E-03 0. -1.
        -11    1    3    3    0    0 -0.67385473286E+01  0.85706045930E+01  0.18818374577E+02  0.21748436844E+02  0.51100000000E-03 0.  1.
         12    1    3    3    0    0  0.21877191941E+02 -0.12010085161E+02 -0.19588326069E+02  0.31726269730E+02  0.00000000000E+00 0. -1.
</event>
<event>
 7    1  0.1692604E-013  0.7246149E+02  0.7816164E-02  0.1226708E+00
        -11   -1    0    0    0    0  0.00000000000E+00  0.00000000000E+00  0.45593999997E+02  0.45594000000E+02  0.51100000000E-03 0. -1.
         11   -1    0    0    0    0 -0.00000000000E+00 -0.00000000000E+00 -0.45593999997E+02  0.45594000000E+02  0.51100000000E-03 0.  1.
    9900012    2    1    2    0    0 -0.16508188368E+02  0.38461903255E+00 -0.88325421557E+01  0.72461494295E+02  0.69999900996E+02 0.  0.
         12    1    1    2    0    0  0.16508188368E+02 -0.38461903255E+00  0.88325421557E+01  0.18726505705E+02  0.00000000000E+00 0. -1.
         11    1    3    3    0    0  0.11869962142E+02  0.50464651173E+01  0.16173131966E+02  0.20686541743E+02  0.51100000000E-03 0. -1.
        -11    1    3    3    0    0 -0.80296413270E+01 -0.93979785616E+01  0.65042972742E+01  0.13967928414E+02  0.51100000000E-03 0.  1.
        -12    1    3    3    0    0 -0.20348509183E+02  0.47361324768E+01 -0.31509971396E+02  0.37807024138E+02  0.00000000000E+00 0.  1.
</event>
<event>
 7    1  0.1692604E-013  0.7246158E+02  0.7816164E-02  0.1226708E+00
        -11   -1    0    0    0    0  0.00000000000E+00  0.00000000000E+00  0.45593999997E+02  0.45594000000E+02  0.51100000000E-03 0. -1.
         11   -1    0    0    0    0 -0.00000000000E+00 -0.00000000000E+00 -0.45593999997E+02  0.45594000000E+02  0.51100000000E-03 0.  1.
    9900012    2    1    2    0    0  0.48521511291E+01  0.17157102015E+02 -0.57244449967E+01  0.72461580410E+02  0.70000013178E+02 0.  0.
         12    1    1    2    0    0 -0.48521511291E+01 -0.17157102015E+02  0.57244449967E+01  0.18726419590E+02  0.00000000000E+00 0. -1.
         11    1    3    3    0    0  0.64693284301E+01  0.39264897332E+01  0.46438224170E+01  0.88788861274E+01  0.51100000000E-03 0.  1.
        -11    1    3    3    0    0  0.22843457418E+02  0.25162427497E+02  0.12103918786E+01  0.34006416352E+02  0.51100000000E-03 0. -1.
        -12    1    3    3    0    0 -0.24460634719E+02 -0.11931815216E+02 -0.11578659292E+02  0.29576277930E+02  0.00000000000E+00 0.  1.
</event>
<event>
 7    1  0.1692604E-013  0.7246158E+02  0.7816164E-02  0.1226708E+00
        -11   -1    0    0    0    0  0.00000000000E+00  0.00000000000E+00  0.45593999997E+02  0.45594000000E+02  0.51100000000E-03 0.  1.
         11   -1    0    0    0    0 -0.00000000000E+00 -0.00000000000E+00 -0.45593999997E+02  0.45594000000E+02  0.51100000000E-03 0. -1.
    9900012    2    1    2    0    0  0.86408182633E+01  0.14704624259E+02  0.77323437954E+01  0.72461578680E+02  0.70000010924E+02 0.  0.
         12    1    1    2    0    0 -0.86408182633E+01 -0.14704624259E+02 -0.77323437954E+01  0.18726421320E+02  0.00000000000E+00 0. -1.
         11    1    3    3    0    0  0.37037531601E+01  0.13647266209E+01  0.13908027341E+01  0.41850446505E+01  0.51100000000E-03 0. -1.
        -11    1    3    3    0    0  0.96709511620E+01 -0.19180496959E+02  0.22967424557E+02  0.31447119916E+02  0.51100000000E-03 0.  1.
         12    1    3    3    0    0 -0.47338860588E+01  0.32520394597E+02 -0.16625883496E+02  0.36829414114E+02  0.00000000000E+00 0. -1.
</event>
<event>
 7    1  0.1692604E-013  0.7246199E+02  0.7816164E-02  0.1226707E+00
        -11   -1    0    0    0    0  0.00000000000E+00  0.00000000000E+00  0.45593999997E+02  0.45594000000E+02  0.51100000000E-03 0.  1.
         11   -1    0    0    0    0 -0.00000000000E+00 -0.00000000000E+00 -0.45593999997E+02  0.45594000000E+02  0.51100000000E-03 0. -1.
    9900012    2    1    2    0    0 -0.82580505426E+01  0.12480619710E+01  0.16760385194E+02  0.72461986828E+02  0.70000542611E+02 0.  0.
         12    1    1    2    0    0  0.82580505426E+01 -0.12480619710E+01 -0.16760385194E+02  0.18726013172E+02  0.00000000000E+00 0. -1.
         11    1    3    3    0    0  0.51536301513E+01 -0.10794573497E+02  0.26074609225E+02  0.28687418274E+02  0.51100000000E-03 0. -1.
        -11    1    3    3    0    0 -0.92673709011E+01  0.33588192805E+01  0.14816661267E+02  0.17796046801E+02  0.51100000000E-03 0.  1.
         12    1    3    3    0    0 -0.41443097928E+01  0.86838161878E+01 -0.24130885298E+02  0.25978521754E+02  0.00000000000E+00 0. -1.
</event>
<event>
 7    1  0.1692604E-013  0.7246159E+02  0.7816164E-02  0.1226708E+00
        -11   -1    0    0    0    0  0.00000000000E+00  0.00000000000E+00  0.45593999997E+02  0.45594000000E+02  0.51100000000E-03 0.  1.
         11   -1    0    0    0    0 -0.00000000000E+00 -0.00000000000E+00 -0.45593999997E+02  0.45594000000E+02  0.51100000000E-03 0. -1.
    9900012    2    1    2    0    0 -0.67564604107E+01  0.35582628666E+00  0.17461444206E+02  0.72461590750E+02  0.70000026648E+02 0.  0.
         12    1    1    2    0    0  0.67564604107E+01 -0.35582628666E+00 -0.17461444206E+02  0.18726409250E+02  0.00000000000E+00 0. -1.
         11    1    3    3    0    0  0.12376922480E+02  0.10780296396E+02  0.57465213223E+01  0.17390385506E+02  0.51100000000E-03 0. -1.
        -11    1    3    3    0    0  0.14445724398E+02  0.61065733112E+01 -0.52718688157E+00  0.15692262974E+02  0.51100000000E-03 0.  1.
         12    1    3    3    0    0 -0.33579107288E+02 -0.16531043421E+02  0.12242109765E+02  0.39378942271E+02  0.00000000000E+00 0. -1.
</event>
<event>
 7    1  0.1692604E-013  0.7246151E+02  0.7816164E-02  0.1226708E+00
        -11   -1    0    0    0    0  0.00000000000E+00  0.00000000000E+00  0.45593999997E+02  0.45594000000E+02  0.51100000000E-03 0.  1.
         11   -1    0    0    0    0 -0.00000000000E+00 -0.00000000000E+00 -0.45593999997E+02  0.45594000000E+02  0.51100000000E-03 0. -1.
    9900012    2    1    2    0    0  0.83137654834E+01  0.10563740106E+02  0.13037253559E+02  0.72461513894E+02  0.69999926528E+02 0.  0.
         12    1    1    2    0    0 -0.83137654834E+01 -0.10563740106E+02 -0.13037253559E+02  0.18726486106E+02  0.00000000000E+00 0. -1.
         11    1    3    3    0    0  0.21774265147E+01  0.58297949378E+01  0.13450728444E+01  0.63668608012E+01  0.51100000000E-03 0. -1.
        -11    1    3    3    0    0  0.13159343815E+02  0.26228102536E+02  0.26108482186E+02  0.39277659485E+02  0.51100000000E-03 0.  1.
         12    1    3    3    0    0 -0.70230048459E+01 -0.21494157368E+02 -0.14416301472E+02  0.26816993608E+02  0.00000000000E+00 0. -1.
</event>
<event>
 7    1  0.1692604E-013  0.7246162E+02  0.7816164E-02  0.1226708E+00
        -11   -1    0    0    0    0  0.00000000000E+00  0.00000000000E+00  0.45593999997E+02  0.45594000000E+02  0.51100000000E-03 0. -1.
         11   -1    0    0    0    0 -0.00000000000E+00 -0.00000000000E+00 -0.45593999997E+02  0.45594000000E+02  0.51100000000E-03 0.  1.
    9900012    2    1    2    0    0  0.72640995431E+00 -0.50873934469E+01 -0.18007440009E+02  0.72461624505E+02  0.70000070620E+02 0.  0.
         12    1    1    2    0    0 -0.72640995431E+00  0.50873934469E+01  0.18007440009E+02  0.18726375495E+02  0.00000000000E+00 0. -1.
         11    1    3    3    0    0  0.12923401304E+02 -0.67522805083E+01 -0.12674374928E+02  0.19319611109E+02  0.51100000000E-03 0. -1.
        -11    1    3    3    0    0  0.30517307037E+01  0.24897338822E+02 -0.24387205593E+01  0.25201942364E+02  0.51100000000E-03 0.  1.
         12    1    3    3    0    0 -0.15248722054E+02 -0.23232451760E+02 -0.28943445218E+01  0.27940071032E+02  0.00000000000E+00 0. -1.
</event>
<event>
 7    1  0.1692604E-013  0.7246160E+02  0.7816164E-02  0.1226708E+00
        -11   -1    0    0    0    0  0.00000000000E+00  0.00000000000E+00  0.45593999997E+02  0.45594000000E+02  0.51100000000E-03 0. -1.
         11   -1    0    0    0    0 -0.00000000000E+00 -0.00000000000E+00 -0.45593999997E+02  0.45594000000E+02  0.51100000000E-03 0.  1.
    9900012    2    1    2    0    0 -0.13466802227E+02 -0.11004407530E+02 -0.69445068736E+01  0.72461603576E+02  0.70000043355E+02 0.  0.
         12    1    1    2    0    0  0.13466802227E+02  0.11004407530E+02  0.69445068736E+01  0.18726396424E+02  0.00000000000E+00 0. -1.
         11    1    3    3    0    0 -0.24357741502E+02  0.51690748105E+01  0.72357369350E+01  0.25930190796E+02  0.51100000000E-03 0. -1.
        -11    1    3    3    0    0 -0.11688412534E+02 -0.14183234810E+02  0.22781114411E+01  0.18519528321E+02  0.51100000000E-03 0.  1.
        -12    1    3    3    0    0  0.22579351809E+02 -0.19902475306E+01 -0.16458355250E+02  0.28011884458E+02  0.00000000000E+00 0.  1.
</event>
<event>
 7    1  0.1692604E-013  0.7246159E+02  0.7816164E-02  0.1226708E+00
        -11   -1    0    0    0    0  0.00000000000E+00  0.00000000000E+00  0.45593999997E+02  0.45594000000E+02  0.51100000000E-03 0.  1.
         11   -1    0    0    0    0 -0.00000000000E+00 -0.00000000000E+00 -0.45593999997E+02  0.45594000000E+02  0.51100000000E-03 0. -1.
    9900012    2    1    2    0    0 -0.29812502461E+01 -0.17074862318E+02  0.70879882737E+01  0.72461592069E+02  0.70000028366E+02 0.  0.
         12    1    1    2    0    0  0.29812502461E+01  0.17074862318E+02 -0.70879882737E+01  0.18726407931E+02  0.00000000000E+00 0. -1.
         11    1    3    3    0    0 -0.10438472407E+00 -0.41891780335E+00 -0.11201957876E+01  0.12005112079E+01  0.51100000000E-03 0. -1.
        -11    1    3    3    0    0  0.21404368451E+02 -0.29341956306E+02 -0.10830296048E+02  0.37899771785E+02  0.51100000000E-03 0.  1.
         12    1    3    3    0    0 -0.24281233973E+02  0.12686011791E+02  0.19038480109E+02  0.33361309076E+02  0.00000000000E+00 0. -1.
</event>
<event>
 7    1  0.1692604E-013  0.7246118E+02  0.7816164E-02  0.1226709E+00
        -11   -1    0    0    0    0  0.00000000000E+00  0.00000000000E+00  0.45593999997E+02  0.45594000000E+02  0.51100000000E-03 0. -1.
         11   -1    0    0    0    0 -0.00000000000E+00 -0.00000000000E+00 -0.45593999997E+02  0.45594000000E+02  0.51100000000E-03 0.  1.
    9900012    2    1    2    0    0  0.78264006867E+01 -0.14094156171E+02 -0.95286882796E+01  0.72461182700E+02  0.69999495084E+02 0.  0.
         12    1    1    2    0    0 -0.78264006867E+01  0.14094156171E+02  0.95286882796E+01  0.18726817300E+02  0.00000000000E+00 0. -1.
         11    1    3    3    0    0 -0.76994807675E+01  0.12168269086E+02  0.14909897071E+02  0.20728092232E+02  0.51100000000E-03 0. -1.
        -11    1    3    3    0    0 -0.75572247919E+00  0.29651854793E+01  0.58505423250E+01  0.66024455431E+01  0.51100000000E-03 0.  1.
        -12    1    3    3    0    0  0.16281603933E+02 -0.29227610736E+02 -0.30289127675E+02  0.45130644925E+02  0.00000000000E+00 0.  1.
</event>
<event>
 7    1  0.1692604E-013  0.7246154E+02  0.7816164E-02  0.1226708E+00
        -11   -1    0    0    0    0  0.00000000000E+00  0.00000000000E+00  0.45593999997E+02  0.45594000000E+02  0.51100000000E-03 0. -1.
         11   -1    0    0    0    0 -0.00000000000E+00 -0.00000000000E+00 -0.45593999997E+02  0.45594000000E+02  0.51100000000E-03 0.  1.
    9900012    2    1    2    0    0 -0.17303443231E+01  0.17430697079E+02  0.66224753711E+01  0.72461535513E+02  0.69999954690E+02 0.  0.
         12    1    1    2    0    0  0.17303443231E+01 -0.17430697079E+02 -0.66224753711E+01  0.18726464487E+02  0.00000000000E+00 0. -1.
         11    1    3    3    0    0  0.49592928727E+01 -0.20160659783E+01  0.21226997186E+02  0.21891654063E+02  0.51100000000E-03 0. -1.
        -11    1    3    3    0    0  0.17090994190E+02  0.19963170890E+00 -0.94952749242E+01  0.19552549229E+02  0.51100000000E-03 0.  1.
        -12    1    3    3    0    0 -0.23780631386E+02  0.19247131349E+02 -0.51092468908E+01  0.31017332220E+02  0.00000000000E+00 0.  1.
</event>
<event>
 7    1  0.1692604E-013  0.7246140E+02  0.7816164E-02  0.1226708E+00
        -11   -1    0    0    0    0  0.00000000000E+00  0.00000000000E+00  0.45593999997E+02  0.45594000000E+02  0.51100000000E-03 0.  1.
         11   -1    0    0    0    0 -0.00000000000E+00 -0.00000000000E+00 -0.45593999997E+02  0.45594000000E+02  0.51100000000E-03 0. -1.
    9900012    2    1    2    0    0  0.43280085757E+01 -0.18112037207E+02 -0.19768990118E+01  0.72461396471E+02  0.69999773562E+02 0.  0.
         12    1    1    2    0    0 -0.43280085757E+01  0.18112037207E+02  0.19768990118E+01  0.18726603529E+02  0.00000000000E+00 0. -1.
         11    1    3    3    0    0 -0.12442166603E+02 -0.16314023159E+02  0.11324748044E+02  0.23435118517E+02  0.51100000000E-03 0. -1.
        -11    1    3    3    0    0  0.19960790844E+02 -0.17500277786E+02  0.23212650495E+01  0.26647348187E+02  0.51100000000E-03 0.  1.
         12    1    3    3    0    0 -0.31906156656E+01  0.15702263738E+02 -0.15622912106E+02  0.22378929766E+02  0.00000000000E+00 0. -1.
</event>
<event>
 7    1  0.1692604E-013  0.7246156E+02  0.7816164E-02  0.1226708E+00
        -11   -1    0    0    0    0  0.00000000000E+00  0.00000000000E+00  0.45593999997E+02  0.45594000000E+02  0.51100000000E-03 0.  1.
         11   -1    0    0    0    0 -0.00000000000E+00 -0.00000000000E+00 -0.45593999997E+02  0.45594000000E+02  0.51100000000E-03 0. -1.
    9900012    2    1    2    0    0  0.35009153543E+01 -0.18095020404E+02  0.33156251620E+01  0.72461560350E+02  0.69999987046E+02 0.  0.
         12    1    1    2    0    0 -0.35009153543E+01  0.18095020404E+02 -0.33156251620E+01  0.18726439650E+02  0.00000000000E+00 0. -1.
         11    1    3    3    0    0  0.50158266978E+01 -0.11343715556E+02 -0.57190480966E+01  0.13658181119E+02  0.51100000000E-03 0. -1.
        -11    1    3    3    0    0 -0.21715518047E+02 -0.18968747191E+02 -0.77260679242E+01  0.29850782567E+02  0.51100000000E-03 0.  1.
        -12    1    3    3    0    0  0.20200606704E+02  0.12217442343E+02  0.16760741183E+02  0.28952596664E+02  0.00000000000E+00 0.  1.
</event>
<event>
 7    1  0.1692604E-013  0.7246214E+02  0.7816164E-02  0.1226706E+00
        -11   -1    0    0    0    0  0.00000000000E+00  0.00000000000E+00  0.45593999997E+02  0.45594000000E+02  0.51100000000E-03 0.  1.
         11   -1    0    0    0    0 -0.00000000000E+00 -0.00000000000E+00 -0.45593999997E+02  0.45594000000E+02  0.51100000000E-03 0. -1.
    9900012    2    1    2    0    0  0.11256950676E+02  0.14914799584E+02  0.12196410365E+01  0.72462143293E+02  0.70000746433E+02 0.  0.
         12    1    1    2    0    0 -0.11256950676E+02 -0.14914799584E+02 -0.12196410365E+01  0.18725856707E+02  0.00000000000E+00 0. -1.
         11    1    3    3    0    0 -0.19998836843E+02 -0.69671344252E+01 -0.83354631099E+01  0.22759050566E+02  0.51100000000E-03 0. -1.
        -11    1    3    3    0    0  0.74016978361E+01  0.12413973972E+02 -0.98824543001E+01  0.17508705946E+02  0.51100000000E-03 0.  1.
        -12    1    3    3    0    0  0.23854089683E+02  0.94679600374E+01  0.19437558447E+02  0.32194386781E+02  0.00000000000E+00 0.  1.
</event>
<event>
 7    1  0.1798049E-013  0.7246157E+02  0.7816164E-02  0.1226708E+00
        -11   -1    0    0    0    0  0.00000000000E+00  0.00000000000E+00  0.45593999997E+02  0.45594000000E+02  0.51100000000E-03 0. -1.
         11   -1    0    0    0    0 -0.00000000000E+00 -0.00000000000E+00 -0.45593999997E+02  0.45594000000E+02  0.51100000000E-03 0.  1.
    9900012    2    1    2    0    0  0.13667981866E+02 -0.24781281492E+01 -0.12558834455E+02  0.72461570274E+02  0.69999999973E+02 0.  0.
         12    1    1    2    0    0 -0.13667981866E+02  0.24781281492E+01  0.12558834455E+02  0.18726429726E+02  0.00000000000E+00 0. -1.
         11    1    3    3    0    0  0.48614167621E+01 -0.20502282947E+01  0.17522205482E+02  0.18299303107E+02  0.51100000000E-03 0. -1.
        -11    1    3    3    0    0 -0.21292412238E+01 -0.18157567427E+02 -0.89379390504E+00  0.18303819024E+02  0.51100000000E-03 0.  1.
        -12    1    3    3    0    0  0.10935806328E+02  0.17729667573E+02 -0.29187246032E+02  0.35858448143E+02  0.00000000000E+00 0.  1.
</event>
<event>
 7    1  0.1692604E-013  0.7246157E+02  0.7816164E-02  0.1226708E+00
        -11   -1    0    0    0    0  0.00000000000E+00  0.00000000000E+00  0.45593999997E+02  0.45594000000E+02  0.51100000000E-03 0.  1.
         11   -1    0    0    0    0 -0.00000000000E+00 -0.00000000000E+00 -0.45593999997E+02  0.45594000000E+02  0.51100000000E-03 0. -1.
    9900012    2    1    2    0    0 -0.14817456067E+00 -0.42025012734E+01  0.18248188024E+02  0.72461565774E+02  0.69999994112E+02 0.  0.
         12    1    1    2    0    0  0.14817456067E+00  0.42025012734E+01 -0.18248188024E+02  0.18726434226E+02  0.00000000000E+00 0. -1.
         11    1    3    3    0    0 -0.74330161372E+01  0.75159125836E+00  0.14812653594E+01  0.76163485767E+01  0.51100000000E-03 0. -1.
        -11    1    3    3    0    0 -0.96830682639E+01 -0.74910559249E+01  0.36616426161E+02  0.38608812400E+02  0.51100000000E-03 0.  1.
         12    1    3    3    0    0  0.16967909840E+02  0.25369633932E+01 -0.19849503497E+02  0.26236404797E+02  0.00000000000E+00 0. -1.
</event>
<event>
 7    1  0.1692604E-013  0.7246158E+02  0.7816164E-02  0.1226708E+00
        -11   -1    0    0    0    0  0.00000000000E+00  0.00000000000E+00  0.45593999997E+02  0.45594000000E+02  0.51100000000E-03 0.  1.
         11   -1    0    0    0    0 -0.00000000000E+00 -0.00000000000E+00 -0.45593999997E+02  0.45594000000E+02  0.51100000000E-03 0. -1.
    9900012    2    1    2    0    0 -0.40833443420E+01 -0.16842392822E+02  0.70949971418E+01  0.72461577986E+02  0.70000010020E+02 0.  0.
         12    1    1    2    0    0  0.40833443420E+01  0.16842392822E+02 -0.70949971418E+01  0.18726422014E+02  0.00000000000E+00 0. -1.
         11    1    3    3    0    0 -0.14353667744E+02  0.16860324605E+02 -0.58299407436E+01  0.22897304051E+02  0.51100000000E-03 0. -1.
        -11    1    3    3    0    0  0.11598350050E+02 -0.15973779490E+01  0.12914452279E+02  0.17431477795E+02  0.51100000000E-03 0.  1.
         12    1    3    3    0    0 -0.13280266489E+01 -0.32105339478E+02  0.10485606660E-01  0.32132796140E+02  0.00000000000E+00 0. -1.
</event>
<event>
 7    1  0.1692604E-013  0.7246158E+02  0.7816164E-02  0.1226708E+00
        -11   -1    0    0    0    0  0.00000000000E+00  0.00000000000E+00  0.45593999997E+02  0.45594000000E+02  0.51100000000E-03 0. -1.
         11   -1    0    0    0    0 -0.00000000000E+00 -0.00000000000E+00 -0.45593999997E+02  0.45594000000E+02  0.51100000000E-03 0.  1.
    9900012    2    1    2    0    0 -0.17196862840E+02  0.64593118174E+01 -0.36364853965E+01  0.72461579447E+02  0.70000011923E+02 0.  0.
         12    1    1    2    0    0  0.17196862840E+02 -0.64593118174E+01  0.36364853965E+01  0.18726420553E+02  0.00000000000E+00 0. -1.
         11    1    3    3    0    0 -0.21718654398E+02 -0.95131625127E+01  0.16027995127E+02  0.28619867887E+02  0.51100000000E-03 0. -1.
        -11    1    3    3    0    0 -0.86105567729E+01  0.22632917555E+02 -0.14568211316E+02  0.28259926153E+02  0.51100000000E-03 0.  1.
        -12    1    3    3    0    0  0.13132348330E+02 -0.66604432246E+01 -0.50962692075E+01  0.15581785406E+02  0.00000000000E+00 0.  1.
</event>
<event>
 7    1  0.1692604E-013  0.7246160E+02  0.7816164E-02  0.1226708E+00
        -11   -1    0    0    0    0  0.00000000000E+00  0.00000000000E+00  0.45593999997E+02  0.45594000000E+02  0.51100000000E-03 0.  1.
         11   -1    0    0    0    0 -0.00000000000E+00 -0.00000000000E+00 -0.45593999997E+02  0.45594000000E+02  0.51100000000E-03 0. -1.
    9900012    2    1    2    0    0 -0.47286358319E+00  0.16746922396E+02 -0.83663144813E+01  0.72461595441E+02  0.70000032758E+02 0.  0.
         12    1    1    2    0    0  0.47286358319E+00 -0.16746922396E+02  0.83663144813E+01  0.18726404559E+02  0.00000000000E+00 0. -1.
         11    1    3    3    0    0 -0.14253137450E+02 -0.24386331133E+02 -0.37021377260E+01  0.28487732400E+02  0.51100000000E-03 0.  1.
        -11    1    3    3    0    0  0.26419513756E+01  0.14696985383E+02 -0.14558383672E+00  0.14933267604E+02  0.51100000000E-03 0. -1.
        -12    1    3    3    0    0  0.11138322491E+02  0.26436268146E+02 -0.45185929186E+01  0.29040595437E+02  0.00000000000E+00 0.  1.
</event>
<event>
 7    1  0.1692604E-013  0.7246162E+02  0.7816164E-02  0.1226708E+00
        -11   -1    0    0    0    0  0.00000000000E+00  0.00000000000E+00  0.45593999997E+02  0.45594000000E+02  0.51100000000E-03 0. -1.
         11   -1    0    0    0    0 -0.00000000000E+00 -0.00000000000E+00 -0.45593999997E+02  0.45594000000E+02  0.51100000000E-03 0.  1.
    9900012    2    1    2    0    0  0.10866598206E+02  0.15167742047E+02  0.15918609366E+01  0.72461618165E+02  0.70000062360E+02 0.  0.
         12    1    1    2    0    0 -0.10866598206E+02 -0.15167742047E+02 -0.15918609366E+01  0.18726381835E+02  0.00000000000E+00 0. -1.
         11    1    3    3    0    0 -0.32504956029E+01  0.67300684855E+01 -0.20793432379E+02  0.22095845171E+02  0.51100000000E-03 0. -1.
        -11    1    3    3    0    0  0.10845548577E+02  0.25306456596E+02  0.17002239591E+02  0.32359215392E+02  0.51100000000E-03 0.  1.
         12    1    3    3    0    0  0.32715452318E+01 -0.16868783034E+02  0.53830537240E+01  0.18006557602E+02  0.00000000000E+00 0. -1.
</event>
<event>
 7    1  0.1692604E-013  0.7246162E+02  0.7816164E-02  0.1226708E+00
        -11   -1    0    0    0    0  0.00000000000E+00  0.00000000000E+00  0.45593999997E+02  0.45594000000E+02  0.51100000000E-03 0.  1.
         11   -1    0    0    0    0 -0.00000000000E+00 -0.00000000000E+00 -0.45593999997E+02  0.45594000000E+02  0.51100000000E-03 0. -1.
    9900012    2    1    2    0    0  0.16824444631E+02  0.71569255253E+01 -0.40489417476E+01  0.72461616222E+02  0.70000059830E+02 0.  0.
         12    1    1    2    0    0 -0.16824444631E+02 -0.71569255253E+01  0.40489417476E+01  0.18726383778E+02  0.00000000000E+00 0. -1.
         11    1    3    3    0    0 -0.21807162303E+01  0.20610805372E+02 -0.84952553041E+01  0.22399334461E+02  0.51100000000E-03 0. -1.
        -11    1    3    3    0    0  0.28293264626E+02  0.41060704623E+01 -0.32175271038E+01  0.28770142835E+02  0.51100000000E-03 0.  1.
         12    1    3    3    0    0 -0.92881037649E+01 -0.17559950309E+02  0.76638406602E+01  0.21292138926E+02  0.00000000000E+00 0. -1.
</event>
<event>
 7    1  0.1692604E-013  0.7246161E+02  0.7816164E-02  0.1226708E+00
        -11   -1    0    0    0    0  0.00000000000E+00  0.00000000000E+00  0.45593999997E+02  0.45594000000E+02  0.51100000000E-03 0.  1.
         11   -1    0    0    0    0 -0.00000000000E+00 -0.00000000000E+00 -0.45593999997E+02  0.45594000000E+02  0.51100000000E-03 0. -1.
    9900012    2    1    2    0    0 -0.96311038362E+01  0.15055223516E+02  0.55910454456E+01  0.72461609387E+02  0.70000050925E+02 0.  0.
         12    1    1    2    0    0  0.96311038362E+01 -0.15055223516E+02 -0.55910454456E+01  0.18726390613E+02  0.00000000000E+00 0. -1.
         11    1    3    3    0    0 -0.11837500997E+02 -0.23248401572E+02 -0.70238011730E+01  0.27017557045E+02  0.51100000000E-03 0. -1.
        -11    1    3    3    0    0  0.16976137894E+01 -0.22902746786E+01 -0.23855939396E+00  0.28607973586E+01  0.51100000000E-03 0.  1.
        -12    1    3    3    0    0  0.50878337128E+00  0.40593899767E+02  0.12853406013E+02  0.42583254983E+02  0.00000000000E+00 0.  1.
</event>
<event>
 7    1  0.1692604E-013  0.7246174E+02  0.7816164E-02  0.1226708E+00
        -11   -1    0    0    0    0  0.00000000000E+00  0.00000000000E+00  0.45593999997E+02  0.45594000000E+02  0.51100000000E-03 0.  1.
         11   -1    0    0    0    0 -0.00000000000E+00 -0.00000000000E+00 -0.45593999997E+02  0.45594000000E+02  0.51100000000E-03 0. -1.
    9900012    2    1    2    0    0 -0.77913551904E+01 -0.15336687601E+02  0.73995593494E+01  0.72461743544E+02  0.70000225690E+02 0.  0.
         12    1    1    2    0    0  0.77913551904E+01  0.15336687601E+02 -0.73995593494E+01  0.18726256456E+02  0.00000000000E+00 0. -1.
         11    1    3    3    0    0 -0.62244311726E+01 -0.40906919379E+01 -0.51751870840E+01  0.90697224638E+01  0.51100000000E-03 0. -1.
        -11    1    3    3    0    0 -0.17423352520E+02  0.45001302664E+01 -0.18045559532E+02  0.25484634676E+02  0.51100000000E-03 0.  1.
        -12    1    3    3    0    0  0.15856428503E+02 -0.15746125930E+02  0.30620305965E+02  0.37907386405E+02  0.00000000000E+00 0.  1.
</event>
<event>
 7    1  0.1692604E-013  0.7246154E+02  0.7816164E-02  0.1226708E+00
        -11   -1    0    0    0    0  0.00000000000E+00  0.00000000000E+00  0.45593999997E+02  0.45594000000E+02  0.51100000000E-03 0.  1.
         11   -1    0    0    0    0 -0.00000000000E+00 -0.00000000000E+00 -0.45593999997E+02  0.45594000000E+02  0.51100000000E-03 0. -1.
    9900012    2    1    2    0    0  0.89859656147E+01 -0.10234223994E+02  0.12852762348E+02  0.72461536939E+02  0.69999956549E+02 0.  0.
         12    1    1    2    0    0 -0.89859656147E+01  0.10234223994E+02 -0.12852762348E+02  0.18726463061E+02  0.00000000000E+00 0. -1.
         11    1    3    3    0    0  0.79170930561E+01 -0.75162765853E+01 -0.18190898574E+02  0.21215173045E+02  0.51100000000E-03 0. -1.
        -11    1    3    3    0    0  0.17771671528E+02 -0.59824494473E+01  0.38137458500E+01  0.19135481910E+02  0.51100000000E-03 0.  1.
         12    1    3    3    0    0 -0.16702798969E+02  0.32645020384E+01  0.27229915072E+02  0.32110881984E+02  0.00000000000E+00 0. -1.
</event>
<event>
 7    1  0.1692604E-013  0.7246174E+02  0.7816164E-02  0.1226708E+00
        -11   -1    0    0    0    0  0.00000000000E+00  0.00000000000E+00  0.45593999997E+02  0.45594000000E+02  0.51100000000E-03 0. -1.
         11   -1    0    0    0    0 -0.00000000000E+00 -0.00000000000E+00 -0.45593999997E+02  0.45594000000E+02  0.51100000000E-03 0.  1.
    9900012    2    1    2    0    0 -0.20739858407E+01  0.18325239779E+02  0.32491225740E+01  0.72461744963E+02  0.70000227538E+02 0.  0.
         12    1    1    2    0    0  0.20739858407E+01 -0.18325239779E+02 -0.32491225740E+01  0.18726255037E+02  0.00000000000E+00 0. -1.
         11    1    3    3    0    0  0.12237124825E+02  0.16197461376E+02 -0.88149861657E+01  0.22131628055E+02  0.51100000000E-03 0. -1.
        -11    1    3    3    0    0  0.40644365537E+01  0.58376065871E+01 -0.15466088785E+02  0.17023430845E+02  0.51100000000E-03 0.  1.
         12    1    3    3    0    0 -0.18375547219E+02 -0.37098281845E+01  0.27530197524E+02  0.33306686063E+02  0.00000000000E+00 0. -1.
</event>
<event>
 7    1  0.1692604E-013  0.7246160E+02  0.7816164E-02  0.1226708E+00
        -11   -1    0    0    0    0  0.00000000000E+00  0.00000000000E+00  0.45593999997E+02  0.45594000000E+02  0.51100000000E-03 0.  1.
         11   -1    0    0    0    0 -0.00000000000E+00 -0.00000000000E+00 -0.45593999997E+02  0.45594000000E+02  0.51100000000E-03 0. -1.
    9900012    2    1    2    0    0 -0.48630533364E+01  0.43243028131E+01  0.17559299293E+02  0.72461604879E+02  0.70000045053E+02 0.  0.
         12    1    1    2    0    0  0.48630533364E+01 -0.43243028131E+01 -0.17559299293E+02  0.18726395121E+02  0.00000000000E+00 0. -1.
         11    1    3    3    0    0 -0.15625747035E+02 -0.15789672169E+02 -0.10758665049E+02  0.24682515907E+02  0.51100000000E-03 0. -1.
        -11    1    3    3    0    0  0.21312666735E+01  0.97562867003E+01 -0.54799802366E+01  0.11391119851E+02  0.51100000000E-03 0.  1.
        -12    1    3    3    0    0  0.86314270253E+01  0.10357688282E+02  0.33797944578E+02  0.36387969121E+02  0.00000000000E+00 0.  1.
</event>
<event>
 7    1  0.1960117E-013  0.7246166E+02  0.7816164E-02  0.1226708E+00
        -11   -1    0    0    0    0  0.00000000000E+00  0.00000000000E+00  0.45593999997E+02  0.45594000000E+02  0.51100000000E-03 0. -1.
         11   -1    0    0    0    0 -0.00000000000E+00 -0.00000000000E+00 -0.45593999997E+02  0.45594000000E+02  0.51100000000E-03 0.  1.
    9900012    2    1    2    0    0 -0.49629227700E+01  0.68321132670E+01 -0.16714288216E+02  0.72461660136E+02  0.70000117036E+02 0.  0.
         12    1    1    2    0    0  0.49629227700E+01 -0.68321132670E+01  0.16714288216E+02  0.18726339864E+02  0.00000000000E+00 0. -1.
         11    1    3    3    0    0 -0.74218362738E+01  0.10288143206E+02  0.17807374893E+02  0.21863946239E+02  0.51100000000E-03 0. -1.
        -11    1    3    3    0    0 -0.79612194139E+01 -0.94282208317E+01  0.16819199631E+01  0.12453963932E+02  0.51100000000E-03 0.  1.
        -12    1    3    3    0    0  0.10420132918E+02  0.59721908925E+01 -0.36203583072E+02  0.38143749965E+02  0.00000000000E+00 0.  1.
</event>
<event>
 7    1  0.1692604E-013  0.7246152E+02  0.7816164E-02  0.1226708E+00
        -11   -1    0    0    0    0  0.00000000000E+00  0.00000000000E+00  0.45593999997E+02  0.45594000000E+02  0.51100000000E-03 0.  1.
         11   -1    0    0    0    0 -0.00000000000E+00 -0.00000000000E+00 -0.45593999997E+02  0.45594000000E+02  0.51100000000E-03 0. -1.
    9900012    2    1    2    0    0 -0.19254617266E+01  0.17966796216E+02  0.49160684102E+01  0.72461524150E+02  0.69999939889E+02 0.  0.
         12    1    1    2    0    0  0.19254617266E+01 -0.17966796216E+02 -0.49160684102E+01  0.18726475850E+02  0.00000000000E+00 0. -1.
         11    1    3    3    0    0 -0.47355517414E+01 -0.42807266337E+00  0.56177598903E+01  0.73598860688E+01  0.51100000000E-03 0. -1.
        -11    1    3    3    0    0 -0.46784821748E+01  0.40089234016E+02  0.68546133281E+01  0.40939230618E+02  0.51100000000E-03 0.  1.
         12    1    3    3    0    0  0.74885721895E+01 -0.21694365136E+02 -0.75563048081E+01  0.24162407464E+02  0.00000000000E+00 0. -1.
</event>
<event>
 7    1  0.1692604E-013  0.7246156E+02  0.7816164E-02  0.1226708E+00
        -11   -1    0    0    0    0  0.00000000000E+00  0.00000000000E+00  0.45593999997E+02  0.45594000000E+02  0.51100000000E-03 0. -1.
         11   -1    0    0    0    0 -0.00000000000E+00 -0.00000000000E+00 -0.45593999997E+02  0.45594000000E+02  0.51100000000E-03 0.  1.
    9900012    2    1    2    0    0 -0.16705783281E+02  0.19334610076E+01 -0.82375967237E+01  0.72461562371E+02  0.69999989678E+02 0.  0.
         12    1    1    2    0    0  0.16705783281E+02 -0.19334610076E+01  0.82375967237E+01  0.18726437629E+02  0.00000000000E+00 0. -1.
         11    1    3    3    0    0  0.84979271301E+01 -0.49334985131E+01 -0.26333006465E+02  0.28106607814E+02  0.51100000000E-03 0. -1.
        -11    1    3    3    0    0 -0.30782336011E+01  0.16133957905E+02  0.87567743496E+01  0.18613468700E+02  0.51100000000E-03 0.  1.
        -12    1    3    3    0    0 -0.22125476810E+02 -0.92669983838E+01  0.93386353915E+01  0.25741485856E+02  0.00000000000E+00 0.  1.
</event>
<event>
 7    1  0.1692604E-013  0.7246151E+02  0.7816164E-02  0.1226708E+00
        -11   -1    0    0    0    0  0.00000000000E+00  0.00000000000E+00  0.45593999997E+02  0.45594000000E+02  0.51100000000E-03 0.  1.
         11   -1    0    0    0    0 -0.00000000000E+00 -0.00000000000E+00 -0.45593999997E+02  0.45594000000E+02  0.51100000000E-03 0. -1.
    9900012    2    1    2    0    0 -0.28028060719E+01  0.18497038812E+02 -0.82772218868E+00  0.72461513658E+02  0.69999926221E+02 0.  0.
         12    1    1    2    0    0  0.28028060719E+01 -0.18497038812E+02  0.82772218868E+00  0.18726486342E+02  0.00000000000E+00 0. -1.
         11    1    3    3    0    0 -0.11364348110E+02 -0.13801123437E+01 -0.76418744631E+01  0.13764133232E+02  0.51100000000E-03 0. -1.
        -11    1    3    3    0    0  0.34536469274E+01  0.84402403006E+01  0.30537615441E+02  0.31870225769E+02  0.51100000000E-03 0.  1.
         12    1    3    3    0    0  0.51078951110E+01  0.11436910855E+02 -0.23723463167E+02  0.26827154657E+02  0.00000000000E+00 0. -1.
</event>
<event>
 7    1  0.1692604E-013  0.7246155E+02  0.7816164E-02  0.1226708E+00
        -11   -1    0    0    0    0  0.00000000000E+00  0.00000000000E+00  0.45593999997E+02  0.45594000000E+02  0.51100000000E-03 0.  1.
         11   -1    0    0    0    0 -0.00000000000E+00 -0.00000000000E+00 -0.45593999997E+02  0.45594000000E+02  0.51100000000E-03 0. -1.
    9900012    2    1    2    0    0 -0.14672498068E+02 -0.34605052326E+00  0.11630908313E+02  0.72461548689E+02  0.69999971856E+02 0.  0.
         12    1    1    2    0    0  0.14672498068E+02  0.34605052326E+00 -0.11630908313E+02  0.18726451311E+02  0.00000000000E+00 0. -1.
         11    1    3    3    0    0  0.43941216966E+01  0.10176789850E+02  0.59708530997E+01  0.12590728499E+02  0.51100000000E-03 0. -1.
        -11    1    3    3    0    0 -0.20215033469E+02  0.20325200317E+02  0.13087255513E+01  0.28696238585E+02  0.51100000000E-03 0.  1.
         12    1    3    3    0    0  0.11484137051E+01 -0.30848040690E+02  0.43513296615E+01  0.31174581606E+02  0.00000000000E+00 0. -1.
</event>
<event>
 7    1  0.1692604E-013  0.7246158E+02  0.7816164E-02  0.1226708E+00
        -11   -1    0    0    0    0  0.00000000000E+00  0.00000000000E+00  0.45593999997E+02  0.45594000000E+02  0.51100000000E-03 0.  1.
         11   -1    0    0    0    0 -0.00000000000E+00 -0.00000000000E+00 -0.45593999997E+02  0.45594000000E+02  0.51100000000E-03 0. -1.
    9900012    2    1    2    0    0 -0.84784707926E+01  0.15922097361E+02  0.50280472957E+01  0.72461577198E+02  0.70000008994E+02 0.  0.
         12    1    1    2    0    0  0.84784707926E+01 -0.15922097361E+02 -0.50280472957E+01  0.18726422802E+02  0.00000000000E+00 0. -1.
         11    1    3    3    0    0  0.15793390424E+02 -0.44840425713E+01  0.86864901977E+01  0.18573985331E+02  0.51100000000E-03 0. -1.
        -11    1    3    3    0    0  0.48914974748E+01 -0.57257912791E+01  0.99085851786E+01  0.12445541122E+02  0.51100000000E-03 0.  1.
         12    1    3    3    0    0 -0.29163358691E+02  0.26131931211E+02 -0.13567028081E+02  0.41442050745E+02  0.00000000000E+00 0. -1.
</event>
<event>
 7    1  0.1692604E-013  0.7246158E+02  0.7816164E-02  0.1226708E+00
        -11   -1    0    0    0    0  0.00000000000E+00  0.00000000000E+00  0.45593999997E+02  0.45594000000E+02  0.51100000000E-03 0.  1.
         11   -1    0    0    0    0 -0.00000000000E+00 -0.00000000000E+00 -0.45593999997E+02  0.45594000000E+02  0.51100000000E-03 0. -1.
    9900012    2    1    2    0    0  0.71392894174E+01  0.15308930464E+02  0.80836839534E+01  0.72461581453E+02  0.70000014537E+02 0.  0.
         12    1    1    2    0    0 -0.71392894174E+01 -0.15308930464E+02 -0.80836839534E+01  0.18726418547E+02  0.00000000000E+00 0. -1.
         11    1    3    3    0    0  0.40869867482E+01  0.39518427348E+01 -0.25436687908E+02  0.26064259316E+02  0.51100000000E-03 0. -1.
        -11    1    3    3    0    0 -0.35859008449E+01  0.16428909502E+02  0.63550641014E+01  0.17976501113E+02  0.51100000000E-03 0.  1.
         12    1    3    3    0    0  0.66382035141E+01 -0.50718217727E+01  0.27165307760E+02  0.28420821024E+02  0.00000000000E+00 0. -1.
</event>
<event>
 7    1  0.1692604E-013  0.7246141E+02  0.7816164E-02  0.1226708E+00
        -11   -1    0    0    0    0  0.00000000000E+00  0.00000000000E+00  0.45593999997E+02  0.45594000000E+02  0.51100000000E-03 0.  1.
         11   -1    0    0    0    0 -0.00000000000E+00 -0.00000000000E+00 -0.45593999997E+02  0.45594000000E+02  0.51100000000E-03 0. -1.
    9900012    2    1    2    0    0  0.85401827120E+01 -0.18891725027E+01  0.16558422644E+02  0.72461413179E+02  0.69999795328E+02 0.  0.
         12    1    1    2    0    0 -0.85401827120E+01  0.18891725027E+01 -0.16558422644E+02  0.18726586821E+02  0.00000000000E+00 0. -1.
         11    1    3    3    0    0 -0.21924926727E+01  0.10856651934E+02 -0.11200598081E+01  0.11132315553E+02  0.51100000000E-03 0. -1.
        -11    1    3    3    0    0 -0.16878250120E+02  0.12740150985E+02  0.60291084378E+01  0.21989473005E+02  0.51100000000E-03 0.  1.
        -12    1    3    3    0    0  0.27610925505E+02 -0.25485975421E+02  0.11649374014E+02  0.39339624621E+02  0.00000000000E+00 0.  1.
</event>
<event>
 7    1  0.1692604E-013  0.7246162E+02  0.7816164E-02  0.1226708E+00
        -11   -1    0    0    0    0  0.00000000000E+00  0.00000000000E+00  0.45593999997E+02  0.45594000000E+02  0.51100000000E-03 0. -1.
         11   -1    0    0    0    0 -0.00000000000E+00 -0.00000000000E+00 -0.45593999997E+02  0.45594000000E+02  0.51100000000E-03 0.  1.
    9900012    2    1    2    0    0 -0.96651019880E+01 -0.27279193003E+00  0.16037104969E+02  0.72461618938E+02  0.70000063368E+02 0.  0.
         12    1    1    2    0    0  0.96651019880E+01  0.27279193003E+00 -0.16037104969E+02  0.18726381062E+02  0.00000000000E+00 0. -1.
         11    1    3    3    0    0 -0.12976389974E+02 -0.17173707114E+02  0.16111209316E+02  0.26886687759E+02  0.51100000000E-03 0. -1.
        -11    1    3    3    0    0 -0.36220438032E+01  0.16240016052E+02  0.19007802492E+02  0.25261707752E+02  0.51100000000E-03 0.  1.
        -12    1    3    3    0    0  0.69333317889E+01  0.66089913133E+00 -0.19081906840E+02  0.20313223427E+02  0.00000000000E+00 0.  1.
</event>
<event>
 7    1  0.1692604E-013  0.7246156E+02  0.7816164E-02  0.1226708E+00
        -11   -1    0    0    0    0  0.00000000000E+00  0.00000000000E+00  0.45593999997E+02  0.45594000000E+02  0.51100000000E-03 0.  1.
         11   -1    0    0    0    0 -0.00000000000E+00 -0.00000000000E+00 -0.45593999997E+02  0.45594000000E+02  0.51100000000E-03 0. -1.
    9900012    2    1    2    0    0 -0.18521238893E+02  0.27429011976E+01 -0.34630077770E+00  0.72461555561E+02  0.69999980806E+02 0.  0.
         12    1    1    2    0    0  0.18521238893E+02 -0.27429011976E+01  0.34630077770E+00  0.18726444439E+02  0.00000000000E+00 0. -1.
         11    1    3    3    0    0 -0.11641092502E+02 -0.21642393859E+02  0.99073250638E+01  0.26496477818E+02  0.51100000000E-03 0. -1.
        -11    1    3    3    0    0 -0.47999535645E+01 -0.94164598727E+01  0.40668172124E-01  0.10569338906E+02  0.51100000000E-03 0.  1.
        -12    1    3    3    0    0 -0.20801928267E+01  0.33801754929E+02 -0.10294294014E+02  0.35395738836E+02  0.00000000000E+00 0.  1.
</event>
<event>
 7    1  0.1692604E-013  0.7246163E+02  0.7816164E-02  0.1226708E+00
        -11   -1    0    0    0    0  0.00000000000E+00  0.00000000000E+00  0.45593999997E+02  0.45594000000E+02  0.51100000000E-03 0.  1.
         11   -1    0    0    0    0 -0.00000000000E+00 -0.00000000000E+00 -0.45593999997E+02  0.45594000000E+02  0.51100000000E-03 0. -1.
    9900012    2    1    2    0    0  0.50403324503E+01  0.13397004576E+02  0.12074446450E+02  0.72461629826E+02  0.70000077551E+02 0.  0.
         12    1    1    2    0    0 -0.50403324503E+01 -0.13397004576E+02 -0.12074446450E+02  0.18726370174E+02  0.00000000000E+00 0. -1.
         11    1    3    3    0    0  0.45731688581E+01  0.70809708578E+01  0.14781293620E+02  0.17015894423E+02  0.51100000000E-03 0. -1.
        -11    1    3    3    0    0 -0.19471455609E+02 -0.16099544050E+02 -0.30113541442E+01  0.25444079001E+02  0.51100000000E-03 0.  1.
         12    1    3    3    0    0  0.19938619202E+02  0.22415577768E+02  0.30450697435E+00  0.30001656402E+02  0.00000000000E+00 0. -1.
</event>
<event>
 7    1  0.1692604E-013  0.7246096E+02  0.7816164E-02  0.1226710E+00
        -11   -1    0    0    0    0  0.00000000000E+00  0.00000000000E+00  0.45593999997E+02  0.45594000000E+02  0.51100000000E-03 0.  1.
         11   -1    0    0    0    0 -0.00000000000E+00 -0.00000000000E+00 -0.45593999997E+02  0.45594000000E+02  0.51100000000E-03 0. -1.
    9900012    2    1    2    0    0 -0.51068821853E+01  0.98161659442E+01 -0.15108433484E+02  0.72460957472E+02  0.69999201681E+02 0.  0.
         12    1    1    2    0    0  0.51068821853E+01 -0.98161659442E+01  0.15108433484E+02  0.18727042528E+02  0.00000000000E+00 0. -1.
         11    1    3    3    0    0 -0.24484158464E+01 -0.12314054410E+02  0.63185197827E-01  0.12555264585E+02  0.51100000000E-03 0. -1.
        -11    1    3    3    0    0 -0.65979864803E+01 -0.14380512739E+02  0.66790804718E+01  0.17173895552E+02  0.51100000000E-03 0.  1.
         12    1    3    3    0    0  0.39395201413E+01  0.36510733093E+02 -0.21850699154E+02  0.42731797335E+02  0.00000000000E+00 0. -1.
</event>
<event>
 7    1  0.1692604E-013  0.7246155E+02  0.7816164E-02  0.1226708E+00
        -11   -1    0    0    0    0  0.00000000000E+00  0.00000000000E+00  0.45593999997E+02  0.45594000000E+02  0.51100000000E-03 0. -1.
         11   -1    0    0    0    0 -0.00000000000E+00 -0.00000000000E+00 -0.45593999997E+02  0.45594000000E+02  0.51100000000E-03 0.  1.
    9900012    2    1    2    0    0  0.12098580800E+02  0.14148857836E+02 -0.20282904241E+01  0.72461553528E+02  0.69999978158E+02 0.  0.
         12    1    1    2    0    0 -0.12098580800E+02 -0.14148857836E+02  0.20282904241E+01  0.18726446472E+02  0.00000000000E+00 0. -1.
         11    1    3    3    0    0  0.10129063769E+01  0.15158922347E+02 -0.53339138767E+01  0.16101849072E+02  0.51100000000E-03 0. -1.
        -11    1    3    3    0    0  0.20595546402E+01  0.50738565501E+01 -0.25230556492E+02  0.25817954348E+02  0.51100000000E-03 0.  1.
         12    1    3    3    0    0  0.90261197827E+01 -0.60839210607E+01  0.28536179944E+02  0.30541750107E+02  0.00000000000E+00 0. -1.
</event>
<event>
 7    1  0.1692604E-013  0.7246158E+02  0.7816164E-02  0.1226708E+00
        -11   -1    0    0    0    0  0.00000000000E+00  0.00000000000E+00  0.45593999997E+02  0.45594000000E+02  0.51100000000E-03 0. -1.
         11   -1    0    0    0    0 -0.00000000000E+00 -0.00000000000E+00 -0.45593999997E+02  0.45594000000E+02  0.51100000000E-03 0.  1.
    9900012    2    1    2    0    0  0.97868794992E+01  0.30300443787E+00 -0.15962586162E+02  0.72461575381E+02  0.70000006627E+02 0.  0.
         12    1    1    2    0    0 -0.97868794992E+01 -0.30300443787E+00  0.15962586162E+02  0.18726424619E+02  0.00000000000E+00 0. -1.
         11    1    3    3    0    0  0.22019140313E+01 -0.87463877830E+01  0.11045959383E+02  0.14260467860E+02  0.51100000000E-03 0. -1.
        -11    1    3    3    0    0 -0.77802369963E+01 -0.73393002149E+01  0.10172227249E+02  0.14760475020E+02  0.51100000000E-03 0.  1.
         12    1    3    3    0    0  0.15365202464E+02  0.16388692436E+02 -0.37180772794E+02  0.43440632501E+02  0.00000000000E+00 0. -1.
</event>
<event>
 7    1  0.1692604E-013  0.7246134E+02  0.7816164E-02  0.1226709E+00
        -11   -1    0    0    0    0  0.00000000000E+00  0.00000000000E+00  0.45593999997E+02  0.45594000000E+02  0.51100000000E-03 0.  1.
         11   -1    0    0    0    0 -0.00000000000E+00 -0.00000000000E+00 -0.45593999997E+02  0.45594000000E+02  0.51100000000E-03 0. -1.
    9900012    2    1    2    0    0 -0.60416772477E+01 -0.80119526234E+01  0.15811214106E+02  0.72461341454E+02  0.69999701892E+02 0.  0.
         12    1    1    2    0    0  0.60416772477E+01  0.80119526234E+01 -0.15811214106E+02  0.18726658546E+02  0.00000000000E+00 0. -1.
         11    1    3    3    0    0 -0.96250921627E+01  0.37849894780E+01 -0.10799627649E+02  0.14953277303E+02  0.51100000000E-03 0. -1.
        -11    1    3    3    0    0 -0.21721888215E+02 -0.13572028831E+02  0.13347197662E+02  0.28882314310E+02  0.51100000000E-03 0.  1.
         12    1    3    3    0    0  0.25305303129E+02  0.17750867294E+01  0.13263644092E+02  0.28625749841E+02  0.00000000000E+00 0. -1.
</event>
<event>
 7    1  0.1692604E-013  0.7246156E+02  0.7816164E-02  0.1226708E+00
        -11   -1    0    0    0    0  0.00000000000E+00  0.00000000000E+00  0.45593999997E+02  0.45594000000E+02  0.51100000000E-03 0.  1.
         11   -1    0    0    0    0 -0.00000000000E+00 -0.00000000000E+00 -0.45593999997E+02  0.45594000000E+02  0.51100000000E-03 0. -1.
    9900012    2    1    2    0    0 -0.18353598809E+02  0.35954636299E+01  0.94735110965E+00  0.72461563551E+02  0.69999991215E+02 0.  0.
         12    1    1    2    0    0  0.18353598809E+02 -0.35954636299E+01 -0.94735110965E+00  0.18726436449E+02  0.00000000000E+00 0. -1.
         11    1    3    3    0    0 -0.37235023461E+00 -0.54983369667E+01 -0.93341596185E+00  0.55894203380E+01  0.51100000000E-03 0. -1.
        -11    1    3    3    0    0  0.10184667426E+02 -0.21571171348E+02 -0.57587019658E+01  0.24539876375E+02  0.51100000000E-03 0.  1.
        -12    1    3    3    0    0 -0.28165916001E+02  0.30664971944E+02  0.76394690373E+01  0.42332266838E+02  0.00000000000E+00 0.  1.
</event>
<event>
 7    1  0.1692604E-013  0.7246150E+02  0.7816164E-02  0.1226708E+00
        -11   -1    0    0    0    0  0.00000000000E+00  0.00000000000E+00  0.45593999997E+02  0.45594000000E+02  0.51100000000E-03 0.  1.
         11   -1    0    0    0    0 -0.00000000000E+00 -0.00000000000E+00 -0.45593999997E+02  0.45594000000E+02  0.51100000000E-03 0. -1.
    9900012    2    1    2    0    0 -0.79856844621E+01 -0.16159571965E+02  0.50772992216E+01  0.72461497663E+02  0.69999905384E+02 0.  0.
         12    1    1    2    0    0  0.79856844621E+01  0.16159571965E+02 -0.50772992216E+01  0.18726502337E+02  0.00000000000E+00 0. -1.
         11    1    3    3    0    0  0.92075004616E+01  0.22075740188E+02 -0.11333723090E+02  0.26468276274E+02  0.51100000000E-03 0. -1.
        -11    1    3    3    0    0 -0.25866918955E+01 -0.46159110460E+01 -0.10452458719E+01  0.53935284314E+01  0.51100000000E-03 0.  1.
        -12    1    3    3    0    0 -0.14606493028E+02 -0.33619401106E+02  0.17456268183E+02  0.40599692957E+02  0.00000000000E+00 0.  1.
</event>
<event>
 7    1  0.1692604E-013  0.7246157E+02  0.7816164E-02  0.1226708E+00
        -11   -1    0    0    0    0  0.00000000000E+00  0.00000000000E+00  0.45593999997E+02  0.45594000000E+02  0.51100000000E-03 0. -1.
         11   -1    0    0    0    0 -0.00000000000E+00 -0.00000000000E+00 -0.45593999997E+02  0.45594000000E+02  0.51100000000E-03 0.  1.
    9900012    2    1    2    0    0 -0.23623828754E+01  0.10108242259E+02 -0.15585951096E+02  0.72461567184E+02  0.69999995949E+02 0.  0.
         12    1    1    2    0    0  0.23623828754E+01 -0.10108242259E+02  0.15585951096E+02  0.18726432816E+02  0.00000000000E+00 0. -1.
         11    1    3    3    0    0  0.10461547722E+02  0.30420631108E+02 -0.11996541971E+02  0.34333304491E+02  0.51100000000E-03 0. -1.
        -11    1    3    3    0    0 -0.31321653438E+01  0.71151981961E+01  0.29460459630E+01  0.83135847977E+01  0.51100000000E-03 0.  1.
        -12    1    3    3    0    0 -0.96917652532E+01 -0.27427587045E+02 -0.65354550890E+01  0.29814677896E+02  0.00000000000E+00 0.  1.
</event>
<event>
 7    1  0.1692604E-013  0.7246166E+02  0.7816164E-02  0.1226708E+00
        -11   -1    0    0    0    0  0.00000000000E+00  0.00000000000E+00  0.45593999997E+02  0.45594000000E+02  0.51100000000E-03 0. -1.
         11   -1    0    0    0    0 -0.00000000000E+00 -0.00000000000E+00 -0.45593999997E+02  0.45594000000E+02  0.51100000000E-03 0.  1.
    9900012    2    1    2    0    0 -0.43059909798E+01 -0.62161241559E+01 -0.17131665445E+02  0.72461662431E+02  0.70000120025E+02 0.  0.
         12    1    1    2    0    0  0.43059909798E+01  0.62161241559E+01  0.17131665445E+02  0.18726337569E+02  0.00000000000E+00 0. -1.
         11    1    3    3    0    0 -0.39647140784E+01  0.64262427338E+01 -0.48192526995E+01  0.89577201475E+01  0.51100000000E-03 0. -1.
        -11    1    3    3    0    0 -0.17197073811E+02  0.19433036391E+02 -0.32425863612E+01  0.26151417124E+02  0.51100000000E-03 0.  1.
         12    1    3    3    0    0  0.16855796910E+02 -0.32075403281E+02 -0.90698263844E+01  0.37352525159E+02  0.00000000000E+00 0. -1.
</event>
<event>
 7    1  0.1692604E-013  0.7246201E+02  0.7816164E-02  0.1226707E+00
        -11   -1    0    0    0    0  0.00000000000E+00  0.00000000000E+00  0.45593999997E+02  0.45594000000E+02  0.51100000000E-03 0.  1.
         11   -1    0    0    0    0 -0.00000000000E+00 -0.00000000000E+00 -0.45593999997E+02  0.45594000000E+02  0.51100000000E-03 0. -1.
    9900012    2    1    2    0    0 -0.74473614328E+01  0.16998069918E+02  0.25029983274E+01  0.72462013407E+02  0.70000577234E+02 0.  0.
         12    1    1    2    0    0  0.74473614328E+01 -0.16998069918E+02 -0.25029983274E+01  0.18725986593E+02  0.00000000000E+00 0. -1.
         11    1    3    3    0    0  0.10423484280E+02  0.10830370867E+02 -0.15835231813E+02  0.21833472570E+02  0.51100000000E-03 0. -1.
        -11    1    3    3    0    0  0.56032441263E+01  0.87388821981E+01  0.24169662216E+02  0.26304694994E+02  0.51100000000E-03 0.  1.
         12    1    3    3    0    0 -0.23474089839E+02 -0.25711831465E+01 -0.58314320760E+01  0.24323845843E+02  0.00000000000E+00 0. -1.
</event>
<event>
 7    1  0.1692604E-013  0.7246159E+02  0.7816164E-02  0.1226708E+00
        -11   -1    0    0    0    0  0.00000000000E+00  0.00000000000E+00  0.45593999997E+02  0.45594000000E+02  0.51100000000E-03 0.  1.
         11   -1    0    0    0    0 -0.00000000000E+00 -0.00000000000E+00 -0.45593999997E+02  0.45594000000E+02  0.51100000000E-03 0. -1.
    9900012    2    1    2    0    0 -0.10434650741E+02  0.71013799740E+01  0.13833542035E+02  0.72461590337E+02  0.70000026109E+02 0.  0.
         12    1    1    2    0    0  0.10434650741E+02 -0.71013799740E+01 -0.13833542035E+02  0.18726409663E+02  0.00000000000E+00 0. -1.
         11    1    3    3    0    0 -0.23769627416E+02 -0.12860626281E+01  0.22478617127E+02  0.32740454682E+02  0.51100000000E-03 0. -1.
        -11    1    3    3    0    0 -0.15527048307E+00  0.95703479976E+01  0.11802486757E+02  0.15195866663E+02  0.51100000000E-03 0.  1.
         12    1    3    3    0    0  0.13490247159E+02 -0.11829053955E+01 -0.20447561849E+02  0.24525268992E+02  0.00000000000E+00 0. -1.
</event>
<event>
 7    1  0.1692604E-013  0.7246164E+02  0.7816164E-02  0.1226708E+00
        -11   -1    0    0    0    0  0.00000000000E+00  0.00000000000E+00  0.45593999997E+02  0.45594000000E+02  0.51100000000E-03 0. -1.
         11   -1    0    0    0    0 -0.00000000000E+00 -0.00000000000E+00 -0.45593999997E+02  0.45594000000E+02  0.51100000000E-03 0.  1.
    9900012    2    1    2    0    0 -0.60014796271E+01 -0.10899993496E+02  0.13994605879E+02  0.72461638644E+02  0.70000089038E+02 0.  0.
         12    1    1    2    0    0  0.60014796271E+01  0.10899993496E+02 -0.13994605879E+02  0.18726361356E+02  0.00000000000E+00 0. -1.
         11    1    3    3    0    0  0.76509646125E+01 -0.15743993131E+02  0.15826238125E+02  0.23598313343E+02  0.51100000000E-03 0. -1.
        -11    1    3    3    0    0  0.11924581758E+01 -0.18391226053E+02 -0.88012172824E+01  0.20423530012E+02  0.51100000000E-03 0.  1.
        -12    1    3    3    0    0 -0.14844902415E+02  0.23235225688E+02  0.69695850363E+01  0.28439795289E+02  0.00000000000E+00 0.  1.
</event>
<event>
 7    1  0.1692604E-013  0.7246172E+02  0.7816164E-02  0.1226708E+00
        -11   -1    0    0    0    0  0.00000000000E+00  0.00000000000E+00  0.45593999997E+02  0.45594000000E+02  0.51100000000E-03 0.  1.
         11   -1    0    0    0    0 -0.00000000000E+00 -0.00000000000E+00 -0.45593999997E+02  0.45594000000E+02  0.51100000000E-03 0. -1.
    9900012    2    1    2    0    0 -0.69698765980E+01  0.12623956112E+02  0.11946969373E+02  0.72461721007E+02  0.70000196331E+02 0.  0.
         12    1    1    2    0    0  0.69698765980E+01 -0.12623956112E+02 -0.11946969373E+02  0.18726278993E+02  0.00000000000E+00 0. -1.
         11    1    3    3    0    0 -0.16005560979E+02  0.19408561166E+02 -0.70845855353E+01  0.26135446835E+02  0.51100000000E-03 0. -1.
        -11    1    3    3    0    0 -0.56544996088E+01 -0.20777395527E+02  0.65538498479E+01  0.22508364640E+02  0.51100000000E-03 0.  1.
         12    1    3    3    0    0  0.14690183990E+02  0.13992790473E+02  0.12477705060E+02  0.23817909532E+02  0.00000000000E+00 0. -1.
</event>
<event>
 7    1  0.1692604E-013  0.7246152E+02  0.7816164E-02  0.1226708E+00
        -11   -1    0    0    0    0  0.00000000000E+00  0.00000000000E+00  0.45593999997E+02  0.45594000000E+02  0.51100000000E-03 0. -1.
         11   -1    0    0    0    0 -0.00000000000E+00 -0.00000000000E+00 -0.45593999997E+02  0.45594000000E+02  0.51100000000E-03 0.  1.
    9900012    2    1    2    0    0 -0.33782833773E+01  0.57690200055E+01 -0.17492477122E+02  0.72461517515E+02  0.69999931245E+02 0.  0.
         12    1    1    2    0    0  0.33782833773E+01 -0.57690200055E+01  0.17492477122E+02  0.18726482485E+02  0.00000000000E+00 0. -1.
         11    1    3    3    0    0  0.68294592956E+01 -0.22583331273E+02 -0.18596511176E+01  0.23666572802E+02  0.51100000000E-03 0. -1.
        -11    1    3    3    0    0 -0.19606688793E+02  0.67129684259E+01 -0.14272591842E+02  0.25163327854E+02  0.51100000000E-03 0.  1.
        -12    1    3    3    0    0  0.93989461202E+01  0.21639382852E+02 -0.13602341625E+01  0.23631616859E+02  0.00000000000E+00 0.  1.
</event>
<event>
 7    1  0.1692604E-013  0.7246157E+02  0.7816164E-02  0.1226708E+00
        -11   -1    0    0    0    0  0.00000000000E+00  0.00000000000E+00  0.45593999997E+02  0.45594000000E+02  0.51100000000E-03 0. -1.
         11   -1    0    0    0    0 -0.00000000000E+00 -0.00000000000E+00 -0.45593999997E+02  0.45594000000E+02  0.51100000000E-03 0.  1.
    9900012    2    1    2    0    0  0.82204109960E+01 -0.42937710932E+01 -0.16268608252E+02  0.72461568369E+02  0.69999997492E+02 0.  0.
         12    1    1    2    0    0 -0.82204109960E+01  0.42937710932E+01  0.16268608252E+02  0.18726431631E+02  0.00000000000E+00 0. -1.
         11    1    3    3    0    0  0.23154917888E+02  0.41190497878E+01 -0.62821995973E+01  0.24343024167E+02  0.51100000000E-03 0.  1.
        -11    1    3    3    0    0 -0.13121805098E+01 -0.94729771138E+01 -0.25625235552E+02  0.27351632684E+02  0.51100000000E-03 0. -1.
         12    1    3    3    0    0 -0.13622326382E+02  0.10601562327E+01  0.15638826897E+02  0.20766911519E+02  0.00000000000E+00 0. -1.
</event>
<event>
 7    1  0.1692604E-013  0.7246156E+02  0.7816164E-02  0.1226708E+00
        -11   -1    0    0    0    0  0.00000000000E+00  0.00000000000E+00  0.45593999997E+02  0.45594000000E+02  0.51100000000E-03 0. -1.
         11   -1    0    0    0    0 -0.00000000000E+00 -0.00000000000E+00 -0.45593999997E+02  0.45594000000E+02  0.51100000000E-03 0.  1.
    9900012    2    1    2    0    0  0.97141866891E+01 -0.87304626906E+01 -0.13419873120E+02  0.72461564237E+02  0.69999992109E+02 0.  0.
         12    1    1    2    0    0 -0.97141866891E+01  0.87304626906E+01  0.13419873120E+02  0.18726435763E+02  0.00000000000E+00 0. -1.
         11    1    3    3    0    0 -0.20318038589E+02 -0.71579762417E+01 -0.13744537253E+02  0.25553309386E+02  0.51100000000E-03 0. -1.
        -11    1    3    3    0    0  0.26026604704E+01  0.36626579872E+01  0.14791334468E+02  0.15458734769E+02  0.51100000000E-03 0.  1.
        -12    1    3    3    0    0  0.27429564808E+02 -0.52351444360E+01 -0.14466670335E+02  0.31449520082E+02  0.00000000000E+00 0.  1.
</event>
<event>
 7    1  0.1692604E-013  0.7246163E+02  0.7816164E-02  0.1226708E+00
        -11   -1    0    0    0    0  0.00000000000E+00  0.00000000000E+00  0.45593999997E+02  0.45594000000E+02  0.51100000000E-03 0.  1.
         11   -1    0    0    0    0 -0.00000000000E+00 -0.00000000000E+00 -0.45593999997E+02  0.45594000000E+02  0.51100000000E-03 0. -1.
    9900012    2    1    2    0    0 -0.10395873864E+02  0.14500684258E+02 -0.56862159690E+01  0.72461625834E+02  0.70000072351E+02 0.  0.
         12    1    1    2    0    0  0.10395873864E+02 -0.14500684258E+02  0.56862159690E+01  0.18726374166E+02  0.00000000000E+00 0. -1.
         11    1    3    3    0    0 -0.19892143723E+02  0.10976884534E+02  0.13146983381E+02  0.26249429484E+02  0.51100000000E-03 0.  1.
        -11    1    3    3    0    0  0.30786559371E+01  0.15857433641E+01 -0.31601660925E+02  0.31790842673E+02  0.51100000000E-03 0. -1.
         12    1    3    3    0    0  0.64176139218E+01  0.19380563606E+01  0.12768461574E+02  0.14421353677E+02  0.00000000000E+00 0. -1.
</event>
<event>
 7    1  0.1692604E-013  0.7246159E+02  0.7816164E-02  0.1226708E+00
        -11   -1    0    0    0    0  0.00000000000E+00  0.00000000000E+00  0.45593999997E+02  0.45594000000E+02  0.51100000000E-03 0. -1.
         11   -1    0    0    0    0 -0.00000000000E+00 -0.00000000000E+00 -0.45593999997E+02  0.45594000000E+02  0.51100000000E-03 0.  1.
    9900012    2    1    2    0    0  0.87186817466E+01 -0.53252755008E+01 -0.15694085873E+02  0.72461593459E+02  0.70000030176E+02 0.  0.
         12    1    1    2    0    0 -0.87186817466E+01  0.53252755008E+01  0.15694085873E+02  0.18726406541E+02  0.00000000000E+00 0. -1.
         11    1    3    3    0    0  0.26519734179E+02  0.50140827366E+01 -0.11764864964E+02  0.29442305862E+02  0.51100000000E-03 0. -1.
        -11    1    3    3    0    0 -0.43815370512E+01 -0.16640953755E+02 -0.16306002815E+02  0.23706643307E+02  0.51100000000E-03 0.  1.
         12    1    3    3    0    0 -0.13419515381E+02  0.63015955179E+01  0.12376781906E+02  0.19312644290E+02  0.00000000000E+00 0. -1.
</event>
<event>
 7    1  0.1692604E-013  0.7246157E+02  0.7816164E-02  0.1226708E+00
        -11   -1    0    0    0    0  0.00000000000E+00  0.00000000000E+00  0.45593999997E+02  0.45594000000E+02  0.51100000000E-03 0.  1.
         11   -1    0    0    0    0 -0.00000000000E+00 -0.00000000000E+00 -0.45593999997E+02  0.45594000000E+02  0.51100000000E-03 0. -1.
    9900012    2    1    2    0    0  0.12571431952E+02  0.13511132458E+02 -0.31760898662E+01  0.72461570857E+02  0.70000000733E+02 0.  0.
         12    1    1    2    0    0 -0.12571431952E+02 -0.13511132458E+02  0.31760898662E+01  0.18726429143E+02  0.00000000000E+00 0. -1.
         11    1    3    3    0    0  0.14506217643E+02 -0.50802798257E+01 -0.27739169642E+02  0.31712791206E+02  0.51100000000E-03 0. -1.
        -11    1    3    3    0    0 -0.92522216054E+01  0.15198702286E+02  0.34194439467E+01  0.18118961145E+02  0.51100000000E-03 0.  1.
        -12    1    3    3    0    0  0.73174359142E+01  0.33927099979E+01  0.21143635829E+02  0.22629818505E+02  0.00000000000E+00 0.  1.
</event>
<event>
 7    1  0.1692604E-013  0.7246156E+02  0.7816164E-02  0.1226708E+00
        -11   -1    0    0    0    0  0.00000000000E+00  0.00000000000E+00  0.45593999997E+02  0.45594000000E+02  0.51100000000E-03 0.  1.
         11   -1    0    0    0    0 -0.00000000000E+00 -0.00000000000E+00 -0.45593999997E+02  0.45594000000E+02  0.51100000000E-03 0. -1.
    9900012    2    1    2    0    0 -0.49521778376E+01  0.43834499455E+01  0.17519725514E+02  0.72461561982E+02  0.69999989171E+02 0.  0.
         12    1    1    2    0    0  0.49521778376E+01 -0.43834499455E+01 -0.17519725514E+02  0.18726438018E+02  0.00000000000E+00 0. -1.
         11    1    3    3    0    0  0.65861009521E+00 -0.89681457182E+01  0.31372556654E+02  0.32635850168E+02  0.51100000000E-03 0. -1.
        -11    1    3    3    0    0 -0.75233150725E+01 -0.81795314345E+01  0.39787753698E+01  0.11804052604E+02  0.51100000000E-03 0.  1.
         12    1    3    3    0    0  0.19125271397E+01  0.21531127098E+02 -0.17831606510E+02  0.28021659210E+02  0.00000000000E+00 0. -1.
</event>
<event>
 7    1  0.1692604E-013  0.7246157E+02  0.7816164E-02  0.1226708E+00
        -11   -1    0    0    0    0  0.00000000000E+00  0.00000000000E+00  0.45593999997E+02  0.45594000000E+02  0.51100000000E-03 0. -1.
         11   -1    0    0    0    0 -0.00000000000E+00 -0.00000000000E+00 -0.45593999997E+02  0.45594000000E+02  0.51100000000E-03 0.  1.
    9900012    2    1    2    0    0  0.18216809265E+02  0.19220340355E+01  0.38900775220E+01  0.72461573279E+02  0.70000003887E+02 0.  0.
         12    1    1    2    0    0 -0.18216809265E+02 -0.19220340355E+01 -0.38900775220E+01  0.18726426721E+02  0.00000000000E+00 0. -1.
         11    1    3    3    0    0  0.11248063796E+02  0.12612963407E+01  0.18384576616E+02  0.21589406319E+02  0.51100000000E-03 0. -1.
        -11    1    3    3    0    0  0.10574296342E+02  0.16660182364E+01  0.16491365952E+02  0.19661040439E+02  0.51100000000E-03 0.  1.
        -12    1    3    3    0    0 -0.36055508727E+01 -0.10052805416E+01 -0.30985865046E+02  0.31211126521E+02  0.00000000000E+00 0.  1.
</event>
<event>
 7    1  0.1692604E-013  0.7246153E+02  0.7816164E-02  0.1226708E+00
        -11   -1    0    0    0    0  0.00000000000E+00  0.00000000000E+00  0.45593999997E+02  0.45594000000E+02  0.51100000000E-03 0.  1.
         11   -1    0    0    0    0 -0.00000000000E+00 -0.00000000000E+00 -0.45593999997E+02  0.45594000000E+02  0.51100000000E-03 0. -1.
    9900012    2    1    2    0    0  0.48610676254E+01 -0.18063695258E+02 -0.86812161823E+00  0.72461529430E+02  0.69999946767E+02 0.  0.
         12    1    1    2    0    0 -0.48610676254E+01  0.18063695258E+02  0.86812161823E+00  0.18726470570E+02  0.00000000000E+00 0. -1.
         11    1    3    3    0    0  0.18588032432E+01  0.61119366502E+01  0.56989558510E+01  0.85609004881E+01  0.51100000000E-03 0. -1.
        -11    1    3    3    0    0 -0.21592154515E+02 -0.18061320099E+02  0.13834609606E+02  0.31366046029E+02  0.51100000000E-03 0.  1.
         12    1    3    3    0    0  0.24594418897E+02 -0.61143118100E+01 -0.20401687076E+02  0.32534582913E+02  0.00000000000E+00 0. -1.
</event>
<event>
 7    1  0.1692604E-013  0.7246144E+02  0.7816164E-02  0.1226708E+00
        -11   -1    0    0    0    0  0.00000000000E+00  0.00000000000E+00  0.45593999997E+02  0.45594000000E+02  0.51100000000E-03 0.  1.
         11   -1    0    0    0    0 -0.00000000000E+00 -0.00000000000E+00 -0.45593999997E+02  0.45594000000E+02  0.51100000000E-03 0. -1.
    9900012    2    1    2    0    0 -0.12221978980E+00  0.16029365435E+02  0.96813565392E+01  0.72461437092E+02  0.69999826479E+02 0.  0.
         12    1    1    2    0    0  0.12221978980E+00 -0.16029365435E+02 -0.96813565392E+01  0.18726562908E+02  0.00000000000E+00 0. -1.
         11    1    3    3    0    0 -0.67840396061E+01 -0.59262499550E+00 -0.15002668894E+02  0.16475875454E+02  0.51100000000E-03 0. -1.
        -11    1    3    3    0    0 -0.12478176429E+02 -0.19452043888E+01 -0.71072222899E+01  0.14491422154E+02  0.51100000000E-03 0.  1.
        -12    1    3    3    0    0  0.19139996245E+02  0.18567194819E+02  0.31791247724E+02  0.41494139484E+02  0.00000000000E+00 0.  1.
</event>
<event>
 7    1  0.1692604E-013  0.7246156E+02  0.7816164E-02  0.1226708E+00
        -11   -1    0    0    0    0  0.00000000000E+00  0.00000000000E+00  0.45593999997E+02  0.45594000000E+02  0.51100000000E-03 0. -1.
         11   -1    0    0    0    0 -0.00000000000E+00 -0.00000000000E+00 -0.45593999997E+02  0.45594000000E+02  0.51100000000E-03 0.  1.
    9900012    2    1    2    0    0 -0.41853079829E+01 -0.37947819399E+01 -0.17853923060E+02  0.72461555022E+02  0.69999980104E+02 0.  0.
         12    1    1    2    0    0  0.41853079829E+01  0.37947819399E+01  0.17853923060E+02  0.18726444978E+02  0.00000000000E+00 0. -1.
         11    1    3    3    0    0 -0.79557820868E+01 -0.33050241563E+01  0.49405941977E+01  0.99311189991E+01  0.51100000000E-03 0. -1.
        -11    1    3    3    0    0 -0.14594584982E+02 -0.88472336665E+01  0.12990941841E+02  0.21448543645E+02  0.51100000000E-03 0.  1.
         12    1    3    3    0    0  0.18365059086E+02  0.83574758829E+01 -0.35785459099E+02  0.41081892377E+02  0.00000000000E+00 0. -1.
</event>
<event>
 7    1  0.1692604E-013  0.7246078E+02  0.7816164E-02  0.1226710E+00
        -11   -1    0    0    0    0  0.00000000000E+00  0.00000000000E+00  0.45593999997E+02  0.45594000000E+02  0.51100000000E-03 0.  1.
         11   -1    0    0    0    0 -0.00000000000E+00 -0.00000000000E+00 -0.45593999997E+02  0.45594000000E+02  0.51100000000E-03 0. -1.
    9900012    2    1    2    0    0  0.46264286549E+01  0.17821998015E+02  0.34178158892E+01  0.72460775945E+02  0.69998965205E+02 0.  0.
         12    1    1    2    0    0 -0.46264286549E+01 -0.17821998015E+02 -0.34178158892E+01  0.18727224055E+02  0.00000000000E+00 0. -1.
         11    1    3    3    0    0  0.68019319621E+01  0.80403191648E+01 -0.14359824706E+02  0.17807795387E+02  0.51100000000E-03 0. -1.
        -11    1    3    3    0    0  0.22189098830E+02  0.14423751765E+02  0.12617703642E+02  0.29319058091E+02  0.51100000000E-03 0.  1.
        -12    1    3    3    0    0 -0.24364602137E+02 -0.46420729145E+01  0.51599369533E+01  0.25333922468E+02  0.00000000000E+00 0.  1.
</event>
<event>
 7    1  0.1692604E-013  0.7246161E+02  0.7816164E-02  0.1226708E+00
        -11   -1    0    0    0    0  0.00000000000E+00  0.00000000000E+00  0.45593999997E+02  0.45594000000E+02  0.51100000000E-03 0. -1.
         11   -1    0    0    0    0 -0.00000000000E+00 -0.00000000000E+00 -0.45593999997E+02  0.45594000000E+02  0.51100000000E-03 0.  1.
    9900012    2    1    2    0    0 -0.10499736096E+02  0.95140504977E+01 -0.12244014411E+02  0.72461614768E+02  0.70000057935E+02 0.  0.
         12    1    1    2    0    0  0.10499736096E+02 -0.95140504977E+01  0.12244014411E+02  0.18726385232E+02  0.00000000000E+00 0. -1.
         11    1    3    3    0    0 -0.13224547242E+02 -0.17902359087E+02 -0.24713952552E+02  0.33259022259E+02  0.51100000000E-03 0. -1.
        -11    1    3    3    0    0 -0.19700103120E+01  0.57250326865E+01 -0.72974786084E+01  0.94820954536E+01  0.51100000000E-03 0.  1.
         12    1    3    3    0    0  0.46948214581E+01  0.21691376898E+02  0.19767416749E+02  0.29720497055E+02  0.00000000000E+00 0. -1.
</event>
<event>
 7    1  0.1692604E-013  0.7246149E+02  0.7816164E-02  0.1226708E+00
        -11   -1    0    0    0    0  0.00000000000E+00  0.00000000000E+00  0.45593999997E+02  0.45594000000E+02  0.51100000000E-03 0.  1.
         11   -1    0    0    0    0 -0.00000000000E+00 -0.00000000000E+00 -0.45593999997E+02  0.45594000000E+02  0.51100000000E-03 0. -1.
    9900012    2    1    2    0    0  0.80222277559E+01 -0.31606806545E+01  0.16623355549E+02  0.72461494985E+02  0.69999901895E+02 0.  0.
         12    1    1    2    0    0 -0.80222277559E+01  0.31606806545E+01 -0.16623355549E+02  0.18726505015E+02  0.00000000000E+00 0. -1.
         11    1    3    3    0    0 -0.33015931465E+01  0.47049908855E+01 -0.77643879405E+01  0.96603921705E+01  0.51100000000E-03 0. -1.
        -11    1    3    3    0    0 -0.18032115233E+02  0.65151722814E+01  0.23190660788E+02  0.30090054797E+02  0.51100000000E-03 0.  1.
        -12    1    3    3    0    0  0.29355936135E+02 -0.14380843821E+02  0.11970827015E+01  0.32711048017E+02  0.00000000000E+00 0.  1.
</event>
<event>
 7    1  0.1692604E-013  0.7246151E+02  0.7816164E-02  0.1226708E+00
        -11   -1    0    0    0    0  0.00000000000E+00  0.00000000000E+00  0.45593999997E+02  0.45594000000E+02  0.51100000000E-03 0. -1.
         11   -1    0    0    0    0 -0.00000000000E+00 -0.00000000000E+00 -0.45593999997E+02  0.45594000000E+02  0.51100000000E-03 0.  1.
    9900012    2    1    2    0    0 -0.53489928522E+01  0.74873412034E+01 -0.16309797938E+02  0.72461507760E+02  0.69999918538E+02 0.  0.
         12    1    1    2    0    0  0.53489928522E+01 -0.74873412034E+01  0.16309797938E+02  0.18726492240E+02  0.00000000000E+00 0. -1.
         11    1    3    3    0    0  0.18926540390E+02 -0.14904641074E+02 -0.59493623514E+01  0.24814454846E+02  0.51100000000E-03 0. -1.
        -11    1    3    3    0    0  0.35309546355E+01  0.44155688657E+01  0.79922029344E+01  0.97898006646E+01  0.51100000000E-03 0.  1.
        -12    1    3    3    0    0 -0.27806487878E+02  0.17976413411E+02 -0.18352638521E+02  0.37857252250E+02  0.00000000000E+00 0.  1.
</event>
<event>
 7    1  0.1692604E-013  0.7246135E+02  0.7816164E-02  0.1226709E+00
        -11   -1    0    0    0    0  0.00000000000E+00  0.00000000000E+00  0.45593999997E+02  0.45594000000E+02  0.51100000000E-03 0. -1.
         11   -1    0    0    0    0 -0.00000000000E+00 -0.00000000000E+00 -0.45593999997E+02  0.45594000000E+02  0.51100000000E-03 0.  1.
    9900012    2    1    2    0    0  0.16645738283E+02  0.73055484199E+01 -0.44983991136E+01  0.72461354937E+02  0.69999719457E+02 0.  0.
         12    1    1    2    0    0 -0.16645738283E+02 -0.73055484199E+01  0.44983991136E+01  0.18726645063E+02  0.00000000000E+00 0. -1.
         11    1    3    3    0    0  0.18250890634E+02  0.27520288915E+02  0.57545083842E+01  0.33519780398E+02  0.51100000000E-03 0.  1.
        -11    1    3    3    0    0 -0.16555060105E+02 -0.87602674979E+01 -0.48280313479E+01  0.19342238460E+02  0.51100000000E-03 0. -1.
        -12    1    3    3    0    0  0.14949907754E+02 -0.11454472998E+02 -0.54248761499E+01  0.19599336079E+02  0.00000000000E+00 0.  1.
</event>
<event>
 7    1  0.1692604E-013  0.7246153E+02  0.7816164E-02  0.1226708E+00
        -11   -1    0    0    0    0  0.00000000000E+00  0.00000000000E+00  0.45593999997E+02  0.45594000000E+02  0.51100000000E-03 0.  1.
         11   -1    0    0    0    0 -0.00000000000E+00 -0.00000000000E+00 -0.45593999997E+02  0.45594000000E+02  0.51100000000E-03 0. -1.
    9900012    2    1    2    0    0  0.87636359618E+01 -0.11288683557E+02  0.12101441492E+02  0.72461532690E+02  0.69999951014E+02 0.  0.
         12    1    1    2    0    0 -0.87636359618E+01  0.11288683557E+02 -0.12101441492E+02  0.18726467310E+02  0.00000000000E+00 0. -1.
         11    1    3    3    0    0 -0.13176711858E+01  0.13459861843E+02 -0.15657504391E+02  0.20689649156E+02  0.51100000000E-03 0. -1.
        -11    1    3    3    0    0 -0.11978264209E+01  0.82986645223E+01  0.27618195900E+01  0.88278122260E+01  0.51100000000E-03 0.  1.
        -12    1    3    3    0    0  0.11279133568E+02 -0.33047209922E+02  0.24997126292E+02  0.42944071309E+02  0.00000000000E+00 0.  1.
</event>
<event>
 7    1  0.1692604E-013  0.7246147E+02  0.7816164E-02  0.1226708E+00
        -11   -1    0    0    0    0  0.00000000000E+00  0.00000000000E+00  0.45593999997E+02  0.45594000000E+02  0.51100000000E-03 0.  1.
         11   -1    0    0    0    0 -0.00000000000E+00 -0.00000000000E+00 -0.45593999997E+02  0.45594000000E+02  0.51100000000E-03 0. -1.
    9900012    2    1    2    0    0 -0.30274358323E+00 -0.18721228988E+02  0.32674158108E+00  0.72461472597E+02  0.69999872731E+02 0.  0.
         12    1    1    2    0    0  0.30274358323E+00  0.18721228988E+02 -0.32674158108E+00  0.18726527403E+02  0.00000000000E+00 0. -1.
         11    1    3    3    0    0 -0.61231755587E+01 -0.44865991955E+01 -0.37020104634E+00  0.75999934434E+01  0.51100000000E-03 0. -1.
        -11    1    3    3    0    0  0.62095615909E+01 -0.13368399346E+02  0.31114333688E+02  0.34429268324E+02  0.51100000000E-03 0.  1.
        -12    1    3    3    0    0 -0.38912961546E+00 -0.86623044664E+00 -0.30417391060E+02  0.30432210829E+02  0.00000000000E+00 0.  1.
</event>
<event>
 7    1  0.1692604E-013  0.7246155E+02  0.7816164E-02  0.1226708E+00
        -11   -1    0    0    0    0  0.00000000000E+00  0.00000000000E+00  0.45593999997E+02  0.45594000000E+02  0.51100000000E-03 0. -1.
         11   -1    0    0    0    0 -0.00000000000E+00 -0.00000000000E+00 -0.45593999997E+02  0.45594000000E+02  0.51100000000E-03 0.  1.
    9900012    2    1    2    0    0 -0.31498544966E+01  0.48072495559E+01 -0.17822706583E+02  0.72461545408E+02  0.69999967580E+02 0.  0.
         12    1    1    2    0    0  0.31498544966E+01 -0.48072495559E+01  0.17822706583E+02  0.18726454592E+02  0.00000000000E+00 0. -1.
         11    1    3    3    0    0 -0.46159958524E+01 -0.10989278747E+02  0.42481521409E+01  0.12653792395E+02  0.51100000000E-03 0. -1.
        -11    1    3    3    0    0  0.22772613639E+02  0.89737896245E+01  0.46951226539E+01  0.24923182163E+02  0.51100000000E-03 0.  1.
         12    1    3    3    0    0 -0.21306472283E+02  0.68227386786E+01 -0.26765981378E+02  0.34884570850E+02  0.00000000000E+00 0. -1.
</event>
<event>
 7    1  0.1692604E-013  0.7246153E+02  0.7816164E-02  0.1226708E+00
        -11   -1    0    0    0    0  0.00000000000E+00  0.00000000000E+00  0.45593999997E+02  0.45594000000E+02  0.51100000000E-03 0. -1.
         11   -1    0    0    0    0 -0.00000000000E+00 -0.00000000000E+00 -0.45593999997E+02  0.45594000000E+02  0.51100000000E-03 0.  1.
    9900012    2    1    2    0    0  0.48484024031E+01 -0.10538776512E+02 -0.14700608957E+02  0.72461528898E+02  0.69999946074E+02 0.  0.
         12    1    1    2    0    0 -0.48484024031E+01  0.10538776512E+02  0.14700608957E+02  0.18726471102E+02  0.00000000000E+00 0. -1.
         11    1    3    3    0    0 -0.51923347971E+01 -0.94128965641E+01 -0.77609705344E+01  0.13258794299E+02  0.51100000000E-03 0. -1.
        -11    1    3    3    0    0 -0.13768681823E+00  0.39002184467E+00 -0.32056674004E+02  0.32059342214E+02  0.51100000000E-03 0.  1.
         12    1    3    3    0    0  0.10178424018E+02 -0.15159017923E+01  0.25117035582E+02  0.27143392385E+02  0.00000000000E+00 0. -1.
</event>
<event>
 7    1  0.1692604E-013  0.7246156E+02  0.7816164E-02  0.1226708E+00
        -11   -1    0    0    0    0  0.00000000000E+00  0.00000000000E+00  0.45593999997E+02  0.45594000000E+02  0.51100000000E-03 0. -1.
         11   -1    0    0    0    0 -0.00000000000E+00 -0.00000000000E+00 -0.45593999997E+02  0.45594000000E+02  0.51100000000E-03 0.  1.
    9900012    2    1    2    0    0  0.49830642514E+00 -0.15180020613E+02 -0.10954376162E+02  0.72461556338E+02  0.69999981819E+02 0.  0.
         12    1    1    2    0    0 -0.49830642514E+00  0.15180020613E+02  0.10954376162E+02  0.18726443662E+02  0.00000000000E+00 0. -1.
         11    1    3    3    0    0  0.16314010406E+02 -0.37274249958E+01  0.88487762843E+01  0.18929909525E+02  0.51100000000E-03 0. -1.
        -11    1    3    3    0    0  0.91479230754E+01  0.12145627391E+02 -0.81839555894E+01  0.17267828198E+02  0.51100000000E-03 0.  1.
         12    1    3    3    0    0 -0.24963627056E+02 -0.23598223008E+02 -0.11619196857E+02  0.36263818616E+02  0.00000000000E+00 0. -1.
</event>
<event>
 7    1  0.1692604E-013  0.7246156E+02  0.7816164E-02  0.1226708E+00
        -11   -1    0    0    0    0  0.00000000000E+00  0.00000000000E+00  0.45593999997E+02  0.45594000000E+02  0.51100000000E-03 0. -1.
         11   -1    0    0    0    0 -0.00000000000E+00 -0.00000000000E+00 -0.45593999997E+02  0.45594000000E+02  0.51100000000E-03 0.  1.
    9900012    2    1    2    0    0  0.41929552440E+01  0.28662909505E+01 -0.18024517539E+02  0.72461555329E+02  0.69999980505E+02 0.  0.
         12    1    1    2    0    0 -0.41929552440E+01 -0.28662909505E+01  0.18024517539E+02  0.18726444671E+02  0.00000000000E+00 0. -1.
         11    1    3    3    0    0 -0.89875758766E+01 -0.63843932835E+01 -0.59559868009E+01  0.12530394119E+02  0.51100000000E-03 0. -1.
        -11    1    3    3    0    0  0.34934979371E+02  0.51717874068E+01 -0.13566305473E+01  0.35341768707E+02  0.51100000000E-03 0.  1.
         12    1    3    3    0    0 -0.21754448250E+02  0.40788968272E+01 -0.10711900191E+02  0.24589392504E+02  0.00000000000E+00 0. -1.
</event>
<event>
 7    1  0.1692604E-013  0.7246183E+02  0.7816164E-02  0.1226707E+00
        -11   -1    0    0    0    0  0.00000000000E+00  0.00000000000E+00  0.45593999997E+02  0.45594000000E+02  0.51100000000E-03 0.  1.
         11   -1    0    0    0    0 -0.00000000000E+00 -0.00000000000E+00 -0.45593999997E+02  0.45594000000E+02  0.51100000000E-03 0. -1.
    9900012    2    1    2    0    0 -0.62171553606E+01  0.10845075171E+02  0.13942772109E+02  0.72461826597E+02  0.70000333880E+02 0.  0.
         12    1    1    2    0    0  0.62171553606E+01 -0.10845075171E+02 -0.13942772109E+02  0.18726173403E+02  0.00000000000E+00 0. -1.
         11    1    3    3    0    0  0.22496972415E+01  0.14244066131E+00  0.44156431425E+01  0.49577546978E+01  0.51100000000E-03 0. -1.
        -11    1    3    3    0    0  0.23651463599E+02  0.19102435833E+02  0.14927385922E+02  0.33869184163E+02  0.51100000000E-03 0.  1.
         12    1    3    3    0    0 -0.32118316201E+02 -0.83998013228E+01 -0.54002569557E+01  0.33634887736E+02  0.00000000000E+00 0. -1.
</event>
<event>
 7    1  0.1692604E-013  0.7246160E+02  0.7816164E-02  0.1226708E+00
        -11   -1    0    0    0    0  0.00000000000E+00  0.00000000000E+00  0.45593999997E+02  0.45594000000E+02  0.51100000000E-03 0.  1.
         11   -1    0    0    0    0 -0.00000000000E+00 -0.00000000000E+00 -0.45593999997E+02  0.45594000000E+02  0.51100000000E-03 0. -1.
    9900012    2    1    2    0    0  0.33128704096E+01 -0.17699151406E+02  0.51422614686E+01  0.72461603554E+02  0.70000043327E+02 0.  0.
         12    1    1    2    0    0 -0.33128704096E+01  0.17699151406E+02 -0.51422614686E+01  0.18726396446E+02  0.00000000000E+00 0. -1.
         11    1    3    3    0    0 -0.17904268931E+02 -0.18963507545E+02 -0.87710378190E+01  0.27515605918E+02  0.51100000000E-03 0. -1.
        -11    1    3    3    0    0 -0.74546451483E+01  0.10259606979E+02  0.37676543078E+01  0.13229757703E+02  0.51100000000E-03 0.  1.
        -12    1    3    3    0    0  0.28671784489E+02 -0.89952508394E+01  0.10145644980E+02  0.31716239933E+02  0.00000000000E+00 0.  1.
</event>
<event>
 7    1  0.1692604E-013  0.7246159E+02  0.7816164E-02  0.1226708E+00
        -11   -1    0    0    0    0  0.00000000000E+00  0.00000000000E+00  0.45593999997E+02  0.45594000000E+02  0.51100000000E-03 0.  1.
         11   -1    0    0    0    0 -0.00000000000E+00 -0.00000000000E+00 -0.45593999997E+02  0.45594000000E+02  0.51100000000E-03 0. -1.
    9900012    2    1    2    0    0 -0.87275996486E+01  0.10772614855E+02  0.12588016963E+02  0.72461590908E+02  0.70000026853E+02 0.  0.
         12    1    1    2    0    0  0.87275996486E+01 -0.10772614855E+02 -0.12588016963E+02  0.18726409092E+02  0.00000000000E+00 0. -1.
         11    1    3    3    0    0 -0.51915885936E+01 -0.13905225203E+02 -0.12884078472E+01  0.14898586346E+02  0.51100000000E-03 0. -1.
        -11    1    3    3    0    0 -0.12313235862E+02 -0.57936344547E+01  0.21036512873E+02  0.25054278112E+02  0.51100000000E-03 0.  1.
        -12    1    3    3    0    0  0.87772248068E+01  0.30471474513E+02 -0.71600880637E+01  0.32508726450E+02  0.00000000000E+00 0.  1.
</event>
<event>
 7    1  0.1692604E-013  0.7246168E+02  0.7816164E-02  0.1226708E+00
        -11   -1    0    0    0    0  0.00000000000E+00  0.00000000000E+00  0.45593999997E+02  0.45594000000E+02  0.51100000000E-03 0. -1.
         11   -1    0    0    0    0 -0.00000000000E+00 -0.00000000000E+00 -0.45593999997E+02  0.45594000000E+02  0.51100000000E-03 0.  1.
    9900012    2    1    2    0    0  0.29833771418E+01  0.14909343823E+02 -0.10930971612E+02  0.72461675940E+02  0.70000137623E+02 0.  0.
         12    1    1    2    0    0 -0.29833771418E+01 -0.14909343823E+02  0.10930971612E+02  0.18726324060E+02  0.00000000000E+00 0. -1.
         11    1    3    3    0    0 -0.10809237132E+02  0.10151001923E+02  0.87581915546E+01  0.17221741114E+02  0.51100000000E-03 0. -1.
        -11    1    3    3    0    0 -0.10509643351E+02  0.18904115796E+02 -0.15947440177E+02  0.26872644936E+02  0.51100000000E-03 0.  1.
         12    1    3    3    0    0  0.24302257625E+02 -0.14145773896E+02 -0.37417229899E+01  0.28367289890E+02  0.00000000000E+00 0. -1.
</event>
<event>
 7    1  0.1692604E-013  0.7246144E+02  0.7816164E-02  0.1226708E+00
        -11   -1    0    0    0    0  0.00000000000E+00  0.00000000000E+00  0.45593999997E+02  0.45594000000E+02  0.51100000000E-03 0. -1.
         11   -1    0    0    0    0 -0.00000000000E+00 -0.00000000000E+00 -0.45593999997E+02  0.45594000000E+02  0.51100000000E-03 0.  1.
    9900012    2    1    2    0    0  0.85453219976E+01 -0.55373609184E+01 -0.15716208853E+02  0.72461438258E+02  0.69999827998E+02 0.  0.
         12    1    1    2    0    0 -0.85453219976E+01  0.55373609184E+01  0.15716208853E+02  0.18726561742E+02  0.00000000000E+00 0. -1.
         11    1    3    3    0    0 -0.90481216817E+01 -0.20896369657E+02 -0.11337381616E+02  0.25437432909E+02  0.51100000000E-03 0. -1.
        -11    1    3    3    0    0  0.10868150269E+02 -0.95122024598E+01  0.99543352925E+01  0.17541022698E+02  0.51100000000E-03 0.  1.
        -12    1    3    3    0    0  0.67252934102E+01  0.24871211199E+02 -0.14333162529E+02  0.29482982651E+02  0.00000000000E+00 0.  1.
</event>
<event>
 7    1  0.1692604E-013  0.7246155E+02  0.7816164E-02  0.1226708E+00
        -11   -1    0    0    0    0  0.00000000000E+00  0.00000000000E+00  0.45593999997E+02  0.45594000000E+02  0.51100000000E-03 0.  1.
         11   -1    0    0    0    0 -0.00000000000E+00 -0.00000000000E+00 -0.45593999997E+02  0.45594000000E+02  0.51100000000E-03 0. -1.
    9900012    2    1    2    0    0  0.17571487166E+02 -0.11464071205E-02 -0.64747663054E+01  0.72461554495E+02  0.69999979419E+02 0.  0.
         12    1    1    2    0    0 -0.17571487166E+02  0.11464071205E-02  0.64747663054E+01  0.18726445505E+02  0.00000000000E+00 0. -1.
         11    1    3    3    0    0 -0.25753112312E+01  0.13500626620E+02 -0.22900040010E+02  0.26707882353E+02  0.51100000000E-03 0. -1.
        -11    1    3    3    0    0  0.76618115558E+01  0.10666271772E+02  0.12750303860E+02  0.18304178720E+02  0.51100000000E-03 0.  1.
         12    1    3    3    0    0  0.12484986841E+02 -0.24168044798E+02  0.36749698446E+01  0.27449493423E+02  0.00000000000E+00 0. -1.
</event>
<event>
 7    1  0.1692604E-013  0.7246156E+02  0.7816164E-02  0.1226708E+00
        -11   -1    0    0    0    0  0.00000000000E+00  0.00000000000E+00  0.45593999997E+02  0.45594000000E+02  0.51100000000E-03 0. -1.
         11   -1    0    0    0    0 -0.00000000000E+00 -0.00000000000E+00 -0.45593999997E+02  0.45594000000E+02  0.51100000000E-03 0.  1.
    9900012    2    1    2    0    0  0.11972851214E+02 -0.14380275809E+02  0.73362233101E+00  0.72461556124E+02  0.69999981540E+02 0.  0.
         12    1    1    2    0    0 -0.11972851214E+02  0.14380275809E+02 -0.73362233101E+00  0.18726443876E+02  0.00000000000E+00 0. -1.
         11    1    3    3    0    0  0.10223711899E+02  0.17167218578E+01  0.14603377412E+02  0.17908937742E+02  0.51100000000E-03 0. -1.
        -11    1    3    3    0    0 -0.54143865615E+01 -0.31263882975E+02  0.15518332484E+01  0.31767186643E+02  0.51100000000E-03 0.  1.
         12    1    3    3    0    0  0.71635258761E+01  0.15166885308E+02 -0.15421588329E+02  0.22785431739E+02  0.00000000000E+00 0. -1.
</event>
<event>
 7    1  0.1692604E-013  0.7246158E+02  0.7816164E-02  0.1226708E+00
        -11   -1    0    0    0    0  0.00000000000E+00  0.00000000000E+00  0.45593999997E+02  0.45594000000E+02  0.51100000000E-03 0.  1.
         11   -1    0    0    0    0 -0.00000000000E+00 -0.00000000000E+00 -0.45593999997E+02  0.45594000000E+02  0.51100000000E-03 0. -1.
    9900012    2    1    2    0    0  0.12007285005E+02 -0.12055413271E+02  0.78211723372E+01  0.72461584992E+02  0.70000019147E+02 0.  0.
         12    1    1    2    0    0 -0.12007285005E+02  0.12055413271E+02 -0.78211723372E+01  0.18726415008E+02  0.00000000000E+00 0. -1.
         11    1    3    3    0    0  0.17077702493E+02  0.98052991851E+00  0.12397003536E+02  0.21125696635E+02  0.51100000000E-03 0. -1.
        -11    1    3    3    0    0 -0.16892768751E+02  0.61429278659E+01  0.13476383029E+02  0.22465842932E+02  0.51100000000E-03 0.  1.
         12    1    3    3    0    0  0.11822351263E+02 -0.19178871055E+02 -0.18052214228E+02  0.28870045425E+02  0.00000000000E+00 0. -1.
</event>
<event>
 7    1  0.1692604E-013  0.7246161E+02  0.7816164E-02  0.1226708E+00
        -11   -1    0    0    0    0  0.00000000000E+00  0.00000000000E+00  0.45593999997E+02  0.45594000000E+02  0.51100000000E-03 0.  1.
         11   -1    0    0    0    0 -0.00000000000E+00 -0.00000000000E+00 -0.45593999997E+02  0.45594000000E+02  0.51100000000E-03 0. -1.
    9900012    2    1    2    0    0  0.16224123673E+02  0.69372372092E+01  0.62713949297E+01  0.72461605701E+02  0.70000046124E+02 0.  0.
         12    1    1    2    0    0 -0.16224123673E+02 -0.69372372092E+01 -0.62713949297E+01  0.18726394299E+02  0.00000000000E+00 0. -1.
         11    1    3    3    0    0  0.17614795580E+02 -0.18432166597E+02  0.10619135715E+02  0.27618686290E+02  0.51100000000E-03 0. -1.
        -11    1    3    3    0    0 -0.13256045210E+02  0.21811176440E+01  0.83988387407E+01  0.15843626518E+02  0.51100000000E-03 0.  1.
        -12    1    3    3    0    0  0.11865373303E+02  0.23188286162E+02 -0.12746579526E+02  0.28999292894E+02  0.00000000000E+00 0.  1.
</event>
<event>
 7    1  0.1692604E-013  0.7246159E+02  0.7816164E-02  0.1226708E+00
        -11   -1    0    0    0    0  0.00000000000E+00  0.00000000000E+00  0.45593999997E+02  0.45594000000E+02  0.51100000000E-03 0. -1.
         11   -1    0    0    0    0 -0.00000000000E+00 -0.00000000000E+00 -0.45593999997E+02  0.45594000000E+02  0.51100000000E-03 0.  1.
    9900012    2    1    2    0    0  0.72857788024E+01 -0.14018204531E+02 -0.10054148537E+02  0.72461587267E+02  0.70000022110E+02 0.  0.
         12    1    1    2    0    0 -0.72857788024E+01  0.14018204531E+02  0.10054148537E+02  0.18726412733E+02  0.00000000000E+00 0. -1.
         11    1    3    3    0    0 -0.15591239867E+02  0.35218216801E+00  0.11918215004E+02  0.19627904677E+02  0.51100000000E-03 0. -1.
        -11    1    3    3    0    0  0.31572290656E+01 -0.15586243896E+02  0.73155840343E+01  0.17504766899E+02  0.51100000000E-03 0.  1.
        -12    1    3    3    0    0  0.19719789603E+02  0.12158571968E+01 -0.29287947576E+02  0.35328915692E+02  0.00000000000E+00 0.  1.
</event>
<event>
 7    1  0.1692604E-013  0.7246156E+02  0.7816164E-02  0.1226708E+00
        -11   -1    0    0    0    0  0.00000000000E+00  0.00000000000E+00  0.45593999997E+02  0.45594000000E+02  0.51100000000E-03 0. -1.
         11   -1    0    0    0    0 -0.00000000000E+00 -0.00000000000E+00 -0.45593999997E+02  0.45594000000E+02  0.51100000000E-03 0.  1.
    9900012    2    1    2    0    0  0.16164062175E+02  0.91833420864E+00 -0.94105897081E+01  0.72461563009E+02  0.69999990509E+02 0.  0.
         12    1    1    2    0    0 -0.16164062175E+02 -0.91833420864E+00  0.94105897081E+01  0.18726436991E+02  0.00000000000E+00 0. -1.
         11    1    3    3    0    0  0.94452303108E+01  0.13937094478E+02 -0.92470805797E+01  0.19208422049E+02  0.51100000000E-03 0. -1.
        -11    1    3    3    0    0 -0.46348152845E+01  0.17960455877E+02  0.63818019036E+01  0.19615985415E+02  0.51100000000E-03 0.  1.
        -12    1    3    3    0    0  0.11353647149E+02 -0.30979216146E+02 -0.65453110321E+01  0.33637155544E+02  0.00000000000E+00 0.  1.
</event>
<event>
 7    1  0.1692604E-013  0.7246191E+02  0.7816164E-02  0.1226707E+00
        -11   -1    0    0    0    0  0.00000000000E+00  0.00000000000E+00  0.45593999997E+02  0.45594000000E+02  0.51100000000E-03 0.  1.
         11   -1    0    0    0    0 -0.00000000000E+00 -0.00000000000E+00 -0.45593999997E+02  0.45594000000E+02  0.51100000000E-03 0. -1.
    9900012    2    1    2    0    0 -0.11549495431E+02 -0.70491069975E+01  0.12945486306E+02  0.72461912051E+02  0.70000445200E+02 0.  0.
         12    1    1    2    0    0  0.11549495431E+02  0.70491069975E+01 -0.12945486306E+02  0.18726087949E+02  0.00000000000E+00 0. -1.
         11    1    3    3    0    0  0.97962766382E+01 -0.17961457358E+01 -0.24467993267E+02  0.26417340333E+02  0.51100000000E-03 0. -1.
        -11    1    3    3    0    0 -0.15017195041E+01  0.38772202782E+01  0.24723070411E+01  0.48373857528E+01  0.51100000000E-03 0.  1.
        -12    1    3    3    0    0 -0.19844052565E+02 -0.91301815399E+01  0.34941172533E+02  0.41207185965E+02  0.00000000000E+00 0.  1.
</event>
<event>
 7    1  0.1692604E-013  0.7246151E+02  0.7816164E-02  0.1226708E+00
        -11   -1    0    0    0    0  0.00000000000E+00  0.00000000000E+00  0.45593999997E+02  0.45594000000E+02  0.51100000000E-03 0.  1.
         11   -1    0    0    0    0 -0.00000000000E+00 -0.00000000000E+00 -0.45593999997E+02  0.45594000000E+02  0.51100000000E-03 0. -1.
    9900012    2    1    2    0    0  0.49987382196E+01 -0.83411457878E+01  0.16003734440E+02  0.72461505056E+02  0.69999915015E+02 0.  0.
         12    1    1    2    0    0 -0.49987382196E+01  0.83411457878E+01 -0.16003734440E+02  0.18726494944E+02  0.00000000000E+00 0. -1.
         11    1    3    3    0    0  0.83559124761E+01  0.15401121829E+01 -0.10734927382E+02  0.13690576503E+02  0.51100000000E-03 0. -1.
        -11    1    3    3    0    0 -0.49067574505E+01 -0.18440887340E+02 -0.96311924428E+01  0.21375276904E+02  0.51100000000E-03 0.  1.
         12    1    3    3    0    0  0.15495831940E+01  0.85596293697E+01  0.36369854265E+02  0.37395651649E+02  0.00000000000E+00 0. -1.
</event>
<event>
 7    1  0.1692604E-013  0.7246157E+02  0.7816164E-02  0.1226708E+00
        -11   -1    0    0    0    0  0.00000000000E+00  0.00000000000E+00  0.45593999997E+02  0.45594000000E+02  0.51100000000E-03 0. -1.
         11   -1    0    0    0    0 -0.00000000000E+00 -0.00000000000E+00 -0.45593999997E+02  0.45594000000E+02  0.51100000000E-03 0.  1.
    9900012    2    1    2    0    0 -0.12500944079E+02  0.12491239686E+02 -0.61947025386E+01  0.72461574519E+02  0.70000005503E+02 0.  0.
         12    1    1    2    0    0  0.12500944079E+02 -0.12491239686E+02  0.61947025386E+01  0.18726425481E+02  0.00000000000E+00 0. -1.
         11    1    3    3    0    0  0.30006927021E+01 -0.79777943990E+01  0.35774914082E+01  0.92437982021E+01  0.51100000000E-03 0. -1.
        -11    1    3    3    0    0  0.20460045348E+02  0.15806803026E+02 -0.82623988898E+00  0.25867956049E+02  0.51100000000E-03 0.  1.
         12    1    3    3    0    0 -0.35961682129E+02  0.46622310597E+01 -0.89459540578E+01  0.37349820267E+02  0.00000000000E+00 0. -1.
</event>
<event>
 7    1  0.1692604E-013  0.7246159E+02  0.7816164E-02  0.1226708E+00
        -11   -1    0    0    0    0  0.00000000000E+00  0.00000000000E+00  0.45593999997E+02  0.45594000000E+02  0.51100000000E-03 0. -1.
         11   -1    0    0    0    0 -0.00000000000E+00 -0.00000000000E+00 -0.45593999997E+02  0.45594000000E+02  0.51100000000E-03 0.  1.
    9900012    2    1    2    0    0 -0.12800668261E+02  0.77194260641E+01 -0.11279699819E+02  0.72461594186E+02  0.70000031123E+02 0.  0.
         12    1    1    2    0    0  0.12800668261E+02 -0.77194260641E+01  0.11279699819E+02  0.18726405814E+02  0.00000000000E+00 0. -1.
         11    1    3    3    0    0 -0.16131313115E+02  0.17967129213E+02  0.15527226708E+02  0.28707695214E+02  0.51100000000E-03 0. -1.
        -11    1    3    3    0    0 -0.76705247822E+01  0.35193544872E+01  0.31416563764E+01  0.90051547177E+01  0.51100000000E-03 0.  1.
        -12    1    3    3    0    0  0.11001169636E+02 -0.13767057636E+02 -0.29948582904E+02  0.34748744255E+02  0.00000000000E+00 0.  1.
</event>
<event>
 7    1  0.1692604E-013  0.7246153E+02  0.7816164E-02  0.1226708E+00
        -11   -1    0    0    0    0  0.00000000000E+00  0.00000000000E+00  0.45593999997E+02  0.45594000000E+02  0.51100000000E-03 0.  1.
         11   -1    0    0    0    0 -0.00000000000E+00 -0.00000000000E+00 -0.45593999997E+02  0.45594000000E+02  0.51100000000E-03 0. -1.
    9900012    2    1    2    0    0 -0.17222492022E+02 -0.24173239399E+00  0.73490259569E+01  0.72461525465E+02  0.69999941602E+02 0.  0.
         12    1    1    2    0    0  0.17222492022E+02  0.24173239399E+00 -0.73490259569E+01  0.18726474535E+02  0.00000000000E+00 0. -1.
         11    1    3    3    0    0  0.30339923268E+01  0.26141494240E+01 -0.79063578943E+01  0.88628089262E+01  0.51100000000E-03 0. -1.
        -11    1    3    3    0    0 -0.27999380551E+02  0.85605613461E+01 -0.13092447339E+02  0.32072740752E+02  0.51100000000E-03 0.  1.
        -12    1    3    3    0    0  0.77428962022E+01 -0.11416443164E+02  0.28347831190E+02  0.31525975786E+02  0.00000000000E+00 0.  1.
</event>
<event>
 7    1  0.1692604E-013  0.7246162E+02  0.7816164E-02  0.1226708E+00
        -11   -1    0    0    0    0  0.00000000000E+00  0.00000000000E+00  0.45593999997E+02  0.45594000000E+02  0.51100000000E-03 0.  1.
         11   -1    0    0    0    0 -0.00000000000E+00 -0.00000000000E+00 -0.45593999997E+02  0.45594000000E+02  0.51100000000E-03 0. -1.
    9900012    2    1    2    0    0 -0.17146357262E+01  0.11533511716E+02  0.14653173421E+02  0.72461618622E+02  0.70000062956E+02 0.  0.
         12    1    1    2    0    0  0.17146357262E+01 -0.11533511716E+02 -0.14653173421E+02  0.18726381378E+02  0.00000000000E+00 0. -1.
         11    1    3    3    0    0  0.70892645265E+01 -0.11900158034E+02  0.27848444332E-01  0.13851794416E+02  0.51100000000E-03 0. -1.
        -11    1    3    3    0    0  0.13734156664E+02 -0.91941858297E+01  0.57010947034E+00  0.16537386051E+02  0.51100000000E-03 0.  1.
         12    1    3    3    0    0 -0.22538056917E+02  0.32627855580E+02  0.14055215507E+02  0.42072438155E+02  0.00000000000E+00 0. -1.
</event>
<event>
 7    1  0.1692604E-013  0.7246157E+02  0.7816164E-02  0.1226708E+00
        -11   -1    0    0    0    0  0.00000000000E+00  0.00000000000E+00  0.45593999997E+02  0.45594000000E+02  0.51100000000E-03 0.  1.
         11   -1    0    0    0    0 -0.00000000000E+00 -0.00000000000E+00 -0.45593999997E+02  0.45594000000E+02  0.51100000000E-03 0. -1.
    9900012    2    1    2    0    0  0.10959773872E+02 -0.56705380598E+01  0.14085718027E+02  0.72461572216E+02  0.70000002503E+02 0.  0.
         12    1    1    2    0    0 -0.10959773872E+02  0.56705380598E+01 -0.14085718027E+02  0.18726427784E+02  0.00000000000E+00 0. -1.
         11    1    3    3    0    0  0.87469411929E+01 -0.30245635158E+02 -0.18496630271E+01  0.31539319585E+02  0.51100000000E-03 0. -1.
        -11    1    3    3    0    0  0.20069500169E+01 -0.62962273375E+01  0.45247670471E+01  0.80089852134E+01  0.51100000000E-03 0.  1.
         12    1    3    3    0    0  0.20588266259E+00  0.30871324435E+02  0.11410614007E+02  0.32913267417E+02  0.00000000000E+00 0. -1.
</event>
<event>
 7    1  0.1692604E-013  0.7246154E+02  0.7816164E-02  0.1226708E+00
        -11   -1    0    0    0    0  0.00000000000E+00  0.00000000000E+00  0.45593999997E+02  0.45594000000E+02  0.51100000000E-03 0. -1.
         11   -1    0    0    0    0 -0.00000000000E+00 -0.00000000000E+00 -0.45593999997E+02  0.45594000000E+02  0.51100000000E-03 0.  1.
    9900012    2    1    2    0    0 -0.67673899227E+01  0.15627139995E+02  0.77894325570E+01  0.72461539300E+02  0.69999959624E+02 0.  0.
         12    1    1    2    0    0  0.67673899227E+01 -0.15627139995E+02 -0.77894325570E+01  0.18726460700E+02  0.00000000000E+00 0. -1.
         11    1    3    3    0    0  0.13406816357E+02  0.24493474042E+02 -0.15871152483E+02  0.32118008607E+02  0.51100000000E-03 0. -1.
        -11    1    3    3    0    0 -0.45049307322E+01  0.19901062073E+01 -0.42764100758E+01  0.65224693956E+01  0.51100000000E-03 0.  1.
        -12    1    3    3    0    0 -0.15669275547E+02 -0.10856440254E+02  0.27936995116E+02  0.33821061298E+02  0.00000000000E+00 0.  1.
</event>
<event>
 7    1  0.1692604E-013  0.7246162E+02  0.7816164E-02  0.1226708E+00
        -11   -1    0    0    0    0  0.00000000000E+00  0.00000000000E+00  0.45593999997E+02  0.45594000000E+02  0.51100000000E-03 0.  1.
         11   -1    0    0    0    0 -0.00000000000E+00 -0.00000000000E+00 -0.45593999997E+02  0.45594000000E+02  0.51100000000E-03 0. -1.
    9900012    2    1    2    0    0 -0.29549336995E+01 -0.65740548064E+01 -0.17283730873E+02  0.72461623344E+02  0.70000069107E+02 0.  0.
         12    1    1    2    0    0  0.29549336995E+01  0.65740548064E+01  0.17283730873E+02  0.18726376656E+02  0.00000000000E+00 0. -1.
         11    1    3    3    0    0 -0.32728147149E+00  0.31826552533E+01  0.18182346007E+01  0.36799979548E+01  0.51100000000E-03 0. -1.
        -11    1    3    3    0    0  0.93769903029E+01  0.14434781082E+02  0.16668665467E+02  0.23961119772E+02  0.51100000000E-03 0.  1.
        -12    1    3    3    0    0 -0.12004642531E+02 -0.24191491141E+02 -0.35770630940E+02  0.44820505618E+02  0.00000000000E+00 0.  1.
</event>
<event>
 7    1  0.1692604E-013  0.7246162E+02  0.7816164E-02  0.1226708E+00
        -11   -1    0    0    0    0  0.00000000000E+00  0.00000000000E+00  0.45593999997E+02  0.45594000000E+02  0.51100000000E-03 0.  1.
         11   -1    0    0    0    0 -0.00000000000E+00 -0.00000000000E+00 -0.45593999997E+02  0.45594000000E+02  0.51100000000E-03 0. -1.
    9900012    2    1    2    0    0 -0.68110285275E+01 -0.16538871095E+02  0.55455381754E+01  0.72461618600E+02  0.70000062927E+02 0.  0.
         12    1    1    2    0    0  0.68110285275E+01  0.16538871095E+02 -0.55455381754E+01  0.18726381400E+02  0.00000000000E+00 0. -1.
         11    1    3    3    0    0 -0.13287512464E+02 -0.14464369681E+02 -0.53394365056E+01  0.20354005999E+02  0.51100000000E-03 0. -1.
        -11    1    3    3    0    0 -0.79786575822E+01 -0.10656673262E+02 -0.15742972230E+02  0.20617100590E+02  0.51100000000E-03 0.  1.
        -12    1    3    3    0    0  0.14455141519E+02  0.85821718482E+01  0.26627946911E+02  0.31490512011E+02  0.00000000000E+00 0.  1.
</event>
<event>
 7    1  0.1692604E-013  0.7246155E+02  0.7816164E-02  0.1226708E+00
        -11   -1    0    0    0    0  0.00000000000E+00  0.00000000000E+00  0.45593999997E+02  0.45594000000E+02  0.51100000000E-03 0. -1.
         11   -1    0    0    0    0 -0.00000000000E+00 -0.00000000000E+00 -0.45593999997E+02  0.45594000000E+02  0.51100000000E-03 0.  1.
    9900012    2    1    2    0    0 -0.71978161677E+01 -0.96461713230E+01 -0.14346527277E+02  0.72461547488E+02  0.69999970291E+02 0.  0.
         12    1    1    2    0    0  0.71978161677E+01  0.96461713230E+01  0.14346527277E+02  0.18726452512E+02  0.00000000000E+00 0. -1.
         11    1    3    3    0    0 -0.35169473909E+01 -0.17902539886E+01 -0.99604273846E+01  0.10713731481E+02  0.51100000000E-03 0. -1.
        -11    1    3    3    0    0 -0.75755955400E+01 -0.96156568931E+01 -0.31762520300E+02  0.34039803192E+02  0.51100000000E-03 0.  1.
         12    1    3    3    0    0  0.38947267632E+01  0.17597395587E+01  0.27376420407E+02  0.27708012816E+02  0.00000000000E+00 0. -1.
</event>
<event>
 7    1  0.1692604E-013  0.7246155E+02  0.7816164E-02  0.1226708E+00
        -11   -1    0    0    0    0  0.00000000000E+00  0.00000000000E+00  0.45593999997E+02  0.45594000000E+02  0.51100000000E-03 0.  1.
         11   -1    0    0    0    0 -0.00000000000E+00 -0.00000000000E+00 -0.45593999997E+02  0.45594000000E+02  0.51100000000E-03 0. -1.
    9900012    2    1    2    0    0 -0.16057238771E+02 -0.80260184685E+00 -0.96021365930E+01  0.72461545081E+02  0.69999967155E+02 0.  0.
         12    1    1    2    0    0  0.16057238771E+02  0.80260184685E+00  0.96021365930E+01  0.18726454919E+02  0.00000000000E+00 0. -1.
         11    1    3    3    0    0 -0.85279296520E+01 -0.92667943991E+01 -0.13290742231E+02  0.18309639316E+02  0.51100000000E-03 0. -1.
        -11    1    3    3    0    0 -0.19319858521E+02 -0.58837047478E+01  0.20733967090E+02  0.28944296613E+02  0.51100000000E-03 0.  1.
         12    1    3    3    0    0  0.11790549403E+02  0.14347897300E+02 -0.17045361452E+02  0.25207609152E+02  0.00000000000E+00 0. -1.
</event>
<event>
 7    1  0.1692604E-013  0.7246160E+02  0.7816164E-02  0.1226708E+00
        -11   -1    0    0    0    0  0.00000000000E+00  0.00000000000E+00  0.45593999997E+02  0.45594000000E+02  0.51100000000E-03 0. -1.
         11   -1    0    0    0    0 -0.00000000000E+00 -0.00000000000E+00 -0.45593999997E+02  0.45594000000E+02  0.51100000000E-03 0.  1.
    9900012    2    1    2    0    0 -0.71524683294E+01  0.37040402908E+01 -0.16905635026E+02  0.72461595825E+02  0.70000033259E+02 0.  0.
         12    1    1    2    0    0  0.71524683294E+01 -0.37040402908E+01  0.16905635026E+02  0.18726404175E+02  0.00000000000E+00 0. -1.
         11    1    3    3    0    0 -0.17063125289E+02 -0.22241238652E+02 -0.12650439112E+02  0.30754780952E+02  0.51100000000E-03 0. -1.
        -11    1    3    3    0    0 -0.21208492933E+01 -0.58861878291E+01 -0.44485059305E+01  0.76768752862E+01  0.51100000000E-03 0.  1.
        -12    1    3    3    0    0  0.12031506253E+02  0.31831466771E+02  0.19331001680E+00  0.34029939587E+02  0.00000000000E+00 0.  1.
</event>
<event>
 7    1  0.1692604E-013  0.7246159E+02  0.7816164E-02  0.1226708E+00
        -11   -1    0    0    0    0  0.00000000000E+00  0.00000000000E+00  0.45593999997E+02  0.45594000000E+02  0.51100000000E-03 0.  1.
         11   -1    0    0    0    0 -0.00000000000E+00 -0.00000000000E+00 -0.45593999997E+02  0.45594000000E+02  0.51100000000E-03 0. -1.
    9900012    2    1    2    0    0  0.10384902467E+02  0.16237940649E+01  0.15498239516E+02  0.72461592590E+02  0.70000029044E+02 0.  0.
         12    1    1    2    0    0 -0.10384902467E+02 -0.16237940649E+01 -0.15498239516E+02  0.18726407410E+02  0.00000000000E+00 0. -1.
         11    1    3    3    0    0  0.42192519161E+01 -0.23370153225E+02 -0.15176286625E+02  0.28183076916E+02  0.51100000000E-03 0. -1.
        -11    1    3    3    0    0  0.15707171837E+01 -0.28218355512E+01  0.10815127611E+01  0.34058153888E+01  0.51100000000E-03 0.  1.
        -12    1    3    3    0    0  0.45949333676E+01  0.27815782841E+02  0.29593013379E+02  0.40872700285E+02  0.00000000000E+00 0.  1.
</event>
<event>
 7    1  0.1692604E-013  0.7246158E+02  0.7816164E-02  0.1226708E+00
        -11   -1    0    0    0    0  0.00000000000E+00  0.00000000000E+00  0.45593999997E+02  0.45594000000E+02  0.51100000000E-03 0.  1.
         11   -1    0    0    0    0 -0.00000000000E+00 -0.00000000000E+00 -0.45593999997E+02  0.45594000000E+02  0.51100000000E-03 0. -1.
    9900012    2    1    2    0    0 -0.41769464398E+01  0.18254637901E+02  0.15706658763E-01  0.72461576605E+02  0.70000008221E+02 0.  0.
         12    1    1    2    0    0  0.41769464398E+01 -0.18254637901E+02 -0.15706658763E-01  0.18726423395E+02  0.00000000000E+00 0. -1.
         11    1    3    3    0    0  0.14667873168E+01 -0.17497142288E+02  0.11499544484E+02  0.20989068033E+02  0.51100000000E-03 0. -1.
        -11    1    3    3    0    0 -0.84904965375E+01 -0.22926456804E+01  0.47685348142E+01  0.10004183135E+02  0.51100000000E-03 0.  1.
        -12    1    3    3    0    0  0.28467627809E+01  0.38044425870E+02 -0.16252372640E+02  0.41468325437E+02  0.00000000000E+00 0.  1.
</event>
<event>
 7    1  0.1692604E-013  0.7246157E+02  0.7816164E-02  0.1226708E+00
        -11   -1    0    0    0    0  0.00000000000E+00  0.00000000000E+00  0.45593999997E+02  0.45594000000E+02  0.51100000000E-03 0. -1.
         11   -1    0    0    0    0 -0.00000000000E+00 -0.00000000000E+00 -0.45593999997E+02  0.45594000000E+02  0.51100000000E-03 0.  1.
    9900012    2    1    2    0    0 -0.16942130814E+02  0.14102135734E+01 -0.78520492584E+01  0.72461570111E+02  0.69999999761E+02 0.  0.
         12    1    1    2    0    0  0.16942130814E+02 -0.14102135734E+01  0.78520492584E+01  0.18726429889E+02  0.00000000000E+00 0. -1.
         11    1    3    3    0    0 -0.16053780891E+02 -0.66117333397E+01  0.15945469924E+01  0.17435064640E+02  0.51100000000E-03 0. -1.
        -11    1    3    3    0    0 -0.13144791616E+02  0.83704938613E+01 -0.28433882473E+02  0.32424317832E+02  0.51100000000E-03 0.  1.
         12    1    3    3    0    0  0.12256441693E+02 -0.34854694824E+00  0.18987286222E+02  0.22602187639E+02  0.00000000000E+00 0. -1.
</event>
<event>
 7    1  0.1692604E-013  0.7246148E+02  0.7816164E-02  0.1226708E+00
        -11   -1    0    0    0    0  0.00000000000E+00  0.00000000000E+00  0.45593999997E+02  0.45594000000E+02  0.51100000000E-03 0. -1.
         11   -1    0    0    0    0 -0.00000000000E+00 -0.00000000000E+00 -0.45593999997E+02  0.45594000000E+02  0.51100000000E-03 0.  1.
    9900012    2    1    2    0    0 -0.13808702392E+02  0.59506872237E+00 -0.12635202399E+02  0.72461475812E+02  0.69999876919E+02 0.  0.
         12    1    1    2    0    0  0.13808702392E+02 -0.59506872237E+00  0.12635202399E+02  0.18726524188E+02  0.00000000000E+00 0. -1.
         11    1    3    3    0    0 -0.18346190494E+01 -0.80947680323E+01  0.31824325994E+01  0.88892617277E+01  0.51100000000E-03 0. -1.
        -11    1    3    3    0    0 -0.25104288623E+02  0.42162481803E+01  0.15161756986E+02  0.29629055522E+02  0.51100000000E-03 0.  1.
         12    1    3    3    0    0  0.13130205281E+02  0.44735885744E+01 -0.30979391984E+02  0.33943158561E+02  0.00000000000E+00 0. -1.
</event>
<event>
 7    1  0.1692604E-013  0.7246158E+02  0.7816164E-02  0.1226708E+00
        -11   -1    0    0    0    0  0.00000000000E+00  0.00000000000E+00  0.45593999997E+02  0.45594000000E+02  0.51100000000E-03 0. -1.
         11   -1    0    0    0    0 -0.00000000000E+00 -0.00000000000E+00 -0.45593999997E+02  0.45594000000E+02  0.51100000000E-03 0.  1.
    9900012    2    1    2    0    0  0.11937888295E+02  0.77977993343E+01 -0.12139192889E+02  0.72461578682E+02  0.70000010926E+02 0.  0.
         12    1    1    2    0    0 -0.11937888295E+02 -0.77977993343E+01  0.12139192889E+02  0.18726421318E+02  0.00000000000E+00 0. -1.
         11    1    3    3    0    0 -0.41626324825E+01 -0.49676213982E+01 -0.33839733659E+01  0.73113642737E+01  0.51100000000E-03 0. -1.
        -11    1    3    3    0    0 -0.63348431463E+01  0.10101889722E+02 -0.31140612602E+02  0.33345406987E+02  0.51100000000E-03 0.  1.
         12    1    3    3    0    0  0.22435363924E+02  0.26635310105E+01  0.22385393079E+02  0.31804807421E+02  0.00000000000E+00 0. -1.
</event>
<event>
 7    1  0.1692604E-013  0.7246160E+02  0.7816164E-02  0.1226708E+00
        -11   -1    0    0    0    0  0.00000000000E+00  0.00000000000E+00  0.45593999997E+02  0.45594000000E+02  0.51100000000E-03 0.  1.
         11   -1    0    0    0    0 -0.00000000000E+00 -0.00000000000E+00 -0.45593999997E+02  0.45594000000E+02  0.51100000000E-03 0. -1.
    9900012    2    1    2    0    0 -0.13266137354E+02  0.13019776839E+02 -0.22744481451E+01  0.72461598755E+02  0.70000037075E+02 0.  0.
         12    1    1    2    0    0  0.13266137354E+02 -0.13019776839E+02  0.22744481451E+01  0.18726401245E+02  0.00000000000E+00 0. -1.
         11    1    3    3    0    0 -0.21607300674E+02  0.33154115878E+01  0.27076322820E+01  0.22027225637E+02  0.51100000000E-03 0. -1.
        -11    1    3    3    0    0 -0.20314430805E+02  0.14846731929E+01 -0.15828723322E+01  0.20430022969E+02  0.51100000000E-03 0.  1.
         12    1    3    3    0    0  0.28655594125E+02  0.82196920585E+01 -0.33992080949E+01  0.30004350149E+02  0.00000000000E+00 0. -1.
</event>
<event>
 7    1  0.1692604E-013  0.7246157E+02  0.7816164E-02  0.1226708E+00
        -11   -1    0    0    0    0  0.00000000000E+00  0.00000000000E+00  0.45593999997E+02  0.45594000000E+02  0.51100000000E-03 0.  1.
         11   -1    0    0    0    0 -0.00000000000E+00 -0.00000000000E+00 -0.45593999997E+02  0.45594000000E+02  0.51100000000E-03 0. -1.
    9900012    2    1    2    0    0 -0.11294597807E+02  0.62727500669E+01  0.13555958347E+02  0.72461565750E+02  0.69999994080E+02 0.  0.
         12    1    1    2    0    0  0.11294597807E+02 -0.62727500669E+01 -0.13555958347E+02  0.18726434250E+02  0.00000000000E+00 0. -1.
         11    1    3    3    0    0 -0.19015914926E+02 -0.19254266022E+02 -0.57310595966E+01  0.27661829745E+02  0.51100000000E-03 0. -1.
        -11    1    3    3    0    0 -0.86822679125E+01 -0.23258296615E+00  0.97884519604E-02  0.86853881327E+01  0.51100000000E-03 0.  1.
        -12    1    3    3    0    0  0.16403585031E+02  0.25759599055E+02  0.19277229491E+02  0.36114347872E+02  0.00000000000E+00 0.  1.
</event>
<event>
 7    1  0.1692604E-013  0.7246164E+02  0.7816164E-02  0.1226708E+00
        -11   -1    0    0    0    0  0.00000000000E+00  0.00000000000E+00  0.45593999997E+02  0.45594000000E+02  0.51100000000E-03 0.  1.
         11   -1    0    0    0    0 -0.00000000000E+00 -0.00000000000E+00 -0.45593999997E+02  0.45594000000E+02  0.51100000000E-03 0. -1.
    9900012    2    1    2    0    0  0.13387462234E+02  0.12553066484E+02 -0.37246235790E+01  0.72461643065E+02  0.70000094798E+02 0.  0.
         12    1    1    2    0    0 -0.13387462234E+02 -0.12553066484E+02  0.37246235790E+01  0.18726356935E+02  0.00000000000E+00 0. -1.
         11    1    3    3    0    0  0.92355850365E+01  0.11840849108E+02 -0.16634964684E+02  0.22410350039E+02  0.51100000000E-03 0. -1.
        -11    1    3    3    0    0 -0.17812288358E+02  0.14024108785E+02  0.63642855561E+01  0.23546918581E+02  0.51100000000E-03 0.  1.
         12    1    3    3    0    0  0.21964165556E+02 -0.13311891409E+02  0.65460555492E+01  0.26504374445E+02  0.00000000000E+00 0. -1.
</event>
<event>
 7    1  0.1692604E-013  0.7246180E+02  0.7816164E-02  0.1226707E+00
        -11   -1    0    0    0    0  0.00000000000E+00  0.00000000000E+00  0.45593999997E+02  0.45594000000E+02  0.51100000000E-03 0.  1.
         11   -1    0    0    0    0 -0.00000000000E+00 -0.00000000000E+00 -0.45593999997E+02  0.45594000000E+02  0.51100000000E-03 0. -1.
    9900012    2    1    2    0    0 -0.93460413565E+01 -0.94830684274E+01  0.13167895297E+02  0.72461800642E+02  0.70000300070E+02 0.  0.
         12    1    1    2    0    0  0.93460413565E+01  0.94830684274E+01 -0.13167895297E+02  0.18726199358E+02  0.00000000000E+00 0. -1.
         11    1    3    3    0    0 -0.48165378324E+01 -0.58082945858E+01 -0.13950637748E+02  0.15860504926E+02  0.51100000000E-03 0. -1.
        -11    1    3    3    0    0 -0.19284393097E+02 -0.38979133694E+01 -0.58126001606E+01  0.20515064383E+02  0.51100000000E-03 0.  1.
        -12    1    3    3    0    0  0.14754889573E+02  0.22313952771E+00  0.32931133206E+02  0.36086231332E+02  0.00000000000E+00 0.  1.
</event>
<event>
 7    1  0.1692604E-013  0.7246169E+02  0.7816164E-02  0.1226708E+00
        -11   -1    0    0    0    0  0.00000000000E+00  0.00000000000E+00  0.45593999997E+02  0.45594000000E+02  0.51100000000E-03 0.  1.
         11   -1    0    0    0    0 -0.00000000000E+00 -0.00000000000E+00 -0.45593999997E+02  0.45594000000E+02  0.51100000000E-03 0. -1.
    9900012    2    1    2    0    0 -0.13865607870E+02  0.41269285587E+01  0.11890673157E+02  0.72461688856E+02  0.70000154448E+02 0.  0.
         12    1    1    2    0    0  0.13865607870E+02 -0.41269285587E+01 -0.11890673157E+02  0.18726311144E+02  0.00000000000E+00 0. -1.
         11    1    3    3    0    0  0.11760104537E+01  0.11418966221E+02 -0.46471848756E+01  0.12384349707E+02  0.51100000000E-03 0. -1.
        -11    1    3    3    0    0 -0.35705419046E+02 -0.87303983724E+01  0.13418647255E+02  0.39129999993E+02  0.51100000000E-03 0.  1.
         12    1    3    3    0    0  0.20663800722E+02  0.14383607102E+01  0.31192107781E+01  0.20947339156E+02  0.00000000000E+00 0. -1.
</event>
<event>
 7    1  0.1692604E-013  0.7246142E+02  0.7816164E-02  0.1226708E+00
        -11   -1    0    0    0    0  0.00000000000E+00  0.00000000000E+00  0.45593999997E+02  0.45594000000E+02  0.51100000000E-03 0.  1.
         11   -1    0    0    0    0 -0.00000000000E+00 -0.00000000000E+00 -0.45593999997E+02  0.45594000000E+02  0.51100000000E-03 0. -1.
    9900012    2    1    2    0    0 -0.97761047005E+01 -0.96621461502E+01  0.12718306771E+02  0.72461424807E+02  0.69999810475E+02 0.  0.
         12    1    1    2    0    0  0.97761047005E+01  0.96621461502E+01 -0.12718306771E+02  0.18726575193E+02  0.00000000000E+00 0. -1.
         11    1    3    3    0    0 -0.21610523562E+02  0.10364534416E+02  0.85187150924E+01  0.25436328535E+02  0.51100000000E-03 0. -1.
        -11    1    3    3    0    0 -0.12117634782E+01 -0.27233163737E+02 -0.72764866793E+01  0.28214550085E+02  0.51100000000E-03 0.  1.
         12    1    3    3    0    0  0.13046182340E+02  0.72064831712E+01  0.11476078358E+02  0.18810546186E+02  0.00000000000E+00 0. -1.
</event>
<event>
 7    1  0.1692604E-013  0.7246158E+02  0.7816164E-02  0.1226708E+00
        -11   -1    0    0    0    0  0.00000000000E+00  0.00000000000E+00  0.45593999997E+02  0.45594000000E+02  0.51100000000E-03 0. -1.
         11   -1    0    0    0    0 -0.00000000000E+00 -0.00000000000E+00 -0.45593999997E+02  0.45594000000E+02  0.51100000000E-03 0.  1.
    9900012    2    1    2    0    0  0.17468553182E+02  0.58167059502E+01 -0.34197316719E+01  0.72461575272E+02  0.70000006484E+02 0.  0.
         12    1    1    2    0    0 -0.17468553182E+02 -0.58167059502E+01  0.34197316719E+01  0.18726424728E+02  0.00000000000E+00 0. -1.
         11    1    3    3    0    0  0.15655925443E+02 -0.19364822538E+02 -0.11188312829E+02  0.27299866257E+02  0.51100000000E-03 0. -1.
        -11    1    3    3    0    0  0.17901431770E+02  0.10456589320E+02 -0.28107690025E+01  0.20921327450E+02  0.51100000000E-03 0.  1.
         12    1    3    3    0    0 -0.16088804031E+02  0.14724939167E+02  0.10579350160E+02  0.24240381565E+02  0.00000000000E+00 0. -1.
</event>
<event>
 7    1  0.1692604E-013  0.7246160E+02  0.7816164E-02  0.1226708E+00
        -11   -1    0    0    0    0  0.00000000000E+00  0.00000000000E+00  0.45593999997E+02  0.45594000000E+02  0.51100000000E-03 0.  1.
         11   -1    0    0    0    0 -0.00000000000E+00 -0.00000000000E+00 -0.45593999997E+02  0.45594000000E+02  0.51100000000E-03 0. -1.
    9900012    2    1    2    0    0 -0.62046080515E+01  0.60932874240E+01  0.16584712055E+02  0.72461601877E+02  0.70000041142E+02 0.  0.
         12    1    1    2    0    0  0.62046080515E+01 -0.60932874240E+01 -0.16584712055E+02  0.18726398123E+02  0.00000000000E+00 0. -1.
         11    1    3    3    0    0 -0.18765303082E+02  0.26917201164E+02  0.12463556876E+01  0.32836347559E+02  0.51100000000E-03 0.  1.
        -11    1    3    3    0    0 -0.26913638966E+01 -0.10558710082E+02  0.18007678483E+02  0.21047714432E+02  0.51100000000E-03 0. -1.
        -12    1    3    3    0    0  0.15252058927E+02 -0.10265203658E+02 -0.26693221150E+01  0.18577539886E+02  0.00000000000E+00 0.  1.
</event>
<event>
 7    1  0.1692604E-013  0.7246162E+02  0.7816164E-02  0.1226708E+00
        -11   -1    0    0    0    0  0.00000000000E+00  0.00000000000E+00  0.45593999997E+02  0.45594000000E+02  0.51100000000E-03 0. -1.
         11   -1    0    0    0    0 -0.00000000000E+00 -0.00000000000E+00 -0.45593999997E+02  0.45594000000E+02  0.51100000000E-03 0.  1.
    9900012    2    1    2    0    0 -0.51904532631E+01  0.17632446517E+02  0.35823536237E+01  0.72461622007E+02  0.70000067366E+02 0.  0.
         12    1    1    2    0    0  0.51904532631E+01 -0.17632446517E+02 -0.35823536237E+01  0.18726377993E+02  0.00000000000E+00 0. -1.
         11    1    3    3    0    0 -0.67618513479E+01 -0.22578436675E+00  0.59576752453E+01  0.90148492400E+01  0.51100000000E-03 0. -1.
        -11    1    3    3    0    0 -0.17079377980E+02  0.34321139042E+02  0.95322737641E+00  0.38347808021E+02  0.51100000000E-03 0.  1.
        -12    1    3    3    0    0  0.18650776065E+02 -0.16462908159E+02 -0.33285489980E+01  0.25098964746E+02  0.00000000000E+00 0.  1.
</event>
<event>
 7    1  0.1692604E-013  0.7246155E+02  0.7816164E-02  0.1226708E+00
        -11   -1    0    0    0    0  0.00000000000E+00  0.00000000000E+00  0.45593999997E+02  0.45594000000E+02  0.51100000000E-03 0.  1.
         11   -1    0    0    0    0 -0.00000000000E+00 -0.00000000000E+00 -0.45593999997E+02  0.45594000000E+02  0.51100000000E-03 0. -1.
    9900012    2    1    2    0    0  0.14472152288E+02 -0.54024636074E+01 -0.10585368744E+02  0.72461552490E+02  0.69999976807E+02 0.  0.
         12    1    1    2    0    0 -0.14472152288E+02  0.54024636074E+01  0.10585368744E+02  0.18726447510E+02  0.00000000000E+00 0. -1.
         11    1    3    3    0    0 -0.16355250159E+02  0.78406623516E+00 -0.11012537424E+02  0.19732839340E+02  0.51100000000E-03 0. -1.
        -11    1    3    3    0    0  0.10574393223E+02  0.18032733534E+02 -0.23459243834E+01  0.21035698996E+02  0.51100000000E-03 0.  1.
        -12    1    3    3    0    0  0.20253009223E+02 -0.24219263377E+02  0.27730930633E+01  0.31693014155E+02  0.00000000000E+00 0.  1.
</event>
<event>
 7    1  0.1692604E-013  0.7246150E+02  0.7816164E-02  0.1226708E+00
        -11   -1    0    0    0    0  0.00000000000E+00  0.00000000000E+00  0.45593999997E+02  0.45594000000E+02  0.51100000000E-03 0.  1.
         11   -1    0    0    0    0 -0.00000000000E+00 -0.00000000000E+00 -0.45593999997E+02  0.45594000000E+02  0.51100000000E-03 0. -1.
    9900012    2    1    2    0    0  0.81125063976E+01 -0.83157050503E+01  0.14687340962E+02  0.72461502862E+02  0.69999912157E+02 0.  0.
         12    1    1    2    0    0 -0.81125063976E+01  0.83157050503E+01 -0.14687340962E+02  0.18726497138E+02  0.00000000000E+00 0. -1.
         11    1    3    3    0    0  0.18139984789E+02 -0.12457196431E+02 -0.23016772582E+02  0.31843564678E+02  0.51100000000E-03 0. -1.
        -11    1    3    3    0    0 -0.20087693854E+01 -0.93816083964E+00  0.56907283607E+00  0.22889177265E+01  0.51100000000E-03 0.  1.
        -12    1    3    3    0    0 -0.80187090061E+01  0.50796522204E+01  0.37135040708E+02  0.38329020457E+02  0.00000000000E+00 0.  1.
</event>
<event>
 7    1  0.1692604E-013  0.7246145E+02  0.7816164E-02  0.1226708E+00
        -11   -1    0    0    0    0  0.00000000000E+00  0.00000000000E+00  0.45593999997E+02  0.45594000000E+02  0.51100000000E-03 0.  1.
         11   -1    0    0    0    0 -0.00000000000E+00 -0.00000000000E+00 -0.45593999997E+02  0.45594000000E+02  0.51100000000E-03 0. -1.
    9900012    2    1    2    0    0  0.15996348336E+02  0.84388107492E+01  0.48566519885E+01  0.72461447849E+02  0.69999840492E+02 0.  0.
         12    1    1    2    0    0 -0.15996348336E+02 -0.84388107492E+01 -0.48566519885E+01  0.18726552151E+02  0.00000000000E+00 0. -1.
         11    1    3    3    0    0  0.15637688706E+02  0.20939515792E+02 -0.15619918525E+02  0.30446387055E+02  0.51100000000E-03 0. -1.
        -11    1    3    3    0    0 -0.12196846420E+02 -0.40992809301E+01 -0.38044952206E+01  0.13417948833E+02  0.51100000000E-03 0.  1.
        -12    1    3    3    0    0  0.12555506050E+02 -0.84014241132E+01  0.24281065735E+02  0.28597111961E+02  0.00000000000E+00 0.  1.
</event>
<event>
 7    1  0.1692604E-013  0.7246157E+02  0.7816164E-02  0.1226708E+00
        -11   -1    0    0    0    0  0.00000000000E+00  0.00000000000E+00  0.45593999997E+02  0.45594000000E+02  0.51100000000E-03 0.  1.
         11   -1    0    0    0    0 -0.00000000000E+00 -0.00000000000E+00 -0.45593999997E+02  0.45594000000E+02  0.51100000000E-03 0. -1.
    9900012    2    1    2    0    0 -0.58225552473E+01 -0.47379504333E+01  0.17156014066E+02  0.72461571014E+02  0.70000000938E+02 0.  0.
         12    1    1    2    0    0  0.58225552473E+01  0.47379504333E+01 -0.17156014066E+02  0.18726428986E+02  0.00000000000E+00 0. -1.
         11    1    3    3    0    0 -0.82076569906E+01 -0.13367440198E+02  0.52131532883E+01  0.16529702302E+02  0.51100000000E-03 0. -1.
        -11    1    3    3    0    0  0.13401971727E+02 -0.16574511017E+02  0.17845485073E+02  0.27799075513E+02  0.51100000000E-03 0.  1.
         12    1    3    3    0    0 -0.11016869983E+02  0.25204000782E+02 -0.59026242948E+01  0.28132793200E+02  0.00000000000E+00 0. -1.
</event>
<event>
 7    1  0.1692604E-013  0.7246154E+02  0.7816164E-02  0.1226708E+00
        -11   -1    0    0    0    0  0.00000000000E+00  0.00000000000E+00  0.45593999997E+02  0.45594000000E+02  0.51100000000E-03 0. -1.
         11   -1    0    0    0    0 -0.00000000000E+00 -0.00000000000E+00 -0.45593999997E+02  0.45594000000E+02  0.51100000000E-03 0.  1.
    9900012    2    1    2    0    0 -0.10464686679E+02  0.91920466488E+00  0.15502443925E+02  0.72461538184E+02  0.69999958170E+02 0.  0.
         12    1    1    2    0    0  0.10464686679E+02 -0.91920466488E+00 -0.15502443925E+02  0.18726461816E+02  0.00000000000E+00 0. -1.
         11    1    3    3    0    0  0.10265452063E+02  0.12848719815E+02  0.47532225622E+01  0.17119060486E+02  0.51100000000E-03 0. -1.
        -11    1    3    3    0    0 -0.19500598417E+02  0.16017894795E+02 -0.37178743906E+00  0.25238552226E+02  0.51100000000E-03 0.  1.
         12    1    3    3    0    0 -0.12295403252E+01 -0.27947409945E+02  0.11121008802E+02  0.30103925472E+02  0.00000000000E+00 0. -1.
</event>
<event>
 7    1  0.1692604E-013  0.7246155E+02  0.7816164E-02  0.1226708E+00
        -11   -1    0    0    0    0  0.00000000000E+00  0.00000000000E+00  0.45593999997E+02  0.45594000000E+02  0.51100000000E-03 0.  1.
         11   -1    0    0    0    0 -0.00000000000E+00 -0.00000000000E+00 -0.45593999997E+02  0.45594000000E+02  0.51100000000E-03 0. -1.
    9900012    2    1    2    0    0 -0.17086148036E+02  0.22968119967E+01  0.73121921882E+01  0.72461549331E+02  0.69999972692E+02 0.  0.
         12    1    1    2    0    0  0.17086148036E+02 -0.22968119967E+01 -0.73121921882E+01  0.18726450669E+02  0.00000000000E+00 0. -1.
         11    1    3    3    0    0 -0.16917126072E+01 -0.16495041955E+02 -0.24940701773E+01  0.16768085369E+02  0.51100000000E-03 0. -1.
        -11    1    3    3    0    0 -0.26037392914E+02  0.41423065144E+01  0.21600578084E+02  0.34083566522E+02  0.51100000000E-03 0.  1.
         12    1    3    3    0    0  0.10642957485E+02  0.14649547437E+02 -0.11794315718E+02  0.21609897441E+02  0.00000000000E+00 0. -1.
</event>
<event>
 7    1  0.1692604E-013  0.7246159E+02  0.7816164E-02  0.1226708E+00
        -11   -1    0    0    0    0  0.00000000000E+00  0.00000000000E+00  0.45593999997E+02  0.45594000000E+02  0.51100000000E-03 0. -1.
         11   -1    0    0    0    0 -0.00000000000E+00 -0.00000000000E+00 -0.45593999997E+02  0.45594000000E+02  0.51100000000E-03 0.  1.
    9900012    2    1    2    0    0 -0.89003210624E+01 -0.15041575096E+02 -0.67241246895E+01  0.72461586856E+02  0.70000021575E+02 0.  0.
         12    1    1    2    0    0  0.89003210624E+01  0.15041575096E+02  0.67241246895E+01  0.18726413144E+02  0.00000000000E+00 0. -1.
         11    1    3    3    0    0 -0.67188763079E+01 -0.20641292634E+02  0.72756809141E+01  0.22894143213E+02  0.51100000000E-03 0. -1.
        -11    1    3    3    0    0 -0.13287825952E+01 -0.46565331842E+01  0.16595505875E+02  0.17287561424E+02  0.51100000000E-03 0.  1.
        -12    1    3    3    0    0 -0.85266215928E+00  0.10256250722E+02 -0.30595311478E+02  0.32279882219E+02  0.00000000000E+00 0.  1.
</event>
<event>
 7    1  0.1692604E-013  0.7246152E+02  0.7816164E-02  0.1226708E+00
        -11   -1    0    0    0    0  0.00000000000E+00  0.00000000000E+00  0.45593999997E+02  0.45594000000E+02  0.51100000000E-03 0.  1.
         11   -1    0    0    0    0 -0.00000000000E+00 -0.00000000000E+00 -0.45593999997E+02  0.45594000000E+02  0.51100000000E-03 0. -1.
    9900012    2    1    2    0    0 -0.15507266315E+02  0.95384268724E+01 -0.43845555497E+01  0.72461515463E+02  0.69999928572E+02 0.  0.
         12    1    1    2    0    0  0.15507266315E+02 -0.95384268724E+01  0.43845555497E+01  0.18726484537E+02  0.00000000000E+00 0. -1.
         11    1    3    3    0    0 -0.23432628697E+01  0.82638482981E+00  0.69552646994E+01  0.73857633366E+01  0.51100000000E-03 0. -1.
        -11    1    3    3    0    0 -0.32290103231E+02 -0.50108906592E+01  0.90785425565E+01  0.33914299743E+02  0.51100000000E-03 0.  1.
         12    1    3    3    0    0  0.19126099786E+02  0.13722932702E+02 -0.20418362806E+02  0.31161452383E+02  0.00000000000E+00 0. -1.
</event>
<event>
 7    1  0.1692604E-013  0.7246148E+02  0.7816164E-02  0.1226708E+00
        -11   -1    0    0    0    0  0.00000000000E+00  0.00000000000E+00  0.45593999997E+02  0.45594000000E+02  0.51100000000E-03 0.  1.
         11   -1    0    0    0    0 -0.00000000000E+00 -0.00000000000E+00 -0.45593999997E+02  0.45594000000E+02  0.51100000000E-03 0. -1.
    9900012    2    1    2    0    0 -0.14437961490E+02  0.81841447502E+01  0.86745410580E+01  0.72461478170E+02  0.69999879991E+02 0.  0.
         12    1    1    2    0    0  0.14437961490E+02 -0.81841447502E+01 -0.86745410580E+01  0.18726521830E+02  0.00000000000E+00 0. -1.
         11    1    3    3    0    0 -0.14456436303E+02  0.20515613996E+02 -0.16124912745E+02  0.29831053946E+02  0.51100000000E-03 0. -1.
        -11    1    3    3    0    0  0.94560082606E+01  0.21546782615E+01 -0.27718568958E+01  0.10086720059E+02  0.51100000000E-03 0.  1.
        -12    1    3    3    0    0 -0.94375334477E+01 -0.14486147507E+02  0.27571310699E+02  0.32543704166E+02  0.00000000000E+00 0.  1.
</event>
<event>
 7    1  0.1692604E-013  0.7246166E+02  0.7816164E-02  0.1226708E+00
        -11   -1    0    0    0    0  0.00000000000E+00  0.00000000000E+00  0.45593999997E+02  0.45594000000E+02  0.51100000000E-03 0.  1.
         11   -1    0    0    0    0 -0.00000000000E+00 -0.00000000000E+00 -0.45593999997E+02  0.45594000000E+02  0.51100000000E-03 0. -1.
    9900012    2    1    2    0    0 -0.13854095256E+02  0.13936071111E+01  0.12521887590E+02  0.72461661197E+02  0.70000118417E+02 0.  0.
         12    1    1    2    0    0  0.13854095256E+02 -0.13936071111E+01 -0.12521887590E+02  0.18726338803E+02  0.00000000000E+00 0. -1.
         11    1    3    3    0    0 -0.73411010456E+01  0.26562615489E+02  0.72412811178E+01  0.28493867036E+02  0.51100000000E-03 0. -1.
        -11    1    3    3    0    0 -0.16791070075E+02 -0.16675439850E+01  0.69811282660E+01  0.18260801990E+02  0.51100000000E-03 0.  1.
        -12    1    3    3    0    0  0.10278075864E+02 -0.23501464393E+02 -0.17005217940E+01  0.25706992170E+02  0.00000000000E+00 0.  1.
</event>
<event>
 7    1  0.1692604E-013  0.7246173E+02  0.7816164E-02  0.1226708E+00
        -11   -1    0    0    0    0  0.00000000000E+00  0.00000000000E+00  0.45593999997E+02  0.45594000000E+02  0.51100000000E-03 0.  1.
         11   -1    0    0    0    0 -0.00000000000E+00 -0.00000000000E+00 -0.45593999997E+02  0.45594000000E+02  0.51100000000E-03 0. -1.
    9900012    2    1    2    0    0 -0.15147685773E+02  0.10815140392E+02 -0.20624012652E+01  0.72461731153E+02  0.70000209548E+02 0.  0.
         12    1    1    2    0    0  0.15147685773E+02 -0.10815140392E+02  0.20624012652E+01  0.18726268847E+02  0.00000000000E+00 0. -1.
         11    1    3    3    0    0 -0.14736107832E+02 -0.18418632365E+02  0.17195361665E+01  0.23650701832E+02  0.51100000000E-03 0. -1.
        -11    1    3    3    0    0  0.18841234662E+02  0.99159305155E+01 -0.11155136443E+00  0.21291553385E+02  0.51100000000E-03 0.  1.
         12    1    3    3    0    0 -0.19252812602E+02  0.19317842241E+02 -0.36703860673E+01  0.27519475936E+02  0.00000000000E+00 0. -1.
</event>
<event>
 7    1  0.1692604E-013  0.7246155E+02  0.7816164E-02  0.1226708E+00
        -11   -1    0    0    0    0  0.00000000000E+00  0.00000000000E+00  0.45593999997E+02  0.45594000000E+02  0.51100000000E-03 0. -1.
         11   -1    0    0    0    0 -0.00000000000E+00 -0.00000000000E+00 -0.45593999997E+02  0.45594000000E+02  0.51100000000E-03 0.  1.
    9900012    2    1    2    0    0  0.18421557096E+01  0.16913185037E+02 -0.78249945186E+01  0.72461550658E+02  0.69999974420E+02 0.  0.
         12    1    1    2    0    0 -0.18421557096E+01 -0.16913185037E+02  0.78249945186E+01  0.18726449342E+02  0.00000000000E+00 0. -1.
         11    1    3    3    0    0 -0.48572948337E+01  0.10503446822E+02  0.17996192955E+02  0.21395762883E+02  0.51100000000E-03 0. -1.
        -11    1    3    3    0    0 -0.14330454351E+02  0.59523487024E+01  0.25725211946E+01  0.15729279784E+02  0.51100000000E-03 0.  1.
        -12    1    3    3    0    0  0.21029904894E+02  0.45738951263E+00 -0.28393708668E+02  0.35336507990E+02  0.00000000000E+00 0.  1.
</event>
<event>
 7    1  0.1692604E-013  0.7246165E+02  0.7816164E-02  0.1226708E+00
        -11   -1    0    0    0    0  0.00000000000E+00  0.00000000000E+00  0.45593999997E+02  0.45594000000E+02  0.51100000000E-03 0.  1.
         11   -1    0    0    0    0 -0.00000000000E+00 -0.00000000000E+00 -0.45593999997E+02  0.45594000000E+02  0.51100000000E-03 0. -1.
    9900012    2    1    2    0    0 -0.96089676202E+01  0.12948927071E+02  0.95220451385E+01  0.72461646520E+02  0.70000099299E+02 0.  0.
         12    1    1    2    0    0  0.96089676202E+01 -0.12948927071E+02 -0.95220451385E+01  0.18726353480E+02  0.00000000000E+00 0. -1.
         11    1    3    3    0    0  0.36920968761E+01 -0.54597326819E+01 -0.23388224265E+02  0.24299162430E+02  0.51100000000E-03 0. -1.
        -11    1    3    3    0    0 -0.36185175283E+01  0.34728058153E+01 -0.44969819533E+01  0.67362375465E+01  0.51100000000E-03 0.  1.
        -12    1    3    3    0    0 -0.96825469680E+01  0.14935853938E+02  0.37407251356E+02  0.41426246544E+02  0.00000000000E+00 0.  1.
</event>
<event>
 7    1  0.1692604E-013  0.7246152E+02  0.7816164E-02  0.1226708E+00
        -11   -1    0    0    0    0  0.00000000000E+00  0.00000000000E+00  0.45593999997E+02  0.45594000000E+02  0.51100000000E-03 0.  1.
         11   -1    0    0    0    0 -0.00000000000E+00 -0.00000000000E+00 -0.45593999997E+02  0.45594000000E+02  0.51100000000E-03 0. -1.
    9900012    2    1    2    0    0 -0.15463879533E+02 -0.10308595340E+02 -0.22982991344E+01  0.72461524437E+02  0.69999940262E+02 0.  0.
         12    1    1    2    0    0  0.15463879533E+02  0.10308595340E+02  0.22982991344E+01  0.18726475563E+02  0.00000000000E+00 0. -1.
         11    1    3    3    0    0 -0.79104411830E+01 -0.45889292307E+01  0.82060938017E+01  0.12287120368E+02  0.51100000000E-03 0. -1.
        -11    1    3    3    0    0  0.22120532513E+02 -0.42864142290E+01  0.94001677511E+01  0.24414226582E+02  0.51100000000E-03 0.  1.
         12    1    3    3    0    0 -0.29673970863E+02 -0.14332518805E+01 -0.19904560687E+02  0.35760177487E+02  0.00000000000E+00 0. -1.
</event>
<event>
 7    1  0.1692604E-013  0.7246158E+02  0.7816164E-02  0.1226708E+00
        -11   -1    0    0    0    0  0.00000000000E+00  0.00000000000E+00  0.45593999997E+02  0.45594000000E+02  0.51100000000E-03 0. -1.
         11   -1    0    0    0    0 -0.00000000000E+00 -0.00000000000E+00 -0.45593999997E+02  0.45594000000E+02  0.51100000000E-03 0.  1.
    9900012    2    1    2    0    0  0.10642487019E+02 -0.15404932691E+02 -0.32319775581E+00  0.72461576477E+02  0.70000008054E+02 0.  0.
         12    1    1    2    0    0 -0.10642487019E+02  0.15404932691E+02  0.32319775581E+00  0.18726423523E+02  0.00000000000E+00 0. -1.
         11    1    3    3    0    0  0.66129032021E+01 -0.36704875457E+01  0.15565708541E+02  0.17305902179E+02  0.51100000000E-03 0. -1.
        -11    1    3    3    0    0 -0.10146510409E+02  0.17379254658E+02 -0.90209260855E+01  0.22053736047E+02  0.51100000000E-03 0.  1.
        -12    1    3    3    0    0  0.14176094226E+02 -0.29113699803E+02 -0.68679802113E+01  0.33101938251E+02  0.00000000000E+00 0.  1.
</event>
<event>
 7    1  0.1692604E-013  0.7246159E+02  0.7816164E-02  0.1226708E+00
        -11   -1    0    0    0    0  0.00000000000E+00  0.00000000000E+00  0.45593999997E+02  0.45594000000E+02  0.51100000000E-03 0.  1.
         11   -1    0    0    0    0 -0.00000000000E+00 -0.00000000000E+00 -0.45593999997E+02  0.45594000000E+02  0.51100000000E-03 0. -1.
    9900012    2    1    2    0    0 -0.10402905194E+02  0.11161764583E+02  0.10856929803E+02  0.72461592180E+02  0.70000028510E+02 0.  0.
         12    1    1    2    0    0  0.10402905194E+02 -0.11161764583E+02 -0.10856929803E+02  0.18726407820E+02  0.00000000000E+00 0. -1.
         11    1    3    3    0    0 -0.93540807223E+01 -0.55598720881E+01 -0.18177637006E+02  0.21185785121E+02  0.51100000000E-03 0. -1.
        -11    1    3    3    0    0 -0.21117907851E+01 -0.12131620772E+02  0.14264509421E+02  0.18844418594E+02  0.51100000000E-03 0.  1.
        -12    1    3    3    0    0  0.10629663129E+01  0.28853257444E+02  0.14770057388E+02  0.32431388465E+02  0.00000000000E+00 0.  1.
</event>
<event>
 7    1  0.1692604E-013  0.7246150E+02  0.7816164E-02  0.1226708E+00
        -11   -1    0    0    0    0  0.00000000000E+00  0.00000000000E+00  0.45593999997E+02  0.45594000000E+02  0.51100000000E-03 0.  1.
         11   -1    0    0    0    0 -0.00000000000E+00 -0.00000000000E+00 -0.45593999997E+02  0.45594000000E+02  0.51100000000E-03 0. -1.
    9900012    2    1    2    0    0 -0.23839195979E+01  0.13580437003E+01  0.18524423704E+02  0.72461504628E+02  0.69999914458E+02 0.  0.
         12    1    1    2    0    0  0.23839195979E+01 -0.13580437003E+01 -0.18524423704E+02  0.18726495372E+02  0.00000000000E+00 0. -1.
         11    1    3    3    0    0  0.56966159644E+01 -0.18204257143E+01  0.55475257416E+01  0.81572314753E+01  0.51100000000E-03 0. -1.
        -11    1    3    3    0    0 -0.14441734549E+02 -0.13934358963E+02  0.32105537125E+02  0.37861531544E+02  0.51100000000E-03 0.  1.
         12    1    3    3    0    0  0.63611989869E+01  0.17112828377E+02 -0.19128639162E+02  0.26442741609E+02  0.00000000000E+00 0. -1.
</event>
<event>
 7    1  0.1692604E-013  0.7246159E+02  0.7816164E-02  0.1226708E+00
        -11   -1    0    0    0    0  0.00000000000E+00  0.00000000000E+00  0.45593999997E+02  0.45594000000E+02  0.51100000000E-03 0.  1.
         11   -1    0    0    0    0 -0.00000000000E+00 -0.00000000000E+00 -0.45593999997E+02  0.45594000000E+02  0.51100000000E-03 0. -1.
    9900012    2    1    2    0    0 -0.83682355384E+01  0.11501650600E+02  0.12180441192E+02  0.72461588700E+02  0.70000023976E+02 0.  0.
         12    1    1    2    0    0  0.83682355384E+01 -0.11501650600E+02 -0.12180441192E+02  0.18726411300E+02  0.00000000000E+00 0. -1.
         11    1    3    3    0    0  0.50850610105E+01 -0.30991439914E+01  0.32066610652E+01  0.67635208588E+01  0.51100000000E-03 0. -1.
        -11    1    3    3    0    0 -0.19903643526E+02 -0.20099347864E+02 -0.29585491775E+01  0.28441023605E+02  0.51100000000E-03 0.  1.
         12    1    3    3    0    0  0.64503469775E+01  0.34700142456E+02  0.11932329305E+02  0.37257044236E+02  0.00000000000E+00 0. -1.
</event>
<event>
 7    1  0.1692604E-013  0.7246156E+02  0.7816164E-02  0.1226708E+00
        -11   -1    0    0    0    0  0.00000000000E+00  0.00000000000E+00  0.45593999997E+02  0.45594000000E+02  0.51100000000E-03 0. -1.
         11   -1    0    0    0    0 -0.00000000000E+00 -0.00000000000E+00 -0.45593999997E+02  0.45594000000E+02  0.51100000000E-03 0.  1.
    9900012    2    1    2    0    0 -0.15447411841E+02 -0.10569753939E+02  0.58092563895E+00  0.72461555983E+02  0.69999981357E+02 0.  0.
         12    1    1    2    0    0  0.15447411841E+02  0.10569753939E+02 -0.58092563895E+00  0.18726444017E+02  0.00000000000E+00 0. -1.
         11    1    3    3    0    0  0.12706445723E+01  0.91637285325E+01  0.29107010255E+01  0.96984864266E+01  0.51100000000E-03 0. -1.
        -11    1    3    3    0    0 -0.94988066946E+01  0.13049905691E+02 -0.19290684656E+02  0.25152691346E+02  0.51100000000E-03 0.  1.
        -12    1    3    3    0    0 -0.72192497183E+01 -0.32783388163E+02  0.16960909270E+02  0.37610378211E+02  0.00000000000E+00 0.  1.
</event>
<event>
 7    1  0.1692604E-013  0.7246160E+02  0.7816164E-02  0.1226708E+00
        -11   -1    0    0    0    0  0.00000000000E+00  0.00000000000E+00  0.45593999997E+02  0.45594000000E+02  0.51100000000E-03 0. -1.
         11   -1    0    0    0    0 -0.00000000000E+00 -0.00000000000E+00 -0.45593999997E+02  0.45594000000E+02  0.51100000000E-03 0.  1.
    9900012    2    1    2    0    0  0.94995381771E+01 -0.44788126424E+01 -0.15504099013E+02  0.72461599532E+02  0.70000038088E+02 0.  0.
         12    1    1    2    0    0 -0.94995381771E+01  0.44788126424E+01  0.15504099013E+02  0.18726400468E+02  0.00000000000E+00 0. -1.
         11    1    3    3    0    0  0.54201196683E+01 -0.11230637449E+02 -0.20010914100E+02  0.23578413816E+02  0.51100000000E-03 0. -1.
        -11    1    3    3    0    0  0.10344963692E+02 -0.19147178430E+02  0.45663612810E+01  0.22237004548E+02  0.51100000000E-03 0.  1.
         12    1    3    3    0    0 -0.62655451836E+01  0.25899003237E+02 -0.59546194230E-01  0.26646181168E+02  0.00000000000E+00 0. -1.
</event>
<event>
 7    1  0.1692604E-013  0.7246163E+02  0.7816164E-02  0.1226708E+00
        -11   -1    0    0    0    0  0.00000000000E+00  0.00000000000E+00  0.45593999997E+02  0.45594000000E+02  0.51100000000E-03 0.  1.
         11   -1    0    0    0    0 -0.00000000000E+00 -0.00000000000E+00 -0.45593999997E+02  0.45594000000E+02  0.51100000000E-03 0. -1.
    9900012    2    1    2    0    0  0.11079442499E+02  0.11122262376E+02  0.10208736801E+02  0.72461626258E+02  0.70000072903E+02 0.  0.
         12    1    1    2    0    0 -0.11079442499E+02 -0.11122262376E+02 -0.10208736801E+02  0.18726373742E+02  0.00000000000E+00 0. -1.
         11    1    3    3    0    0  0.82797349511E+01 -0.64601593959E+01  0.72724241397E+01  0.12774029255E+02  0.51100000000E-03 0. -1.
        -11    1    3    3    0    0 -0.69449770153E+00  0.20114199618E+02  0.27873320917E+02  0.34380014144E+02  0.51100000000E-03 0.  1.
         12    1    3    3    0    0  0.34942052497E+01 -0.25317778460E+01 -0.24937008256E+02  0.25307582858E+02  0.00000000000E+00 0. -1.
</event>
<event>
 7    1  0.1692604E-013  0.7246152E+02  0.7816164E-02  0.1226708E+00
        -11   -1    0    0    0    0  0.00000000000E+00  0.00000000000E+00  0.45593999997E+02  0.45594000000E+02  0.51100000000E-03 0. -1.
         11   -1    0    0    0    0 -0.00000000000E+00 -0.00000000000E+00 -0.45593999997E+02  0.45594000000E+02  0.51100000000E-03 0.  1.
    9900012    2    1    2    0    0  0.66441032872E+00 -0.10393996834E+02 -0.15562922584E+02  0.72461516865E+02  0.69999930398E+02 0.  0.
         12    1    1    2    0    0 -0.66441032872E+00  0.10393996834E+02  0.15562922584E+02  0.18726483135E+02  0.00000000000E+00 0. -1.
         11    1    3    3    0    0 -0.15413559297E+01  0.10105140181E+02  0.10327402781E+00  0.10222538920E+02  0.51100000000E-03 0. -1.
        -11    1    3    3    0    0  0.62287154861E+01  0.18646363487E+02 -0.11223339350E+02  0.22637294766E+02  0.51100000000E-03 0.  1.
         12    1    3    3    0    0 -0.40229492277E+01 -0.39145500501E+02 -0.44428572623E+01  0.39601683179E+02  0.00000000000E+00 0. -1.
</event>
<event>
 7    1  0.2070753E-013  0.7246157E+02  0.7816164E-02  0.1226708E+00
        -11   -1    0    0    0    0  0.00000000000E+00  0.00000000000E+00  0.45593999997E+02  0.45594000000E+02  0.51100000000E-03 0. -1.
         11   -1    0    0    0    0 -0.00000000000E+00 -0.00000000000E+00 -0.45593999997E+02  0.45594000000E+02  0.51100000000E-03 0.  1.
    9900012    2    1    2    0    0 -0.25645268999E+01 -0.14720079595E+02 -0.11288122993E+02  0.72461567819E+02  0.69999996776E+02 0.  0.
         12    1    1    2    0    0  0.25645268999E+01  0.14720079595E+02  0.11288122993E+02  0.18726432181E+02  0.00000000000E+00 0. -1.
         11    1    3    3    0    0  0.15655341209E+02 -0.14102111756E+02  0.15552850838E+02  0.26188746319E+02  0.51100000000E-03 0. -1.
        -11    1    3    3    0    0 -0.77641325252E+01 -0.16703755432E+02 -0.11574746791E+02  0.21754814707E+02  0.51100000000E-03 0.  1.
        -12    1    3    3    0    0 -0.10455735584E+02  0.16085787592E+02 -0.15266227040E+02  0.24518006793E+02  0.00000000000E+00 0.  1.
</event>
<event>
 7    1  0.1692604E-013  0.7246154E+02  0.7816164E-02  0.1226708E+00
        -11   -1    0    0    0    0  0.00000000000E+00  0.00000000000E+00  0.45593999997E+02  0.45594000000E+02  0.51100000000E-03 0. -1.
         11   -1    0    0    0    0 -0.00000000000E+00 -0.00000000000E+00 -0.45593999997E+02  0.45594000000E+02  0.51100000000E-03 0.  1.
    9900012    2    1    2    0    0  0.17693836991E+02 -0.34317914973E+01 -0.50824408665E+01  0.72461541031E+02  0.69999961880E+02 0.  0.
         12    1    1    2    0    0 -0.17693836991E+02  0.34317914973E+01  0.50824408665E+01  0.18726458969E+02  0.00000000000E+00 0. -1.
         11    1    3    3    0    0  0.27695975048E+02 -0.14692955687E+02  0.31386577151E+01  0.31508747249E+02  0.51100000000E-03 0. -1.
        -11    1    3    3    0    0  0.48015981235E+01  0.12567975154E+01 -0.19300990025E+02  0.19928951320E+02  0.51100000000E-03 0.  1.
         12    1    3    3    0    0 -0.14803736181E+02  0.10004366674E+02  0.11079891443E+02  0.21023842462E+02  0.00000000000E+00 0. -1.
</event>
<event>
 7    1  0.1692604E-013  0.7246153E+02  0.7816164E-02  0.1226708E+00
        -11   -1    0    0    0    0  0.00000000000E+00  0.00000000000E+00  0.45593999997E+02  0.45594000000E+02  0.51100000000E-03 0.  1.
         11   -1    0    0    0    0 -0.00000000000E+00 -0.00000000000E+00 -0.45593999997E+02  0.45594000000E+02  0.51100000000E-03 0. -1.
    9900012    2    1    2    0    0 -0.17403758589E+02  0.64713216026E+01  0.24314269764E+01  0.72461530674E+02  0.69999948387E+02 0.  0.
         12    1    1    2    0    0  0.17403758589E+02 -0.64713216026E+01 -0.24314269764E+01  0.18726469326E+02  0.00000000000E+00 0. -1.
         11    1    3    3    0    0  0.41361094957E+01 -0.14300039210E+02 -0.15603359877E+02  0.21565327794E+02  0.51100000000E-03 0. -1.
        -11    1    3    3    0    0 -0.15970421398E+02  0.10266823578E+02 -0.92604215367E+01  0.21123859338E+02  0.51100000000E-03 0.  1.
        -12    1    3    3    0    0 -0.55694466858E+01  0.10504537234E+02  0.27295208390E+02  0.29772343542E+02  0.00000000000E+00 0.  1.
</event>
<event>
 7    1  0.1692604E-013  0.7246155E+02  0.7816164E-02  0.1226708E+00
        -11   -1    0    0    0    0  0.00000000000E+00  0.00000000000E+00  0.45593999997E+02  0.45594000000E+02  0.51100000000E-03 0.  1.
         11   -1    0    0    0    0 -0.00000000000E+00 -0.00000000000E+00 -0.45593999997E+02  0.45594000000E+02  0.51100000000E-03 0. -1.
    9900012    2    1    2    0    0 -0.17489666337E+02  0.59723557966E+01  0.30203214169E+01  0.72461553359E+02  0.69999977938E+02 0.  0.
         12    1    1    2    0    0  0.17489666337E+02 -0.59723557966E+01 -0.30203214169E+01  0.18726446641E+02  0.00000000000E+00 0. -1.
         11    1    3    3    0    0 -0.10972245326E+02  0.23194481795E+02  0.36499564476E+01  0.25917105077E+02  0.51100000000E-03 0. -1.
        -11    1    3    3    0    0 -0.19031130361E+02  0.30576134727E+01  0.84466023304E+01  0.21044667119E+02  0.51100000000E-03 0.  1.
        -12    1    3    3    0    0  0.12513709350E+02 -0.20279739471E+02 -0.90762373611E+01  0.25499781163E+02  0.00000000000E+00 0.  1.
</event>
<event>
 7    1  0.1692604E-013  0.7246198E+02  0.7816164E-02  0.1226707E+00
        -11   -1    0    0    0    0  0.00000000000E+00  0.00000000000E+00  0.45593999997E+02  0.45594000000E+02  0.51100000000E-03 0. -1.
         11   -1    0    0    0    0 -0.00000000000E+00 -0.00000000000E+00 -0.45593999997E+02  0.45594000000E+02  0.51100000000E-03 0.  1.
    9900012    2    1    2    0    0  0.13561350914E+02  0.87658234826E+01 -0.94822912182E+01  0.72461982092E+02  0.70000536441E+02 0.  0.
         12    1    1    2    0    0 -0.13561350914E+02 -0.87658234826E+01  0.94822912182E+01  0.18726017908E+02  0.00000000000E+00 0. -1.
         11    1    3    3    0    0  0.32805635898E+00  0.16727377503E+01  0.23526880349E+01  0.29053078678E+01  0.51100000000E-03 0. -1.
        -11    1    3    3    0    0  0.27048075541E+02  0.17807408230E+02  0.16436648887E+02  0.36316189300E+02  0.51100000000E-03 0.  1.
         12    1    3    3    0    0 -0.13814780987E+02 -0.10714322498E+02 -0.28271628140E+02  0.33240484924E+02  0.00000000000E+00 0. -1.
</event>
<event>
 7    1  0.1692604E-013  0.7246155E+02  0.7816164E-02  0.1226708E+00
        -11   -1    0    0    0    0  0.00000000000E+00  0.00000000000E+00  0.45593999997E+02  0.45594000000E+02  0.51100000000E-03 0. -1.
         11   -1    0    0    0    0 -0.00000000000E+00 -0.00000000000E+00 -0.45593999997E+02  0.45594000000E+02  0.51100000000E-03 0.  1.
    9900012    2    1    2    0    0  0.16353180996E+02 -0.52569275699E+01 -0.74577493993E+01  0.72461552332E+02  0.69999976601E+02 0.  0.
         12    1    1    2    0    0 -0.16353180996E+02  0.52569275699E+01  0.74577493993E+01  0.18726447668E+02  0.00000000000E+00 0. -1.
         11    1    3    3    0    0  0.49095202195E+01 -0.87197761518E+01  0.95487389424E+00  0.10052346459E+02  0.51100000000E-03 0. -1.
        -11    1    3    3    0    0  0.74223359274E+01 -0.27436725377E+02 -0.12371284012E+02  0.30998607040E+02  0.51100000000E-03 0.  1.
         12    1    3    3    0    0  0.40213248491E+01  0.30899573959E+02  0.39586607185E+01  0.31410598833E+02  0.00000000000E+00 0. -1.
</event>
<event>
 7    1  0.1692604E-013  0.7246154E+02  0.7816164E-02  0.1226708E+00
        -11   -1    0    0    0    0  0.00000000000E+00  0.00000000000E+00  0.45593999997E+02  0.45594000000E+02  0.51100000000E-03 0.  1.
         11   -1    0    0    0    0 -0.00000000000E+00 -0.00000000000E+00 -0.45593999997E+02  0.45594000000E+02  0.51100000000E-03 0. -1.
    9900012    2    1    2    0    0  0.90129138982E+01  0.65914560861E+00  0.16401620631E+02  0.72461541466E+02  0.69999962446E+02 0.  0.
         12    1    1    2    0    0 -0.90129138982E+01 -0.65914560861E+00 -0.16401620631E+02  0.18726458534E+02  0.00000000000E+00 0. -1.
         11    1    3    3    0    0  0.11399657063E+02  0.76703541370E+01 -0.12211169984E+02  0.18382034337E+02  0.51100000000E-03 0. -1.
        -11    1    3    3    0    0  0.13956096602E+01 -0.25842844154E+02  0.21329573614E+02  0.33537308048E+02  0.51100000000E-03 0.  1.
         12    1    3    3    0    0 -0.37823528245E+01  0.18831635626E+02  0.72832170014E+01  0.20542199082E+02  0.00000000000E+00 0. -1.
</event>
<event>
 7    1  0.1692604E-013  0.7246155E+02  0.7816164E-02  0.1226708E+00
        -11   -1    0    0    0    0  0.00000000000E+00  0.00000000000E+00  0.45593999997E+02  0.45594000000E+02  0.51100000000E-03 0.  1.
         11   -1    0    0    0    0 -0.00000000000E+00 -0.00000000000E+00 -0.45593999997E+02  0.45594000000E+02  0.51100000000E-03 0. -1.
    9900012    2    1    2    0    0 -0.96373436694E+01 -0.15917185704E+02  0.21082760092E+01  0.72461547547E+02  0.69999970367E+02 0.  0.
         12    1    1    2    0    0  0.96373436694E+01  0.15917185704E+02 -0.21082760092E+01  0.18726452453E+02  0.00000000000E+00 0. -1.
         11    1    3    3    0    0 -0.40330178087E+01 -0.59713113335E+01 -0.36296821545E+01  0.80682330464E+01  0.51100000000E-03 0. -1.
        -11    1    3    3    0    0  0.64369080548E+01 -0.33103758610E+02  0.14710924990E+02  0.36792715770E+02  0.51100000000E-03 0.  1.
        -12    1    3    3    0    0 -0.12041233915E+02  0.23157884239E+02 -0.89729668262E+01  0.27600598731E+02  0.00000000000E+00 0.  1.
</event>
<event>
 7    1  0.1692604E-013  0.7246152E+02  0.7816164E-02  0.1226708E+00
        -11   -1    0    0    0    0  0.00000000000E+00  0.00000000000E+00  0.45593999997E+02  0.45594000000E+02  0.51100000000E-03 0. -1.
         11   -1    0    0    0    0 -0.00000000000E+00 -0.00000000000E+00 -0.45593999997E+02  0.45594000000E+02  0.51100000000E-03 0.  1.
    9900012    2    1    2    0    0  0.16654549986E+02  0.81139510668E+01  0.27332733102E+01  0.72461520882E+02  0.69999935632E+02 0.  0.
         12    1    1    2    0    0 -0.16654549986E+02 -0.81139510668E+01 -0.27332733102E+01  0.18726479118E+02  0.00000000000E+00 0. -1.
         11    1    3    3    0    0 -0.95449056059E+01  0.27022605306E+01  0.68295601396E+00  0.99435337873E+01  0.51100000000E-03 0. -1.
        -11    1    3    3    0    0 -0.72386008134E+01 -0.11137138109E+02 -0.16228904394E+02  0.20971660046E+02  0.51100000000E-03 0.  1.
         12    1    3    3    0    0  0.33438056405E+02  0.16548828645E+02  0.18279221690E+02  0.41546327049E+02  0.00000000000E+00 0. -1.
</event>
<event>
 7    1  0.1692604E-013  0.7246145E+02  0.7816164E-02  0.1226708E+00
        -11   -1    0    0    0    0  0.00000000000E+00  0.00000000000E+00  0.45593999997E+02  0.45594000000E+02  0.51100000000E-03 0.  1.
         11   -1    0    0    0    0 -0.00000000000E+00 -0.00000000000E+00 -0.45593999997E+02  0.45594000000E+02  0.51100000000E-03 0. -1.
    9900012    2    1    2    0    0  0.12486162206E+02  0.12963595020E+02  0.51696010721E+01  0.72461446187E+02  0.69999838327E+02 0.  0.
         12    1    1    2    0    0 -0.12486162206E+02 -0.12963595020E+02 -0.51696010721E+01  0.18726553813E+02  0.00000000000E+00 0. -1.
         11    1    3    3    0    0  0.10991318378E+02 -0.11258505531E+02  0.13032972667E+02  0.20430893355E+02  0.51100000000E-03 0. -1.
        -11    1    3    3    0    0  0.12005921742E+02 -0.61609020069E+01  0.85078375219E+01  0.15952497296E+02  0.51100000000E-03 0.  1.
         12    1    3    3    0    0 -0.10511077915E+02  0.30383002558E+02 -0.16371209116E+02  0.36078055536E+02  0.00000000000E+00 0. -1.
</event>
<event>
 7    1  0.1692604E-013  0.7246155E+02  0.7816164E-02  0.1226708E+00
        -11   -1    0    0    0    0  0.00000000000E+00  0.00000000000E+00  0.45593999997E+02  0.45594000000E+02  0.51100000000E-03 0.  1.
         11   -1    0    0    0    0 -0.00000000000E+00 -0.00000000000E+00 -0.45593999997E+02  0.45594000000E+02  0.51100000000E-03 0. -1.
    9900012    2    1    2    0    0 -0.52387259303E+01  0.41114761228E+01  0.17502326419E+02  0.72461550380E+02  0.69999974058E+02 0.  0.
         12    1    1    2    0    0  0.52387259303E+01 -0.41114761228E+01 -0.17502326419E+02  0.18726449620E+02  0.00000000000E+00 0. -1.
         11    1    3    3    0    0  0.14258536883E+02  0.15183902633E+02 -0.51044417289E+01  0.21445561286E+02  0.51100000000E-03 0. -1.
        -11    1    3    3    0    0  0.64757270769E+01 -0.10400117148E+02 -0.48850492449E+01  0.13189434569E+02  0.51100000000E-03 0.  1.
        -12    1    3    3    0    0 -0.25972989890E+02 -0.67230936280E+00  0.27491817393E+02  0.37826554526E+02  0.00000000000E+00 0.  1.
</event>
<event>
 7    1  0.1692604E-013  0.7246154E+02  0.7816164E-02  0.1226708E+00
        -11   -1    0    0    0    0  0.00000000000E+00  0.00000000000E+00  0.45593999997E+02  0.45594000000E+02  0.51100000000E-03 0. -1.
         11   -1    0    0    0    0 -0.00000000000E+00 -0.00000000000E+00 -0.45593999997E+02  0.45594000000E+02  0.51100000000E-03 0.  1.
    9900012    2    1    2    0    0 -0.16245174500E+02  0.58868221827E+01  0.72194056354E+01  0.72461543109E+02  0.69999964587E+02 0.  0.
         12    1    1    2    0    0  0.16245174500E+02 -0.58868221827E+01 -0.72194056354E+01  0.18726456891E+02  0.00000000000E+00 0. -1.
         11    1    3    3    0    0  0.11854152954E+01  0.10106011578E+02 -0.80722375718E+01  0.12988367839E+02  0.51100000000E-03 0. -1.
        -11    1    3    3    0    0 -0.27819530204E+02  0.70044445586E+01 -0.96061010345E+01  0.30253358189E+02  0.51100000000E-03 0.  1.
         12    1    3    3    0    0  0.10388940409E+02 -0.11223633954E+02  0.24897744242E+02  0.29219817082E+02  0.00000000000E+00 0. -1.
</event>
<event>
 7    1  0.1692604E-013  0.7246159E+02  0.7816164E-02  0.1226708E+00
        -11   -1    0    0    0    0  0.00000000000E+00  0.00000000000E+00  0.45593999997E+02  0.45594000000E+02  0.51100000000E-03 0. -1.
         11   -1    0    0    0    0 -0.00000000000E+00 -0.00000000000E+00 -0.45593999997E+02  0.45594000000E+02  0.51100000000E-03 0.  1.
    9900012    2    1    2    0    0 -0.61893479408E+01  0.30627901410E+01 -0.17406601251E+02  0.72461588745E+02  0.70000024036E+02 0.  0.
         12    1    1    2    0    0  0.61893479408E+01 -0.30627901410E+01  0.17406601251E+02  0.18726411255E+02  0.00000000000E+00 0. -1.
         11    1    3    3    0    0 -0.20770290122E+02  0.21160993452E+02  0.10647511183E+02  0.31504953424E+02  0.51100000000E-03 0. -1.
        -11    1    3    3    0    0 -0.32453544584E+01 -0.28377022457E+01 -0.11381513371E+02  0.12170609125E+02  0.51100000000E-03 0.  1.
        -12    1    3    3    0    0  0.17826296639E+02 -0.15260501066E+02 -0.16672599063E+02  0.28786026196E+02  0.00000000000E+00 0.  1.
</event>
<event>
 7    1  0.1692604E-013  0.7246154E+02  0.7816164E-02  0.1226708E+00
        -11   -1    0    0    0    0  0.00000000000E+00  0.00000000000E+00  0.45593999997E+02  0.45594000000E+02  0.51100000000E-03 0.  1.
         11   -1    0    0    0    0 -0.00000000000E+00 -0.00000000000E+00 -0.45593999997E+02  0.45594000000E+02  0.51100000000E-03 0. -1.
    9900012    2    1    2    0    0  0.12023251426E+02  0.99465519998E+01 -0.10353147836E+02  0.72461544338E+02  0.69999966187E+02 0.  0.
         12    1    1    2    0    0 -0.12023251426E+02 -0.99465519998E+01  0.10353147836E+02  0.18726455662E+02  0.00000000000E+00 0. -1.
         11    1    3    3    0    0 -0.14674000872E+02  0.58160018418E+01 -0.14440115955E+02  0.21393202848E+02  0.51100000000E-03 0. -1.
        -11    1    3    3    0    0  0.43431704387E+01  0.17738130963E+02  0.14075400758E+02  0.23056914934E+02  0.51100000000E-03 0.  1.
        -12    1    3    3    0    0  0.22354081860E+02 -0.13607580805E+02 -0.99884326390E+01  0.28011426557E+02  0.00000000000E+00 0.  1.
</event>
<event>
 7    1  0.1692604E-013  0.7246160E+02  0.7816164E-02  0.1226708E+00
        -11   -1    0    0    0    0  0.00000000000E+00  0.00000000000E+00  0.45593999997E+02  0.45594000000E+02  0.51100000000E-03 0. -1.
         11   -1    0    0    0    0 -0.00000000000E+00 -0.00000000000E+00 -0.45593999997E+02  0.45594000000E+02  0.51100000000E-03 0.  1.
    9900012    2    1    2    0    0 -0.12032359694E+02  0.20543349674E+01  0.14201410017E+02  0.72461601028E+02  0.70000040037E+02 0.  0.
         12    1    1    2    0    0  0.12032359694E+02 -0.20543349674E+01 -0.14201410017E+02  0.18726398972E+02  0.00000000000E+00 0. -1.
         11    1    3    3    0    0 -0.14293877318E+02  0.17756402150E+02  0.14563631812E+02  0.27050029906E+02  0.51100000000E-03 0. -1.
        -11    1    3    3    0    0 -0.80182822998E+00  0.12767075513E+02 -0.88398976063E+01  0.15549435218E+02  0.51100000000E-03 0.  1.
        -12    1    3    3    0    0  0.30633458537E+01 -0.28469142695E+02  0.84776758109E+01  0.29862135904E+02  0.00000000000E+00 0.  1.
</event>
<event>
 7    1  0.1692604E-013  0.7246155E+02  0.7816164E-02  0.1226708E+00
        -11   -1    0    0    0    0  0.00000000000E+00  0.00000000000E+00  0.45593999997E+02  0.45594000000E+02  0.51100000000E-03 0. -1.
         11   -1    0    0    0    0 -0.00000000000E+00 -0.00000000000E+00 -0.45593999997E+02  0.45594000000E+02  0.51100000000E-03 0.  1.
    9900012    2    1    2    0    0  0.58366261395E+01 -0.11570998770E+02 -0.13517612904E+02  0.72461546095E+02  0.69999968476E+02 0.  0.
         12    1    1    2    0    0 -0.58366261395E+01  0.11570998770E+02  0.13517612904E+02  0.18726453905E+02  0.00000000000E+00 0. -1.
         11    1    3    3    0    0  0.18231776755E+02  0.40513616041E+01  0.12742963946E+02  0.22609607358E+02  0.51100000000E-03 0. -1.
        -11    1    3    3    0    0  0.43910137752E+00 -0.18947106038E+02  0.15777928459E+01  0.19017756644E+02  0.51100000000E-03 0.  1.
        -12    1    3    3    0    0 -0.12834251993E+02  0.33247456644E+01 -0.27838369696E+02  0.30834182092E+02  0.00000000000E+00 0.  1.
</event>
<event>
 7    1  0.1692604E-013  0.7246157E+02  0.7816164E-02  0.1226708E+00
        -11   -1    0    0    0    0  0.00000000000E+00  0.00000000000E+00  0.45593999997E+02  0.45594000000E+02  0.51100000000E-03 0.  1.
         11   -1    0    0    0    0 -0.00000000000E+00 -0.00000000000E+00 -0.45593999997E+02  0.45594000000E+02  0.51100000000E-03 0. -1.
    9900012    2    1    2    0    0  0.18647917057E+01  0.11570523395E+01  0.18597393220E+02  0.72461568070E+02  0.69999997103E+02 0.  0.
         12    1    1    2    0    0 -0.18647917057E+01 -0.11570523395E+01 -0.18597393220E+02  0.18726431930E+02  0.00000000000E+00 0. -1.
         11    1    3    3    0    0  0.15211003437E+02 -0.14905062516E+01 -0.65563371615E+01  0.16630748380E+02  0.51100000000E-03 0. -1.
        -11    1    3    3    0    0 -0.23356289483E+02 -0.25612854858E+01 -0.46591969970E+01  0.23953800505E+02  0.51100000000E-03 0.  1.
         12    1    3    3    0    0  0.10010077752E+02  0.52088440769E+01  0.29812927379E+02  0.31877019185E+02  0.00000000000E+00 0. -1.
</event>
<event>
 7    1  0.1692604E-013  0.7246160E+02  0.7816164E-02  0.1226708E+00
        -11   -1    0    0    0    0  0.00000000000E+00  0.00000000000E+00  0.45593999997E+02  0.45594000000E+02  0.51100000000E-03 0. -1.
         11   -1    0    0    0    0 -0.00000000000E+00 -0.00000000000E+00 -0.45593999997E+02  0.45594000000E+02  0.51100000000E-03 0.  1.
    9900012    2    1    2    0    0  0.78847360765E+01 -0.32921111541E+01 -0.16663459530E+02  0.72461603060E+02  0.70000042684E+02 0.  0.
         12    1    1    2    0    0 -0.78847360765E+01  0.32921111541E+01  0.16663459530E+02  0.18726396940E+02  0.00000000000E+00 0. -1.
         11    1    3    3    0    0 -0.14856120333E+02  0.22443598163E+02 -0.17827811897E+02  0.32283901362E+02  0.51100000000E-03 0. -1.
        -11    1    3    3    0    0  0.25452988993E+01 -0.28038975965E+01 -0.75122564153E+01  0.84127513293E+01  0.51100000000E-03 0.  1.
        -12    1    3    3    0    0  0.20195557510E+02 -0.22931811721E+02  0.86766087831E+01  0.31764950369E+02  0.00000000000E+00 0.  1.
</event>
<event>
 7    1  0.1692604E-013  0.7246150E+02  0.7816164E-02  0.1226708E+00
        -11   -1    0    0    0    0  0.00000000000E+00  0.00000000000E+00  0.45593999997E+02  0.45594000000E+02  0.51100000000E-03 0.  1.
         11   -1    0    0    0    0 -0.00000000000E+00 -0.00000000000E+00 -0.45593999997E+02  0.45594000000E+02  0.51100000000E-03 0. -1.
    9900012    2    1    2    0    0  0.14070713626E+02  0.49388040294E+01 -0.11327177146E+02  0.72461502483E+02  0.69999911663E+02 0.  0.
         12    1    1    2    0    0 -0.14070713626E+02 -0.49388040294E+01  0.11327177146E+02  0.18726497517E+02  0.00000000000E+00 0. -1.
         11    1    3    3    0    0  0.37456545725E+01  0.19414848580E+02  0.75762017786E+01  0.21174633579E+02  0.51100000000E-03 0. -1.
        -11    1    3    3    0    0 -0.28444006488E+01  0.12179358346E+02  0.46634498483E+01  0.13348226456E+02  0.51100000000E-03 0.  1.
         12    1    3    3    0    0  0.13169459702E+02 -0.26655402896E+02 -0.23566828772E+02  0.37938642448E+02  0.00000000000E+00 0. -1.
</event>
<event>
 7    1  0.1692604E-013  0.7246160E+02  0.7816164E-02  0.1226708E+00
        -11   -1    0    0    0    0  0.00000000000E+00  0.00000000000E+00  0.45593999997E+02  0.45594000000E+02  0.51100000000E-03 0.  1.
         11   -1    0    0    0    0 -0.00000000000E+00 -0.00000000000E+00 -0.45593999997E+02  0.45594000000E+02  0.51100000000E-03 0. -1.
    9900012    2    1    2    0    0 -0.13924254346E+02 -0.95616677910E+01  0.80850380816E+01  0.72461596426E+02  0.70000034041E+02 0.  0.
         12    1    1    2    0    0  0.13924254346E+02  0.95616677910E+01 -0.80850380816E+01  0.18726403574E+02  0.00000000000E+00 0. -1.
         11    1    3    3    0    0 -0.34130438326E+01  0.13590306578E+02 -0.20745574305E+02  0.25034459343E+02  0.51100000000E-03 0. -1.
        -11    1    3    3    0    0  0.91505479329E+01 -0.10104495473E+02  0.72025531030E+01  0.15417850943E+02  0.51100000000E-03 0.  1.
        -12    1    3    3    0    0 -0.19661758447E+02 -0.13047478896E+02  0.21628059284E+02  0.32009286139E+02  0.00000000000E+00 0.  1.
</event>
<event>
 7    1  0.1692604E-013  0.7246155E+02  0.7816164E-02  0.1226708E+00
        -11   -1    0    0    0    0  0.00000000000E+00  0.00000000000E+00  0.45593999997E+02  0.45594000000E+02  0.51100000000E-03 0. -1.
         11   -1    0    0    0    0 -0.00000000000E+00 -0.00000000000E+00 -0.45593999997E+02  0.45594000000E+02  0.51100000000E-03 0.  1.
    9900012    2    1    2    0    0 -0.13688082962E+02  0.82056607651E+01 -0.97971078334E+01  0.72461553309E+02  0.69999977874E+02 0.  0.
         12    1    1    2    0    0  0.13688082962E+02 -0.82056607651E+01  0.97971078334E+01  0.18726446691E+02  0.00000000000E+00 0. -1.
         11    1    3    3    0    0  0.20627660405E+02 -0.10277547420E+02 -0.12153312045E+02  0.26054392119E+02  0.51100000000E-03 0. -1.
        -11    1    3    3    0    0 -0.44066948383E+00 -0.96213909538E+00 -0.63097686472E+01  0.63978966759E+01  0.51100000000E-03 0.  1.
        -12    1    3    3    0    0 -0.33875073883E+02  0.19445347280E+02  0.86659728585E+01  0.40009264515E+02  0.00000000000E+00 0.  1.
</event>
<event>
 7    1  0.1692604E-013  0.7246158E+02  0.7816164E-02  0.1226708E+00
        -11   -1    0    0    0    0  0.00000000000E+00  0.00000000000E+00  0.45593999997E+02  0.45594000000E+02  0.51100000000E-03 0. -1.
         11   -1    0    0    0    0 -0.00000000000E+00 -0.00000000000E+00 -0.45593999997E+02  0.45594000000E+02  0.51100000000E-03 0.  1.
    9900012    2    1    2    0    0  0.20833196358E+01  0.82664265723E+01 -0.16673478713E+02  0.72461576920E+02  0.70000008631E+02 0.  0.
         12    1    1    2    0    0 -0.20833196358E+01 -0.82664265723E+01  0.16673478713E+02  0.18726423080E+02  0.00000000000E+00 0. -1.
         11    1    3    3    0    0  0.13203430531E+02 -0.20223844760E+02 -0.14247002334E+02  0.28041247305E+02  0.51100000000E-03 0. -1.
        -11    1    3    3    0    0  0.22208649049E+01 -0.25172677016E+00  0.10101916964E+02  0.10346223171E+02  0.51100000000E-03 0.  1.
        -12    1    3    3    0    0 -0.13340975800E+02  0.28741998103E+02 -0.12528393343E+02  0.34074106444E+02  0.00000000000E+00 0.  1.
</event>
<event>
 7    1  0.1692604E-013  0.7246158E+02  0.7816164E-02  0.1226708E+00
        -11   -1    0    0    0    0  0.00000000000E+00  0.00000000000E+00  0.45593999997E+02  0.45594000000E+02  0.51100000000E-03 0.  1.
         11   -1    0    0    0    0 -0.00000000000E+00 -0.00000000000E+00 -0.45593999997E+02  0.45594000000E+02  0.51100000000E-03 0. -1.
    9900012    2    1    2    0    0 -0.17431618474E+02  0.56037544384E+01  0.39262662648E+01  0.72461576070E+02  0.70000007524E+02 0.  0.
         12    1    1    2    0    0  0.17431618474E+02 -0.56037544384E+01 -0.39262662648E+01  0.18726423930E+02  0.00000000000E+00 0. -1.
         11    1    3    3    0    0 -0.11278787109E+02 -0.22102155733E+02 -0.90729773023E+01  0.26420356623E+02  0.51100000000E-03 0. -1.
        -11    1    3    3    0    0  0.84261509151E+00 -0.57983909660E+01 -0.46977062928E+01  0.75099788722E+01  0.51100000000E-03 0.  1.
        -12    1    3    3    0    0 -0.69954464566E+01  0.33504301138E+02  0.17696949860E+02  0.38531240574E+02  0.00000000000E+00 0.  1.
</event>
<event>
 7    1  0.1692604E-013  0.7246156E+02  0.7816164E-02  0.1226708E+00
        -11   -1    0    0    0    0  0.00000000000E+00  0.00000000000E+00  0.45593999997E+02  0.45594000000E+02  0.51100000000E-03 0.  1.
         11   -1    0    0    0    0 -0.00000000000E+00 -0.00000000000E+00 -0.45593999997E+02  0.45594000000E+02  0.51100000000E-03 0. -1.
    9900012    2    1    2    0    0  0.45314792261E+01  0.16523339981E+02 -0.75580626242E+01  0.72461564709E+02  0.69999992724E+02 0.  0.
         12    1    1    2    0    0 -0.45314792261E+01 -0.16523339981E+02  0.75580626242E+01  0.18726435291E+02  0.00000000000E+00 0. -1.
         11    1    3    3    0    0  0.11283672564E+02 -0.49150620692E+01 -0.82916324395E+00  0.12335583230E+02  0.51100000000E-03 0. -1.
        -11    1    3    3    0    0  0.12753451560E+02  0.33667575840E+02 -0.86405573239E+01  0.37024524585E+02  0.51100000000E-03 0.  1.
        -12    1    3    3    0    0 -0.19505644898E+02 -0.12229173791E+02  0.19116579436E+01  0.23101456893E+02  0.00000000000E+00 0.  1.
</event>
<event>
 7    1  0.1692604E-013  0.7246153E+02  0.7816164E-02  0.1226708E+00
        -11   -1    0    0    0    0  0.00000000000E+00  0.00000000000E+00  0.45593999997E+02  0.45594000000E+02  0.51100000000E-03 0.  1.
         11   -1    0    0    0    0 -0.00000000000E+00 -0.00000000000E+00 -0.45593999997E+02  0.45594000000E+02  0.51100000000E-03 0. -1.
    9900012    2    1    2    0    0  0.11303327903E+02  0.11364782277E+02  0.96828370693E+01  0.72461525917E+02  0.69999942190E+02 0.  0.
         12    1    1    2    0    0 -0.11303327903E+02 -0.11364782277E+02 -0.96828370693E+01  0.18726474083E+02  0.00000000000E+00 0. -1.
         11    1    3    3    0    0 -0.14297644546E+02  0.10782517452E+02  0.64147680235E+01  0.19021949722E+02  0.51100000000E-03 0. -1.
        -11    1    3    3    0    0  0.18324064226E+02  0.18208870476E+02  0.16114170180E+02  0.30446687416E+02  0.51100000000E-03 0.  1.
         12    1    3    3    0    0  0.72769082230E+01 -0.17626605651E+02 -0.12846101134E+02  0.22992888779E+02  0.00000000000E+00 0. -1.
</event>
<event>
 7    1  0.1692604E-013  0.7246168E+02  0.7816164E-02  0.1226708E+00
        -11   -1    0    0    0    0  0.00000000000E+00  0.00000000000E+00  0.45593999997E+02  0.45594000000E+02  0.51100000000E-03 0. -1.
         11   -1    0    0    0    0 -0.00000000000E+00 -0.00000000000E+00 -0.45593999997E+02  0.45594000000E+02  0.51100000000E-03 0.  1.
    9900012    2    1    2    0    0 -0.10725590142E+02  0.27419554150E+01 -0.15103589347E+02  0.72461681233E+02  0.70000144518E+02 0.  0.
         12    1    1    2    0    0  0.10725590142E+02 -0.27419554150E+01  0.15103589347E+02  0.18726318767E+02  0.00000000000E+00 0. -1.
         11    1    3    3    0    0  0.87656735166E+00  0.10357009154E+02 -0.67076070768E+01  0.12370448735E+02  0.51100000000E-03 0. -1.
        -11    1    3    3    0    0 -0.23954331154E+02 -0.15188390194E+01 -0.27523955784E+02  0.36519652179E+02  0.51100000000E-03 0.  1.
        -12    1    3    3    0    0  0.12352173661E+02 -0.60962147197E+01  0.19127973513E+02  0.23571580320E+02  0.00000000000E+00 0.  1.
</event>
<event>
 7    1  0.1692604E-013  0.7246158E+02  0.7816164E-02  0.1226708E+00
        -11   -1    0    0    0    0  0.00000000000E+00  0.00000000000E+00  0.45593999997E+02  0.45594000000E+02  0.51100000000E-03 0.  1.
         11   -1    0    0    0    0 -0.00000000000E+00 -0.00000000000E+00 -0.45593999997E+02  0.45594000000E+02  0.51100000000E-03 0. -1.
    9900012    2    1    2    0    0  0.16200801855E+02  0.91901643643E+01  0.19374810495E+01  0.72461576566E+02  0.70000008170E+02 0.  0.
         12    1    1    2    0    0 -0.16200801855E+02 -0.91901643643E+01 -0.19374810495E+01  0.18726423434E+02  0.00000000000E+00 0. -1.
         11    1    3    3    0    0  0.69159773412E+01  0.33842922064E+01  0.10975783584E+02  0.13407162334E+02  0.51100000000E-03 0. -1.
        -11    1    3    3    0    0  0.17967996724E+02  0.25689888998E+02  0.69395818751E+01  0.32108832116E+02  0.51100000000E-03 0.  1.
         12    1    3    3    0    0 -0.86831722099E+01 -0.19884016840E+02 -0.15977884409E+02  0.26945582115E+02  0.00000000000E+00 0. -1.
</event>
<event>
 7    1  0.1692604E-013  0.7246157E+02  0.7816164E-02  0.1226708E+00
        -11   -1    0    0    0    0  0.00000000000E+00  0.00000000000E+00  0.45593999997E+02  0.45594000000E+02  0.51100000000E-03 0.  1.
         11   -1    0    0    0    0 -0.00000000000E+00 -0.00000000000E+00 -0.45593999997E+02  0.45594000000E+02  0.51100000000E-03 0. -1.
    9900012    2    1    2    0    0 -0.15702173827E+02 -0.31819728628E+01  0.96951544716E+01  0.72461568562E+02  0.69999997743E+02 0.  0.
         12    1    1    2    0    0  0.15702173827E+02  0.31819728628E+01 -0.96951544716E+01  0.18726431438E+02  0.00000000000E+00 0. -1.
         11    1    3    3    0    0  0.64885232584E+01 -0.10995838303E+02  0.40644279963E+01  0.13398842086E+02  0.51100000000E-03 0. -1.
        -11    1    3    3    0    0  0.22227440284E+01 -0.39988915678E-01  0.26134100164E+02  0.26228484168E+02  0.51100000000E-03 0.  1.
         12    1    3    3    0    0 -0.24413441114E+02  0.78538543557E+01 -0.20503373689E+02  0.32834242307E+02  0.00000000000E+00 0. -1.
</event>
<event>
 7    1  0.1692604E-013  0.7246156E+02  0.7816164E-02  0.1226708E+00
        -11   -1    0    0    0    0  0.00000000000E+00  0.00000000000E+00  0.45593999997E+02  0.45594000000E+02  0.51100000000E-03 0. -1.
         11   -1    0    0    0    0 -0.00000000000E+00 -0.00000000000E+00 -0.45593999997E+02  0.45594000000E+02  0.51100000000E-03 0.  1.
    9900012    2    1    2    0    0  0.12478770657E+02  0.12385176581E+02  0.64472767183E+01  0.72461556313E+02  0.69999981787E+02 0.  0.
         12    1    1    2    0    0 -0.12478770657E+02 -0.12385176581E+02 -0.64472767183E+01  0.18726443687E+02  0.00000000000E+00 0. -1.
         11    1    3    3    0    0  0.27759251920E+02  0.63414739726E+00  0.82873276109E+01  0.28976852991E+02  0.51100000000E-03 0. -1.
        -11    1    3    3    0    0  0.80119440101E+01  0.92798363847E+01 -0.12712580494E+02  0.17661152658E+02  0.51100000000E-03 0.  1.
         12    1    3    3    0    0 -0.23292425273E+02  0.24711927995E+01  0.10872529601E+02  0.25823550664E+02  0.00000000000E+00 0. -1.
</event>
<event>
 7    1  0.1692604E-013  0.7246161E+02  0.7816164E-02  0.1226708E+00
        -11   -1    0    0    0    0  0.00000000000E+00  0.00000000000E+00  0.45593999997E+02  0.45594000000E+02  0.51100000000E-03 0.  1.
         11   -1    0    0    0    0 -0.00000000000E+00 -0.00000000000E+00 -0.45593999997E+02  0.45594000000E+02  0.51100000000E-03 0. -1.
    9900012    2    1    2    0    0  0.78405988507E+01  0.10419496777E+02  0.13440122528E+02  0.72461606941E+02  0.70000047740E+02 0.  0.
         12    1    1    2    0    0 -0.78405988507E+01 -0.10419496777E+02 -0.13440122528E+02  0.18726393059E+02  0.00000000000E+00 0. -1.
         11    1    3    3    0    0  0.16213043870E+02 -0.86386838143E+01 -0.10193270690E+02  0.21009341189E+02  0.51100000000E-03 0. -1.
        -11    1    3    3    0    0 -0.20038781761E+02  0.54586916030E+01 -0.12299066502E+01  0.20805354097E+02  0.51100000000E-03 0.  1.
         12    1    3    3    0    0  0.11666336741E+02  0.13599488988E+02  0.24863299868E+02  0.30646911655E+02  0.00000000000E+00 0. -1.
</event>
<event>
 7    1  0.1692604E-013  0.7246162E+02  0.7816164E-02  0.1226708E+00
        -11   -1    0    0    0    0  0.00000000000E+00  0.00000000000E+00  0.45593999997E+02  0.45594000000E+02  0.51100000000E-03 0. -1.
         11   -1    0    0    0    0 -0.00000000000E+00 -0.00000000000E+00 -0.45593999997E+02  0.45594000000E+02  0.51100000000E-03 0.  1.
    9900012    2    1    2    0    0 -0.15859191781E+01  0.69633494068E+01 -0.17311089316E+02  0.72461623204E+02  0.70000068925E+02 0.  0.
         12    1    1    2    0    0  0.15859191781E+01 -0.69633494068E+01  0.17311089316E+02  0.18726376796E+02  0.00000000000E+00 0. -1.
         11    1    3    3    0    0  0.15202061269E+02  0.98482465037E+00 -0.10413752490E+02  0.18453151156E+02  0.51100000000E-03 0. -1.
        -11    1    3    3    0    0 -0.31634175586E+01  0.23967204261E+02 -0.16723747202E+02  0.29395880859E+02  0.51100000000E-03 0.  1.
         12    1    3    3    0    0 -0.13624562888E+02 -0.17988679504E+02  0.98264103759E+01  0.24612591190E+02  0.00000000000E+00 0. -1.
</event>
<event>
 8    1  0.1692604E-013  0.7246158E+02  0.7816164E-02  0.1226708E+00
        -11   -1    0    0    0    0  0.00000000000E+00  0.00000000000E+00  0.45593999997E+02  0.45594000000E+02  0.51100000000E-03 0. -1.
         11   -1    0    0    0    0 -0.00000000000E+00 -0.00000000000E+00 -0.45593999997E+02  0.45594000000E+02  0.51100000000E-03 0.  1.
    9900012    2    1    2    0    0 -0.75259599101E+01 -0.12449889398E+02 -0.11791484985E+02  0.72461576510E+02  0.70000008097E+02 0.  0.
         23    2    3    3    0    0 -0.12510189758E+02 -0.30277848109E+01  0.63312815848E+00  0.56091188189E+02  0.54590733761E+02 0.  0.
         12    1    1    2    0    0  0.75259599101E+01  0.12449889398E+02  0.11791484985E+02  0.18726423490E+02  0.00000000000E+00 0. -1.
         11    1    4    4    0    0  0.15240238309E+01 -0.25979821056E+02  0.95921544568E+01  0.27735954610E+02  0.51100000000E-03 0. -1.
        -11    1    4    4    0    0 -0.14034213589E+02  0.22952036245E+02 -0.89590262984E+01  0.28355233579E+02  0.51100000000E-03 0.  1.
         12    1    3    3    0    0  0.49842298480E+01 -0.94221045870E+01 -0.12424613143E+02  0.16370388321E+02  0.00000000000E+00 0. -1.
</event>
<event>
 7    1  0.1692604E-013  0.7246160E+02  0.7816164E-02  0.1226708E+00
        -11   -1    0    0    0    0  0.00000000000E+00  0.00000000000E+00  0.45593999997E+02  0.45594000000E+02  0.51100000000E-03 0. -1.
         11   -1    0    0    0    0 -0.00000000000E+00 -0.00000000000E+00 -0.45593999997E+02  0.45594000000E+02  0.51100000000E-03 0.  1.
    9900012    2    1    2    0    0 -0.15387202913E+01 -0.11043928794E+02 -0.15044670590E+02  0.72461597876E+02  0.70000035931E+02 0.  0.
         12    1    1    2    0    0  0.15387202913E+01  0.11043928794E+02  0.15044670590E+02  0.18726402124E+02  0.00000000000E+00 0. -1.
         11    1    3    3    0    0 -0.23656725548E+02  0.97386024952E+01  0.72302470366E+00  0.25593042163E+02  0.51100000000E-03 0. -1.
        -11    1    3    3    0    0 -0.37575229807E+01 -0.15939439565E+02 -0.38932812207E+00  0.16380973391E+02  0.51100000000E-03 0.  1.
        -12    1    3    3    0    0  0.25875528237E+02 -0.48430917241E+01 -0.15378367172E+02  0.30487582322E+02  0.00000000000E+00 0.  1.
</event>
<event>
 7    1  0.1692604E-013  0.7246154E+02  0.7816164E-02  0.1226708E+00
        -11   -1    0    0    0    0  0.00000000000E+00  0.00000000000E+00  0.45593999997E+02  0.45594000000E+02  0.51100000000E-03 0.  1.
         11   -1    0    0    0    0 -0.00000000000E+00 -0.00000000000E+00 -0.45593999997E+02  0.45594000000E+02  0.51100000000E-03 0. -1.
    9900012    2    1    2    0    0 -0.17645888938E+02  0.36625031678E+01 -0.50881037093E+01  0.72461544777E+02  0.69999966759E+02 0.  0.
         12    1    1    2    0    0  0.17645888938E+02 -0.36625031678E+01  0.50881037093E+01  0.18726455223E+02  0.00000000000E+00 0. -1.
         11    1    3    3    0    0  0.18687906986E+01 -0.15150733486E+02 -0.58979093778E+01  0.16365281517E+02  0.51100000000E-03 0. -1.
        -11    1    3    3    0    0 -0.16196150847E+02 -0.13388321487E+02  0.87536023836E+01  0.22763743309E+02  0.51100000000E-03 0.  1.
         12    1    3    3    0    0 -0.33185287892E+01  0.32201558141E+02 -0.79437967151E+01  0.33332519951E+02  0.00000000000E+00 0. -1.
</event>
<event>
 7    1  0.1692604E-013  0.7246154E+02  0.7816164E-02  0.1226708E+00
        -11   -1    0    0    0    0  0.00000000000E+00  0.00000000000E+00  0.45593999997E+02  0.45594000000E+02  0.51100000000E-03 0. -1.
         11   -1    0    0    0    0 -0.00000000000E+00 -0.00000000000E+00 -0.45593999997E+02  0.45594000000E+02  0.51100000000E-03 0.  1.
    9900012    2    1    2    0    0  0.28581159082E+01 -0.68309974662E+01 -0.17200259279E+02  0.72461540853E+02  0.69999961647E+02 0.  0.
         12    1    1    2    0    0 -0.28581159082E+01  0.68309974662E+01  0.17200259279E+02  0.18726459147E+02  0.00000000000E+00 0. -1.
         11    1    3    3    0    0 -0.25176747223E+01 -0.14323566879E+02  0.97393867595E+01  0.17503111405E+02  0.51100000000E-03 0. -1.
        -11    1    3    3    0    0 -0.20253638734E+02  0.10072258073E+01 -0.17809803196E+02  0.26989136257E+02  0.51100000000E-03 0.  1.
         12    1    3    3    0    0  0.25629429364E+02  0.64853436060E+01 -0.91298428423E+01  0.27969293190E+02  0.00000000000E+00 0. -1.
</event>
<event>
 7    1  0.1692604E-013  0.7246155E+02  0.7816164E-02  0.1226708E+00
        -11   -1    0    0    0    0  0.00000000000E+00  0.00000000000E+00  0.45593999997E+02  0.45594000000E+02  0.51100000000E-03 0.  1.
         11   -1    0    0    0    0 -0.00000000000E+00 -0.00000000000E+00 -0.45593999997E+02  0.45594000000E+02  0.51100000000E-03 0. -1.
    9900012    2    1    2    0    0  0.74864210913E+01 -0.10873753368E+02 -0.13281377824E+02  0.72461547854E+02  0.69999970768E+02 0.  0.
         12    1    1    2    0    0 -0.74864210913E+01  0.10873753368E+02  0.13281377824E+02  0.18726452146E+02  0.00000000000E+00 0. -1.
         11    1    3    3    0    0 -0.10965016472E+02  0.19391944336E+02 -0.69439526135E+01  0.23334471701E+02  0.51100000000E-03 0. -1.
        -11    1    3    3    0    0  0.18828478642E+01 -0.56800047885E+01  0.12599154448E+02  0.13947984211E+02  0.51100000000E-03 0.  1.
         12    1    3    3    0    0  0.16568589699E+02 -0.24585692915E+02 -0.18936579659E+02  0.35179091943E+02  0.00000000000E+00 0. -1.
</event>
<event>
 7    1  0.1692604E-013  0.7246158E+02  0.7816164E-02  0.1226708E+00
        -11   -1    0    0    0    0  0.00000000000E+00  0.00000000000E+00  0.45593999997E+02  0.45594000000E+02  0.51100000000E-03 0. -1.
         11   -1    0    0    0    0 -0.00000000000E+00 -0.00000000000E+00 -0.45593999997E+02  0.45594000000E+02  0.51100000000E-03 0.  1.
    9900012    2    1    2    0    0 -0.14080537357E+02 -0.12252688256E+02  0.15129726664E+01  0.72461575140E+02  0.70000006312E+02 0.  0.
         12    1    1    2    0    0  0.14080537357E+02  0.12252688256E+02 -0.15129726664E+01  0.18726424860E+02  0.00000000000E+00 0. -1.
         11    1    3    3    0    0  0.21411118304E+01 -0.86964397562E+00 -0.66595077377E+01  0.70490910112E+01  0.51100000000E-03 0. -1.
        -11    1    3    3    0    0 -0.16728019182E+02  0.23380881867E+02 -0.29729979819E+01  0.28902093002E+02  0.51100000000E-03 0.  1.
         12    1    3    3    0    0  0.50636999362E+00 -0.34763926147E+02  0.11145478386E+02  0.36510391126E+02  0.00000000000E+00 0. -1.
</event>
<event>
 7    1  0.1692604E-013  0.7246154E+02  0.7816164E-02  0.1226708E+00
        -11   -1    0    0    0    0  0.00000000000E+00  0.00000000000E+00  0.45593999997E+02  0.45594000000E+02  0.51100000000E-03 0.  1.
         11   -1    0    0    0    0 -0.00000000000E+00 -0.00000000000E+00 -0.45593999997E+02  0.45594000000E+02  0.51100000000E-03 0. -1.
    9900012    2    1    2    0    0  0.13400426313E+02  0.25944069097E+01  0.12820996996E+02  0.72461539134E+02  0.69999959408E+02 0.  0.
         12    1    1    2    0    0 -0.13400426313E+02 -0.25944069097E+01 -0.12820996996E+02  0.18726460866E+02  0.00000000000E+00 0. -1.
         11    1    3    3    0    0  0.22144173538E+02 -0.77219422846E+01  0.14235112650E+02  0.27434125588E+02  0.51100000000E-03 0. -1.
        -11    1    3    3    0    0 -0.59447573524E+01  0.15118795922E+02  0.18343301451E+02  0.24502955709E+02  0.51100000000E-03 0.  1.
         12    1    3    3    0    0 -0.27989898732E+01 -0.48024467274E+01 -0.19757417105E+02  0.20524457838E+02  0.00000000000E+00 0. -1.
</event>
<event>
 7    1  0.1692604E-013  0.7246157E+02  0.7816164E-02  0.1226708E+00
        -11   -1    0    0    0    0  0.00000000000E+00  0.00000000000E+00  0.45593999997E+02  0.45594000000E+02  0.51100000000E-03 0. -1.
         11   -1    0    0    0    0 -0.00000000000E+00 -0.00000000000E+00 -0.45593999997E+02  0.45594000000E+02  0.51100000000E-03 0.  1.
    9900012    2    1    2    0    0  0.14016728307E+02 -0.67005358590E+01  0.10455299432E+02  0.72461571097E+02  0.70000001046E+02 0.  0.
         12    1    1    2    0    0 -0.14016728307E+02  0.67005358590E+01 -0.10455299432E+02  0.18726428903E+02  0.00000000000E+00 0. -1.
         11    1    3    3    0    0  0.72749636414E+01 -0.43259921083E+01  0.70169433969E+01  0.10994398510E+02  0.51100000000E-03 0. -1.
        -11    1    3    3    0    0  0.12161435049E+02  0.16950796360E+02 -0.21163026407E+02  0.29717060532E+02  0.51100000000E-03 0.  1.
         12    1    3    3    0    0 -0.54196703830E+01 -0.19325340111E+02  0.24601382442E+02  0.31750112055E+02  0.00000000000E+00 0. -1.
</event>
<event>
 7    1  0.1692604E-013  0.7246157E+02  0.7816164E-02  0.1226708E+00
        -11   -1    0    0    0    0  0.00000000000E+00  0.00000000000E+00  0.45593999997E+02  0.45594000000E+02  0.51100000000E-03 0.  1.
         11   -1    0    0    0    0 -0.00000000000E+00 -0.00000000000E+00 -0.45593999997E+02  0.45594000000E+02  0.51100000000E-03 0. -1.
    9900012    2    1    2    0    0  0.18342922767E+02 -0.35375405265E+01  0.13046970983E+01  0.72461568329E+02  0.69999997440E+02 0.  0.
         12    1    1    2    0    0 -0.18342922767E+02  0.35375405265E+01 -0.13046970983E+01  0.18726431671E+02  0.00000000000E+00 0. -1.
         11    1    3    3    0    0 -0.33519224341E+01  0.21236963220E+02 -0.10231574650E+02  0.23810273222E+02  0.51100000000E-03 0. -1.
        -11    1    3    3    0    0 -0.53512874211E+01  0.40237457119E+01 -0.18355307757E+01  0.69423324688E+01  0.51100000000E-03 0.  1.
        -12    1    3    3    0    0  0.27046132622E+02 -0.28798249458E+02  0.13371802524E+02  0.41708962639E+02  0.00000000000E+00 0.  1.
</event>
<event>
 7    1  0.1692604E-013  0.7246154E+02  0.7816164E-02  0.1226708E+00
        -11   -1    0    0    0    0  0.00000000000E+00  0.00000000000E+00  0.45593999997E+02  0.45594000000E+02  0.51100000000E-03 0.  1.
         11   -1    0    0    0    0 -0.00000000000E+00 -0.00000000000E+00 -0.45593999997E+02  0.45594000000E+02  0.51100000000E-03 0. -1.
    9900012    2    1    2    0    0 -0.67391901196E+01  0.35750824844E+01  0.17102116008E+02  0.72461540906E+02  0.69999961717E+02 0.  0.
         12    1    1    2    0    0  0.67391901196E+01 -0.35750824844E+01 -0.17102116008E+02  0.18726459094E+02  0.00000000000E+00 0. -1.
         11    1    3    3    0    0 -0.19163072428E+01  0.57412546986E+01 -0.27210810774E+01  0.66361526093E+01  0.51100000000E-03 0. -1.
        -11    1    3    3    0    0  0.85670337902E+01  0.26777700346E+02 -0.29977241609E+00  0.28116350538E+02  0.51100000000E-03 0.  1.
         12    1    3    3    0    0 -0.13389916667E+02 -0.28943872561E+02  0.20122969502E+02  0.37709037759E+02  0.00000000000E+00 0. -1.
</event>
<event>
 7    1  0.1692604E-013  0.7246159E+02  0.7816164E-02  0.1226708E+00
        -11   -1    0    0    0    0  0.00000000000E+00  0.00000000000E+00  0.45593999997E+02  0.45594000000E+02  0.51100000000E-03 0. -1.
         11   -1    0    0    0    0 -0.00000000000E+00 -0.00000000000E+00 -0.45593999997E+02  0.45594000000E+02  0.51100000000E-03 0.  1.
    9900012    2    1    2    0    0 -0.55359600936E+01  0.16315281677E+02  0.73377984774E+01  0.72461586653E+02  0.70000021310E+02 0.  0.
         12    1    1    2    0    0  0.55359600936E+01 -0.16315281677E+02 -0.73377984774E+01  0.18726413347E+02  0.00000000000E+00 0. -1.
         11    1    3    3    0    0 -0.29464611496E+01  0.35720960054E+01 -0.93071179726E+01  0.10395381109E+02  0.51100000000E-03 0. -1.
        -11    1    3    3    0    0 -0.22753976780E+02 -0.44845206596E+00 -0.11097742931E+02  0.25320040817E+02  0.51100000000E-03 0.  1.
         12    1    3    3    0    0  0.20164477836E+02  0.13191637737E+02  0.27742659381E+02  0.36746164727E+02  0.00000000000E+00 0. -1.
</event>
<event>
 7    1  0.1692604E-013  0.7246159E+02  0.7816164E-02  0.1226708E+00
        -11   -1    0    0    0    0  0.00000000000E+00  0.00000000000E+00  0.45593999997E+02  0.45594000000E+02  0.51100000000E-03 0.  1.
         11   -1    0    0    0    0 -0.00000000000E+00 -0.00000000000E+00 -0.45593999997E+02  0.45594000000E+02  0.51100000000E-03 0. -1.
    9900012    2    1    2    0    0 -0.22009347377E+01 -0.20059248810E+01  0.18488120044E+02  0.72461590010E+02  0.70000025683E+02 0.  0.
         12    1    1    2    0    0  0.22009347377E+01  0.20059248810E+01 -0.18488120044E+02  0.18726409990E+02  0.00000000000E+00 0. -1.
         11    1    3    3    0    0 -0.65585251836E+01 -0.62424729523E+01  0.80719115620E+00  0.90903398709E+01  0.51100000000E-03 0. -1.
        -11    1    3    3    0    0 -0.21658301577E+02 -0.16642385523E+02  0.10407074680E+02  0.29229406884E+02  0.51100000000E-03 0.  1.
        -12    1    3    3    0    0  0.26015892023E+02  0.20878933595E+02  0.72738542079E+01  0.34141843255E+02  0.00000000000E+00 0.  1.
</event>
<event>
 7    1  0.1692604E-013  0.7246159E+02  0.7816164E-02  0.1226708E+00
        -11   -1    0    0    0    0  0.00000000000E+00  0.00000000000E+00  0.45593999997E+02  0.45594000000E+02  0.51100000000E-03 0. -1.
         11   -1    0    0    0    0 -0.00000000000E+00 -0.00000000000E+00 -0.45593999997E+02  0.45594000000E+02  0.51100000000E-03 0.  1.
    9900012    2    1    2    0    0 -0.91200304540E+01 -0.16175055040E+02 -0.24230400394E+01  0.72461588597E+02  0.70000023842E+02 0.  0.
         12    1    1    2    0    0  0.91200304540E+01  0.16175055040E+02  0.24230400394E+01  0.18726411403E+02  0.00000000000E+00 0. -1.
         11    1    3    3    0    0  0.37617769760E+01  0.43760174466E+01  0.52756752828E+01  0.78187751381E+01  0.51100000000E-03 0.  1.
        -11    1    3    3    0    0  0.18334406524E+02  0.96751541844E+01 -0.25387532888E+01  0.20885505491E+02  0.51100000000E-03 0. -1.
        -12    1    3    3    0    0 -0.31216213954E+02 -0.30226226671E+02 -0.51599620334E+01  0.43757307968E+02  0.00000000000E+00 0.  1.
</event>
<event>
 7    1  0.1692604E-013  0.7246155E+02  0.7816164E-02  0.1226708E+00
        -11   -1    0    0    0    0  0.00000000000E+00  0.00000000000E+00  0.45593999997E+02  0.45594000000E+02  0.51100000000E-03 0. -1.
         11   -1    0    0    0    0 -0.00000000000E+00 -0.00000000000E+00 -0.45593999997E+02  0.45594000000E+02  0.51100000000E-03 0.  1.
    9900012    2    1    2    0    0  0.26781280573E+01 -0.94779949820E+01 -0.15927178183E+02  0.72461554431E+02  0.69999979335E+02 0.  0.
         12    1    1    2    0    0 -0.26781280573E+01  0.94779949820E+01  0.15927178183E+02  0.18726445569E+02  0.00000000000E+00 0. -1.
         11    1    3    3    0    0  0.59675017633E+01  0.61553207172E+01  0.13256160002E+00  0.85741835334E+01  0.51100000000E-03 0. -1.
        -11    1    3    3    0    0  0.19504134128E+02  0.14319770057E+02 -0.62892964675E+01  0.25000446254E+02  0.51100000000E-03 0.  1.
         12    1    3    3    0    0 -0.22793507834E+02 -0.29953085756E+02 -0.97704433156E+01  0.38886924644E+02  0.00000000000E+00 0. -1.
</event>
<event>
 7    1  0.1692604E-013  0.7246157E+02  0.7816164E-02  0.1226708E+00
        -11   -1    0    0    0    0  0.00000000000E+00  0.00000000000E+00  0.45593999997E+02  0.45594000000E+02  0.51100000000E-03 0. -1.
         11   -1    0    0    0    0 -0.00000000000E+00 -0.00000000000E+00 -0.45593999997E+02  0.45594000000E+02  0.51100000000E-03 0.  1.
    9900012    2    1    2    0    0 -0.72880441242E+01 -0.13758219982E+02 -0.10405528726E+02  0.72461568618E+02  0.69999997816E+02 0.  0.
         12    1    1    2    0    0  0.72880441242E+01  0.13758219982E+02  0.10405528726E+02  0.18726431382E+02  0.00000000000E+00 0. -1.
         11    1    3    3    0    0  0.15289311254E+01  0.61436369094E+01  0.92678531567E+01  0.11223858840E+02  0.51100000000E-03 0. -1.
        -11    1    3    3    0    0 -0.13654265428E+02  0.16383572212E+02 -0.59313568446E+01  0.22136878666E+02  0.51100000000E-03 0.  1.
        -12    1    3    3    0    0  0.48372901784E+01 -0.36285429103E+02 -0.13742025038E+02  0.39100831112E+02  0.00000000000E+00 0.  1.
</event>
<event>
 7    1  0.1692604E-013  0.7246151E+02  0.7816164E-02  0.1226708E+00
        -11   -1    0    0    0    0  0.00000000000E+00  0.00000000000E+00  0.45593999997E+02  0.45594000000E+02  0.51100000000E-03 0. -1.
         11   -1    0    0    0    0 -0.00000000000E+00 -0.00000000000E+00 -0.45593999997E+02  0.45594000000E+02  0.51100000000E-03 0.  1.
    9900012    2    1    2    0    0 -0.16666806594E+02  0.70168538311E+01  0.48644359851E+01  0.72461510282E+02  0.69999921822E+02 0.  0.
         12    1    1    2    0    0  0.16666806594E+02 -0.70168538311E+01 -0.48644359851E+01  0.18726489718E+02  0.00000000000E+00 0. -1.
         11    1    3    3    0    0  0.68501270326E+01 -0.10411004089E+02  0.16046094376E+01  0.12565349904E+02  0.51100000000E-03 0. -1.
        -11    1    3    3    0    0  0.25663805877E+01 -0.83403213258E+01  0.18293761610E+02  0.20268423305E+02  0.51100000000E-03 0.  1.
        -12    1    3    3    0    0 -0.26083314214E+02  0.25768179246E+02 -0.15033935063E+02  0.39627737073E+02  0.00000000000E+00 0.  1.
</event>
<event>
 7    1  0.1692604E-013  0.7246155E+02  0.7816164E-02  0.1226708E+00
        -11   -1    0    0    0    0  0.00000000000E+00  0.00000000000E+00  0.45593999997E+02  0.45594000000E+02  0.51100000000E-03 0.  1.
         11   -1    0    0    0    0 -0.00000000000E+00 -0.00000000000E+00 -0.45593999997E+02  0.45594000000E+02  0.51100000000E-03 0. -1.
    9900012    2    1    2    0    0  0.16075759654E+01 -0.30354852907E+01  0.18408730349E+02  0.72461552806E+02  0.69999977218E+02 0.  0.
         12    1    1    2    0    0 -0.16075759654E+01  0.30354852907E+01 -0.18408730349E+02  0.18726447194E+02  0.00000000000E+00 0. -1.
         11    1    3    3    0    0  0.16308147119E+01 -0.28569260236E+02  0.16790687000E+02  0.33178145778E+02  0.51100000000E-03 0. -1.
        -11    1    3    3    0    0  0.10913975784E+02  0.75918414630E+01  0.10025432696E+02  0.16651132851E+02  0.51100000000E-03 0.  1.
        -12    1    3    3    0    0 -0.10937214531E+02  0.17941933483E+02 -0.84073893465E+01  0.22632274177E+02  0.00000000000E+00 0.  1.
</event>
<event>
 7    1  0.1692604E-013  0.7246160E+02  0.7816164E-02  0.1226708E+00
        -11   -1    0    0    0    0  0.00000000000E+00  0.00000000000E+00  0.45593999997E+02  0.45594000000E+02  0.51100000000E-03 0.  1.
         11   -1    0    0    0    0 -0.00000000000E+00 -0.00000000000E+00 -0.45593999997E+02  0.45594000000E+02  0.51100000000E-03 0. -1.
    9900012    2    1    2    0    0 -0.16946495605E+02  0.72429427367E+01 -0.33217564779E+01  0.72461601551E+02  0.70000040718E+02 0.  0.
         12    1    1    2    0    0  0.16946495605E+02 -0.72429427367E+01  0.33217564779E+01  0.18726398449E+02  0.00000000000E+00 0. -1.
         11    1    3    3    0    0  0.17955765812E+02  0.50641676356E+01 -0.16071040435E+02  0.24623843337E+02  0.51100000000E-03 0. -1.
        -11    1    3    3    0    0  0.49125295406E+01  0.16567484453E+01 -0.17349528911E+01  0.54669757356E+01  0.51100000000E-03 0.  1.
        -12    1    3    3    0    0 -0.39814790957E+02  0.52202665583E+00  0.14484236849E+02  0.42370782479E+02  0.00000000000E+00 0.  1.
</event>
<event>
 7    1  0.1692604E-013  0.7246158E+02  0.7816164E-02  0.1226708E+00
        -11   -1    0    0    0    0  0.00000000000E+00  0.00000000000E+00  0.45593999997E+02  0.45594000000E+02  0.51100000000E-03 0. -1.
         11   -1    0    0    0    0 -0.00000000000E+00 -0.00000000000E+00 -0.45593999997E+02  0.45594000000E+02  0.51100000000E-03 0.  1.
    9900012    2    1    2    0    0 -0.13450315359E+02  0.65949507010E+01 -0.11237194872E+02  0.72461577315E+02  0.70000009145E+02 0.  0.
         12    1    1    2    0    0  0.13450315359E+02 -0.65949507010E+01  0.11237194872E+02  0.18726422685E+02  0.00000000000E+00 0. -1.
         11    1    3    3    0    0 -0.26837026223E+02  0.31148125834E+02 -0.66727796639E+01  0.41652823532E+02  0.51100000000E-03 0. -1.
        -11    1    3    3    0    0  0.33850713212E+00 -0.19728643131E+01 -0.42833778804E+01  0.47280130080E+01  0.51100000000E-03 0.  1.
        -12    1    3    3    0    0  0.13048203732E+02 -0.22580310820E+02 -0.28103732756E+00  0.26080740775E+02  0.00000000000E+00 0.  1.
</event>
<event>
 7    1  0.1692604E-013  0.7246158E+02  0.7816164E-02  0.1226708E+00
        -11   -1    0    0    0    0  0.00000000000E+00  0.00000000000E+00  0.45593999997E+02  0.45594000000E+02  0.51100000000E-03 0.  1.
         11   -1    0    0    0    0 -0.00000000000E+00 -0.00000000000E+00 -0.45593999997E+02  0.45594000000E+02  0.51100000000E-03 0. -1.
    9900012    2    1    2    0    0  0.15956555031E+02  0.61580397331E+01 -0.76253430356E+01  0.72461575936E+02  0.70000007350E+02 0.  0.
         12    1    1    2    0    0 -0.15956555031E+02 -0.61580397331E+01  0.76253430356E+01  0.18726424064E+02  0.00000000000E+00 0. -1.
         11    1    3    3    0    0 -0.10908396866E+02 -0.70187551081E+01 -0.33022531467E+01  0.13385100730E+02  0.51100000000E-03 0. -1.
        -11    1    3    3    0    0  0.83899313829E+01 -0.19399702601E+02  0.14388249451E+01  0.21185127498E+02  0.51100000000E-03 0.  1.
         12    1    3    3    0    0  0.18475020514E+02  0.32576497442E+02 -0.57619148340E+01  0.37891347708E+02  0.00000000000E+00 0. -1.
</event>
<event>
 7    1  0.1692604E-013  0.7246156E+02  0.7816164E-02  0.1226708E+00
        -11   -1    0    0    0    0  0.00000000000E+00  0.00000000000E+00  0.45593999997E+02  0.45594000000E+02  0.51100000000E-03 0.  1.
         11   -1    0    0    0    0 -0.00000000000E+00 -0.00000000000E+00 -0.45593999997E+02  0.45594000000E+02  0.51100000000E-03 0. -1.
    9900012    2    1    2    0    0  0.55277868713E+01  0.12302850008E+02  0.12990883568E+02  0.72461558750E+02  0.69999984962E+02 0.  0.
         12    1    1    2    0    0 -0.55277868713E+01 -0.12302850008E+02 -0.12990883568E+02  0.18726441250E+02  0.00000000000E+00 0. -1.
         11    1    3    3    0    0 -0.76142071778E+01  0.21214425981E+02  0.91200214734E+00  0.22557920313E+02  0.51100000000E-03 0. -1.
        -11    1    3    3    0    0  0.19011735345E+02  0.11872341926E+02  0.16533191049E+02  0.27852199019E+02  0.51100000000E-03 0.  1.
        -12    1    3    3    0    0 -0.58697412961E+01 -0.20783917900E+02 -0.44543096287E+01  0.22051439418E+02  0.00000000000E+00 0.  1.
</event>
<event>
 7    1  0.1692604E-013  0.7246157E+02  0.7816164E-02  0.1226708E+00
        -11   -1    0    0    0    0  0.00000000000E+00  0.00000000000E+00  0.45593999997E+02  0.45594000000E+02  0.51100000000E-03 0.  1.
         11   -1    0    0    0    0 -0.00000000000E+00 -0.00000000000E+00 -0.45593999997E+02  0.45594000000E+02  0.51100000000E-03 0. -1.
    9900012    2    1    2    0    0 -0.12866053409E+02 -0.86347025256E+00  0.13579336920E+02  0.72461566747E+02  0.69999995379E+02 0.  0.
         12    1    1    2    0    0  0.12866053409E+02  0.86347025256E+00 -0.13579336920E+02  0.18726433253E+02  0.00000000000E+00 0. -1.
         11    1    3    3    0    0  0.40196586957E+01  0.13992384653E+02  0.24127181264E+02  0.28179165359E+02  0.51100000000E-03 0.  1.
        -11    1    3    3    0    0 -0.26588491709E+01  0.12048761210E+02 -0.97170696088E+00  0.12376846944E+02  0.51100000000E-03 0. -1.
        -12    1    3    3    0    0 -0.14226862934E+02 -0.26904616115E+02 -0.95761373837E+01  0.31905554444E+02  0.00000000000E+00 0.  1.
</event>
<event>
 7    1  0.1692604E-013  0.7246160E+02  0.7816164E-02  0.1226708E+00
        -11   -1    0    0    0    0  0.00000000000E+00  0.00000000000E+00  0.45593999997E+02  0.45594000000E+02  0.51100000000E-03 0. -1.
         11   -1    0    0    0    0 -0.00000000000E+00 -0.00000000000E+00 -0.45593999997E+02  0.45594000000E+02  0.51100000000E-03 0.  1.
    9900012    2    1    2    0    0  0.66033586401E+00  0.17713321214E+02  0.60398923772E+01  0.72461599070E+02  0.70000037485E+02 0.  0.
         12    1    1    2    0    0 -0.66033586401E+00 -0.17713321214E+02 -0.60398923772E+01  0.18726400930E+02  0.00000000000E+00 0. -1.
         11    1    3    3    0    0  0.87803805742E+01 -0.38812339189E+01  0.26499715933E+02  0.28184996089E+02  0.51100000000E-03 0. -1.
        -11    1    3    3    0    0 -0.41123458538E+01  0.28232275796E+02 -0.80509398439E+01  0.29644399431E+02  0.51100000000E-03 0.  1.
        -12    1    3    3    0    0 -0.40076988564E+01 -0.66377206629E+01 -0.12408883712E+02  0.14632203549E+02  0.00000000000E+00 0.  1.
</event>
<event>
 7    1  0.1692604E-013  0.7246166E+02  0.7816164E-02  0.1226708E+00
        -11   -1    0    0    0    0  0.00000000000E+00  0.00000000000E+00  0.45593999997E+02  0.45594000000E+02  0.51100000000E-03 0.  1.
         11   -1    0    0    0    0 -0.00000000000E+00 -0.00000000000E+00 -0.45593999997E+02  0.45594000000E+02  0.51100000000E-03 0. -1.
    9900012    2    1    2    0    0  0.28561345025E+01 -0.14858262632E+02  0.11034057610E+02  0.72461657590E+02  0.70000113719E+02 0.  0.
         12    1    1    2    0    0 -0.28561345025E+01  0.14858262632E+02 -0.11034057610E+02  0.18726342410E+02  0.00000000000E+00 0. -1.
         11    1    3    3    0    0  0.19942866477E+01  0.36538015071E+01  0.19262168335E+01  0.45866933882E+01  0.51100000000E-03 0. -1.
        -11    1    3    3    0    0 -0.14424429821E+02 -0.35462276962E+02  0.19305099774E+02  0.42875682392E+02  0.51100000000E-03 0.  1.
         12    1    3    3    0    0  0.15286277676E+02  0.16950212823E+02 -0.10197258998E+02  0.24999281810E+02  0.00000000000E+00 0. -1.
</event>
<event>
 7    1  0.1692604E-013  0.7246158E+02  0.7816164E-02  0.1226708E+00
        -11   -1    0    0    0    0  0.00000000000E+00  0.00000000000E+00  0.45593999997E+02  0.45594000000E+02  0.51100000000E-03 0. -1.
         11   -1    0    0    0    0 -0.00000000000E+00 -0.00000000000E+00 -0.45593999997E+02  0.45594000000E+02  0.51100000000E-03 0.  1.
    9900012    2    1    2    0    0 -0.90981373443E+01  0.14518529158E+02 -0.75574457701E+01  0.72461580732E+02  0.70000013597E+02 0.  0.
         12    1    1    2    0    0  0.90981373443E+01 -0.14518529158E+02  0.75574457701E+01  0.18726419268E+02  0.00000000000E+00 0. -1.
         11    1    3    3    0    0 -0.43841406554E+01  0.14966817571E+02  0.37770725999E+01  0.16046575809E+02  0.51100000000E-03 0. -1.
        -11    1    3    3    0    0 -0.28604983762E+02 -0.34344030052E+01 -0.14286005138E+02  0.32157894258E+02  0.51100000000E-03 0.  1.
         12    1    3    3    0    0  0.23890987073E+02  0.29861145919E+01  0.29514867679E+01  0.24257110665E+02  0.00000000000E+00 0. -1.
</event>
<event>
 7    1  0.1692604E-013  0.7246157E+02  0.7816164E-02  0.1226708E+00
        -11   -1    0    0    0    0  0.00000000000E+00  0.00000000000E+00  0.45593999997E+02  0.45594000000E+02  0.51100000000E-03 0.  1.
         11   -1    0    0    0    0 -0.00000000000E+00 -0.00000000000E+00 -0.45593999997E+02  0.45594000000E+02  0.51100000000E-03 0. -1.
    9900012    2    1    2    0    0 -0.15113970247E+02  0.88803432242E+01  0.65868383602E+01  0.72461573966E+02  0.70000004783E+02 0.  0.
         12    1    1    2    0    0  0.15113970247E+02 -0.88803432242E+01 -0.65868383602E+01  0.18726426034E+02  0.00000000000E+00 0. -1.
         11    1    3    3    0    0 -0.22856552174E+02  0.62485454401E+01 -0.10975738102E+02  0.26113849286E+02  0.51100000000E-03 0. -1.
        -11    1    3    3    0    0 -0.79068232415E+01  0.18722708078E+02  0.66066917372E+01  0.21370681494E+02  0.51100000000E-03 0.  1.
        -12    1    3    3    0    0  0.15649405168E+02 -0.16090910294E+02  0.10955884725E+02  0.24977043186E+02  0.00000000000E+00 0.  1.
</event>
<event>
 7    1  0.1692604E-013  0.7246154E+02  0.7816164E-02  0.1226708E+00
        -11   -1    0    0    0    0  0.00000000000E+00  0.00000000000E+00  0.45593999997E+02  0.45594000000E+02  0.51100000000E-03 0.  1.
         11   -1    0    0    0    0 -0.00000000000E+00 -0.00000000000E+00 -0.45593999997E+02  0.45594000000E+02  0.51100000000E-03 0. -1.
    9900012    2    1    2    0    0  0.57398093477E+01 -0.27387804717E+01  0.17613462256E+02  0.72461537909E+02  0.69999957812E+02 0.  0.
         12    1    1    2    0    0 -0.57398093477E+01  0.27387804717E+01 -0.17613462256E+02  0.18726462091E+02  0.00000000000E+00 0. -1.
         11    1    3    3    0    0 -0.10353513943E+02 -0.12875373580E+02 -0.22271125492E+02  0.27730371919E+02  0.51100000000E-03 0. -1.
        -11    1    3    3    0    0  0.97152676912E+00  0.13700011302E+01  0.69005992419E+00  0.18157506216E+01  0.51100000000E-03 0.  1.
        -12    1    3    3    0    0  0.15121796522E+02  0.87665919784E+01  0.39194527823E+02  0.42915415369E+02  0.00000000000E+00 0.  1.
</event>
<event>
 7    1  0.1692604E-013  0.7246154E+02  0.7816164E-02  0.1226708E+00
        -11   -1    0    0    0    0  0.00000000000E+00  0.00000000000E+00  0.45593999997E+02  0.45594000000E+02  0.51100000000E-03 0.  1.
         11   -1    0    0    0    0 -0.00000000000E+00 -0.00000000000E+00 -0.45593999997E+02  0.45594000000E+02  0.51100000000E-03 0. -1.
    9900012    2    1    2    0    0  0.12692812128E+02 -0.12263361136E+02  0.62596135913E+01  0.72461540955E+02  0.69999961780E+02 0.  0.
         12    1    1    2    0    0 -0.12692812128E+02  0.12263361136E+02 -0.62596135913E+01  0.18726459045E+02  0.00000000000E+00 0. -1.
         11    1    3    3    0    0 -0.82715258733E+01 -0.70963310379E+01  0.77266142743E+01  0.13359514320E+02  0.51100000000E-03 0. -1.
        -11    1    3    3    0    0  0.11893246865E+02 -0.83394363537E+01  0.26121031199E+02  0.29888188149E+02  0.51100000000E-03 0.  1.
         12    1    3    3    0    0  0.90710911369E+01  0.31724062560E+01 -0.27588031882E+02  0.29213838485E+02  0.00000000000E+00 0. -1.
</event>
<event>
 7    1  0.1692604E-013  0.7246155E+02  0.7816164E-02  0.1226708E+00
        -11   -1    0    0    0    0  0.00000000000E+00  0.00000000000E+00  0.45593999997E+02  0.45594000000E+02  0.51100000000E-03 0.  1.
         11   -1    0    0    0    0 -0.00000000000E+00 -0.00000000000E+00 -0.45593999997E+02  0.45594000000E+02  0.51100000000E-03 0. -1.
    9900012    2    1    2    0    0 -0.14592781512E+02  0.11640167456E+02  0.14957527598E+01  0.72461546866E+02  0.69999969480E+02 0.  0.
         12    1    1    2    0    0  0.14592781512E+02 -0.11640167456E+02 -0.14957527598E+01  0.18726453134E+02  0.00000000000E+00 0. -1.
         11    1    3    3    0    0 -0.34265550914E+02  0.13292746004E+02  0.13187818201E+02  0.39047965696E+02  0.51100000000E-03 0. -1.
        -11    1    3    3    0    0 -0.51086669026E+01 -0.41362755045E+00  0.14623228848E+01  0.53299112331E+01  0.51100000000E-03 0.  1.
        -12    1    3    3    0    0  0.24781436305E+02 -0.12389509973E+01 -0.13154388326E+02  0.28083669937E+02  0.00000000000E+00 0.  1.
</event>
<event>
 7    1  0.1692604E-013  0.7246156E+02  0.7816164E-02  0.1226708E+00
        -11   -1    0    0    0    0  0.00000000000E+00  0.00000000000E+00  0.45593999997E+02  0.45594000000E+02  0.51100000000E-03 0. -1.
         11   -1    0    0    0    0 -0.00000000000E+00 -0.00000000000E+00 -0.45593999997E+02  0.45594000000E+02  0.51100000000E-03 0.  1.
    9900012    2    1    2    0    0  0.16389066225E+02  0.35415589138E+01 -0.83387837747E+01  0.72461562909E+02  0.69999990379E+02 0.  0.
         12    1    1    2    0    0 -0.16389066225E+02 -0.35415589138E+01  0.83387837747E+01  0.18726437091E+02  0.00000000000E+00 0. -1.
         11    1    3    3    0    0  0.11883117517E+02  0.70590021245E+01  0.58113771295E+01  0.14993668574E+02  0.51100000000E-03 0. -1.
        -11    1    3    3    0    0  0.20418321111E+02 -0.93920978745E+01 -0.27762269624E+02  0.35719223877E+02  0.51100000000E-03 0.  1.
         12    1    3    3    0    0 -0.15912372402E+02  0.58746546638E+01  0.13612108719E+02  0.21748670458E+02  0.00000000000E+00 0. -1.
</event>
<event>
 7    1  0.1692604E-013  0.7246160E+02  0.7816164E-02  0.1226708E+00
        -11   -1    0    0    0    0  0.00000000000E+00  0.00000000000E+00  0.45593999997E+02  0.45594000000E+02  0.51100000000E-03 0. -1.
         11   -1    0    0    0    0 -0.00000000000E+00 -0.00000000000E+00 -0.45593999997E+02  0.45594000000E+02  0.51100000000E-03 0.  1.
    9900012    2    1    2    0    0  0.25446386611E+01  0.18417723988E+02 -0.22338767294E+01  0.72461602907E+02  0.70000042484E+02 0.  0.
         12    1    1    2    0    0 -0.25446386611E+01 -0.18417723988E+02  0.22338767294E+01  0.18726397093E+02  0.00000000000E+00 0. -1.
         11    1    3    3    0    0 -0.68813892936E+01  0.27130036848E+01 -0.21574332456E+02  0.22807142056E+02  0.51100000000E-03 0. -1.
        -11    1    3    3    0    0  0.64769657534E+01  0.39483808784E+01 -0.13036687607E+02  0.15082971225E+02  0.51100000000E-03 0.  1.
         12    1    3    3    0    0  0.29490622014E+01  0.11756339425E+02  0.32377143334E+02  0.34571489626E+02  0.00000000000E+00 0. -1.
</event>
<event>
 7    1  0.1692604E-013  0.7246159E+02  0.7816164E-02  0.1226708E+00
        -11   -1    0    0    0    0  0.00000000000E+00  0.00000000000E+00  0.45593999997E+02  0.45594000000E+02  0.51100000000E-03 0.  1.
         11   -1    0    0    0    0 -0.00000000000E+00 -0.00000000000E+00 -0.45593999997E+02  0.45594000000E+02  0.51100000000E-03 0. -1.
    9900012    2    1    2    0    0 -0.66220596493E+01 -0.16144255323E+02 -0.67962979645E+01  0.72461592978E+02  0.70000029550E+02 0.  0.
         12    1    1    2    0    0  0.66220596493E+01  0.16144255323E+02  0.67962979645E+01  0.18726407022E+02  0.00000000000E+00 0. -1.
         11    1    3    3    0    0 -0.17106068043E+02  0.15632980826E+01 -0.98269763845E+01  0.19789667252E+02  0.51100000000E-03 0. -1.
        -11    1    3    3    0    0 -0.10292153414E+02  0.71604165121E+01  0.13685471525E+02  0.18560498852E+02  0.51100000000E-03 0.  1.
         12    1    3    3    0    0  0.20776161808E+02 -0.24867969918E+02 -0.10654793105E+02  0.34111426874E+02  0.00000000000E+00 0. -1.
</event>
<event>
 7    1  0.1692604E-013  0.7246131E+02  0.7816164E-02  0.1226709E+00
        -11   -1    0    0    0    0  0.00000000000E+00  0.00000000000E+00  0.45593999997E+02  0.45594000000E+02  0.51100000000E-03 0.  1.
         11   -1    0    0    0    0 -0.00000000000E+00 -0.00000000000E+00 -0.45593999997E+02  0.45594000000E+02  0.51100000000E-03 0. -1.
    9900012    2    1    2    0    0  0.25786207715E+01 -0.17745364504E+02  0.53983021397E+01  0.72461310158E+02  0.69999661123E+02 0.  0.
         12    1    1    2    0    0 -0.25786207715E+01  0.17745364504E+02 -0.53983021397E+01  0.18726689842E+02  0.00000000000E+00 0. -1.
         11    1    3    3    0    0 -0.49679950525E+01 -0.45997920307E+01 -0.17647515462E+02  0.18901689444E+02  0.51100000000E-03 0. -1.
        -11    1    3    3    0    0 -0.19452945997E+02 -0.66453927908E+01  0.90383809509E+01  0.22455972119E+02  0.51100000000E-03 0.  1.
        -12    1    3    3    0    0  0.26999561821E+02 -0.65001796820E+01  0.14007436651E+02  0.31103648596E+02  0.00000000000E+00 0.  1.
</event>
<event>
 7    1  0.1692604E-013  0.7246163E+02  0.7816164E-02  0.1226708E+00
        -11   -1    0    0    0    0  0.00000000000E+00  0.00000000000E+00  0.45593999997E+02  0.45594000000E+02  0.51100000000E-03 0.  1.
         11   -1    0    0    0    0 -0.00000000000E+00 -0.00000000000E+00 -0.45593999997E+02  0.45594000000E+02  0.51100000000E-03 0. -1.
    9900012    2    1    2    0    0 -0.94918535467E-01 -0.87001755557E+01  0.16582362809E+02  0.72461633013E+02  0.70000081702E+02 0.  0.
         12    1    1    2    0    0  0.94918535467E-01  0.87001755557E+01 -0.16582362809E+02  0.18726366987E+02  0.00000000000E+00 0. -1.
         11    1    3    3    0    0  0.18887989357E+02  0.13008774482E+02 -0.74719811273E+01  0.24120838661E+02  0.51100000000E-03 0.  1.
        -11    1    3    3    0    0  0.63648400914E+01 -0.91678475747E+00 -0.16985356544E+01  0.66510681331E+01  0.51100000000E-03 0. -1.
         12    1    3    3    0    0 -0.25347747984E+02 -0.20792165281E+02  0.25752879590E+02  0.41689726218E+02  0.00000000000E+00 0. -1.
</event>
<event>
 7    1  0.1692604E-013  0.7246138E+02  0.7816164E-02  0.1226709E+00
        -11   -1    0    0    0    0  0.00000000000E+00  0.00000000000E+00  0.45593999997E+02  0.45594000000E+02  0.51100000000E-03 0.  1.
         11   -1    0    0    0    0 -0.00000000000E+00 -0.00000000000E+00 -0.45593999997E+02  0.45594000000E+02  0.51100000000E-03 0. -1.
    9900012    2    1    2    0    0 -0.22634744117E+01 -0.18564002762E+02  0.96991334766E+00  0.72461381329E+02  0.69999753837E+02 0.  0.
         12    1    1    2    0    0  0.22634744117E+01  0.18564002762E+02 -0.96991334766E+00  0.18726618671E+02  0.00000000000E+00 0. -1.
         11    1    3    3    0    0  0.15951679559E+02  0.13308520155E+02 -0.15738929303E+02  0.26063128847E+02  0.51100000000E-03 0. -1.
        -11    1    3    3    0    0 -0.58293910548E+01  0.15973484104E+01 -0.16492322817E+01  0.62652445598E+01  0.51100000000E-03 0.  1.
        -12    1    3    3    0    0 -0.12385762915E+02 -0.33469871327E+02  0.18358074932E+02  0.40133007922E+02  0.00000000000E+00 0.  1.
</event>
<event>
 7    1  0.1692604E-013  0.7246157E+02  0.7816164E-02  0.1226708E+00
        -11   -1    0    0    0    0  0.00000000000E+00  0.00000000000E+00  0.45593999997E+02  0.45594000000E+02  0.51100000000E-03 0.  1.
         11   -1    0    0    0    0 -0.00000000000E+00 -0.00000000000E+00 -0.45593999997E+02  0.45594000000E+02  0.51100000000E-03 0. -1.
    9900012    2    1    2    0    0  0.17621199063E+00 -0.12133956336E+02  0.14262365045E+02  0.72461574722E+02  0.70000005768E+02 0.  0.
         12    1    1    2    0    0 -0.17621199063E+00  0.12133956336E+02 -0.14262365045E+02  0.18726425278E+02  0.00000000000E+00 0. -1.
         11    1    3    3    0    0  0.29705127541E+01 -0.12321388781E+02 -0.10206425340E+01  0.12715434674E+02  0.51100000000E-03 0. -1.
        -11    1    3    3    0    0 -0.26373746227E+02 -0.12526268276E+02  0.15287849309E+02  0.32957551847E+02  0.51100000000E-03 0.  1.
         12    1    3    3    0    0  0.23579445463E+02  0.12713700721E+02 -0.48417307972E-02  0.26788588201E+02  0.00000000000E+00 0. -1.
</event>
<event>
 7    1  0.1692604E-013  0.7246160E+02  0.7816164E-02  0.1226708E+00
        -11   -1    0    0    0    0  0.00000000000E+00  0.00000000000E+00  0.45593999997E+02  0.45594000000E+02  0.51100000000E-03 0. -1.
         11   -1    0    0    0    0 -0.00000000000E+00 -0.00000000000E+00 -0.45593999997E+02  0.45594000000E+02  0.51100000000E-03 0.  1.
    9900012    2    1    2    0    0 -0.11319495335E+02 -0.13360725749E+02 -0.66361165446E+01  0.72461601254E+02  0.70000040331E+02 0.  0.
         12    1    1    2    0    0  0.11319495335E+02  0.13360725749E+02  0.66361165446E+01  0.18726398746E+02  0.00000000000E+00 0. -1.
         11    1    3    3    0    0 -0.10501892749E+02  0.49728120512E+00  0.30793742478E+01  0.10955345085E+02  0.51100000000E-03 0. -1.
        -11    1    3    3    0    0 -0.39215674044E+01  0.23202373058E+02 -0.43734611075E+01  0.23934409722E+02  0.51100000000E-03 0.  1.
         12    1    3    3    0    0  0.31039648189E+01 -0.37060380013E+02 -0.53420296849E+01  0.37571846447E+02  0.00000000000E+00 0. -1.
</event>
<event>
 7    1  0.1692604E-013  0.7246160E+02  0.7816164E-02  0.1226708E+00
        -11   -1    0    0    0    0  0.00000000000E+00  0.00000000000E+00  0.45593999997E+02  0.45594000000E+02  0.51100000000E-03 0.  1.
         11   -1    0    0    0    0 -0.00000000000E+00 -0.00000000000E+00 -0.45593999997E+02  0.45594000000E+02  0.51100000000E-03 0. -1.
    9900012    2    1    2    0    0  0.15112149253E+02 -0.64401639867E+01 -0.89902984617E+01  0.72461595282E+02  0.70000032551E+02 0.  0.
         12    1    1    2    0    0 -0.15112149253E+02  0.64401639867E+01  0.89902984617E+01  0.18726404718E+02  0.00000000000E+00 0. -1.
         11    1    3    3    0    0  0.17444047023E+01 -0.31310358801E+01  0.21290818666E+01  0.41688515569E+01  0.51100000000E-03 0.  1.
        -11    1    3    3    0    0  0.22935243781E+02 -0.13450072595E+02  0.20606500342E+02  0.33638634287E+02  0.51100000000E-03 0. -1.
         12    1    3    3    0    0 -0.95674992298E+01  0.10140944488E+02 -0.31725880670E+02  0.34654109438E+02  0.00000000000E+00 0. -1.
</event>
<event>
 7    1  0.1692604E-013  0.7246152E+02  0.7816164E-02  0.1226708E+00
        -11   -1    0    0    0    0  0.00000000000E+00  0.00000000000E+00  0.45593999997E+02  0.45594000000E+02  0.51100000000E-03 0. -1.
         11   -1    0    0    0    0 -0.00000000000E+00 -0.00000000000E+00 -0.45593999997E+02  0.45594000000E+02  0.51100000000E-03 0.  1.
    9900012    2    1    2    0    0 -0.24477891856E+01  0.16332321907E+02 -0.88286248608E+01  0.72461520680E+02  0.69999935369E+02 0.  0.
         12    1    1    2    0    0  0.24477891856E+01 -0.16332321907E+02  0.88286248608E+01  0.18726479320E+02  0.00000000000E+00 0. -1.
         11    1    3    3    0    0 -0.20095073988E+01 -0.12513259329E+02 -0.23610815240E+01  0.12891644009E+02  0.51100000000E-03 0. -1.
        -11    1    3    3    0    0 -0.11612828181E+02 -0.71401532140E+01 -0.15681822615E+02  0.20778814381E+02  0.51100000000E-03 0.  1.
         12    1    3    3    0    0  0.11174546394E+02  0.35985734450E+02  0.92142792785E+01  0.38791062291E+02  0.00000000000E+00 0. -1.
</event>
<event>
 7    1  0.1692604E-013  0.7246154E+02  0.7816164E-02  0.1226708E+00
        -11   -1    0    0    0    0  0.00000000000E+00  0.00000000000E+00  0.45593999997E+02  0.45594000000E+02  0.51100000000E-03 0.  1.
         11   -1    0    0    0    0 -0.00000000000E+00 -0.00000000000E+00 -0.45593999997E+02  0.45594000000E+02  0.51100000000E-03 0. -1.
    9900012    2    1    2    0    0 -0.17212127454E+02  0.20736380867E+01  0.70797701786E+01  0.72461536047E+02  0.69999955387E+02 0.  0.
         12    1    1    2    0    0  0.17212127454E+02 -0.20736380867E+01 -0.70797701786E+01  0.18726463953E+02  0.00000000000E+00 0. -1.
         11    1    3    3    0    0  0.14328348654E+02 -0.13014263852E+02  0.39828875849E+01  0.19761984530E+02  0.51100000000E-03 0. -1.
        -11    1    3    3    0    0 -0.51872113147E+01  0.23944916467E+02  0.42856177250E+01  0.24872328105E+02  0.51100000000E-03 0.  1.
        -12    1    3    3    0    0 -0.26353264793E+02 -0.88570145277E+01 -0.11887351313E+01  0.27827223412E+02  0.00000000000E+00 0.  1.
</event>
<event>
 7    1  0.1692604E-013  0.7246157E+02  0.7816164E-02  0.1226708E+00
        -11   -1    0    0    0    0  0.00000000000E+00  0.00000000000E+00  0.45593999997E+02  0.45594000000E+02  0.51100000000E-03 0.  1.
         11   -1    0    0    0    0 -0.00000000000E+00 -0.00000000000E+00 -0.45593999997E+02  0.45594000000E+02  0.51100000000E-03 0. -1.
    9900012    2    1    2    0    0 -0.14377948468E+02  0.79062414247E+01  0.90247018317E+01  0.72461566843E+02  0.69999995504E+02 0.  0.
         12    1    1    2    0    0  0.14377948468E+02 -0.79062414247E+01 -0.90247018317E+01  0.18726433157E+02  0.00000000000E+00 0. -1.
         11    1    3    3    0    0 -0.29896726346E+02 -0.94595875755E+01 -0.51096116356E+00  0.31361746203E+02  0.51100000000E-03 0. -1.
        -11    1    3    3    0    0 -0.78127863184E+01  0.14108240793E+02  0.14464089713E+01  0.16191793833E+02  0.51100000000E-03 0.  1.
        -12    1    3    3    0    0  0.23331564197E+02  0.32575882068E+01  0.80892540240E+01  0.24908026808E+02  0.00000000000E+00 0.  1.
</event>
<event>
 7    1  0.1692604E-013  0.7246157E+02  0.7816164E-02  0.1226708E+00
        -11   -1    0    0    0    0  0.00000000000E+00  0.00000000000E+00  0.45593999997E+02  0.45594000000E+02  0.51100000000E-03 0. -1.
         11   -1    0    0    0    0 -0.00000000000E+00 -0.00000000000E+00 -0.45593999997E+02  0.45594000000E+02  0.51100000000E-03 0.  1.
    9900012    2    1    2    0    0 -0.17685197805E+02  0.16066939264E+01  0.59440407246E+01  0.72461566626E+02  0.69999995221E+02 0.  0.
         12    1    1    2    0    0  0.17685197805E+02 -0.16066939264E+01 -0.59440407246E+01  0.18726433374E+02  0.00000000000E+00 0. -1.
         11    1    3    3    0    0 -0.11724096260E+02 -0.17678855630E+01  0.37182085131E+02  0.39026751177E+02  0.51100000000E-03 0. -1.
        -11    1    3    3    0    0  0.11345263229E+01  0.61520135530E-01  0.92954635986E-01  0.11399892675E+01  0.51100000000E-03 0.  1.
        -12    1    3    3    0    0 -0.70956278679E+01  0.33130593539E+01 -0.31330999042E+02  0.32294826181E+02  0.00000000000E+00 0.  1.
</event>
<event>
 7    1  0.1692604E-013  0.7246141E+02  0.7816164E-02  0.1226708E+00
        -11   -1    0    0    0    0  0.00000000000E+00  0.00000000000E+00  0.45593999997E+02  0.45594000000E+02  0.51100000000E-03 0. -1.
         11   -1    0    0    0    0 -0.00000000000E+00 -0.00000000000E+00 -0.45593999997E+02  0.45594000000E+02  0.51100000000E-03 0.  1.
    9900012    2    1    2    0    0 -0.37116033577E+01  0.15176153692E+02 -0.10324422637E+02  0.72461405458E+02  0.69999785269E+02 0.  0.
         12    1    1    2    0    0  0.37116033577E+01 -0.15176153692E+02  0.10324422637E+02  0.18726594542E+02  0.00000000000E+00 0. -1.
         11    1    3    3    0    0  0.21398862250E+01  0.15297309720E+02 -0.14786571650E+02  0.21382925411E+02  0.51100000000E-03 0. -1.
        -11    1    3    3    0    0 -0.92156826279E+01  0.11161857424E+02 -0.19555791332E+02  0.24329916612E+02  0.51100000000E-03 0.  1.
         12    1    3    3    0    0  0.33641930452E+01 -0.11283013452E+02  0.24017940345E+02  0.26748563435E+02  0.00000000000E+00 0. -1.
</event>
<event>
 7    1  0.1692604E-013  0.7246159E+02  0.7816164E-02  0.1226708E+00
        -11   -1    0    0    0    0  0.00000000000E+00  0.00000000000E+00  0.45593999997E+02  0.45594000000E+02  0.51100000000E-03 0.  1.
         11   -1    0    0    0    0 -0.00000000000E+00 -0.00000000000E+00 -0.45593999997E+02  0.45594000000E+02  0.51100000000E-03 0. -1.
    9900012    2    1    2    0    0  0.90056926262E+00 -0.18690362983E+02  0.73332853314E+00  0.72461589127E+02  0.70000024533E+02 0.  0.
         12    1    1    2    0    0 -0.90056926262E+00  0.18690362983E+02 -0.73332853314E+00  0.18726410873E+02  0.00000000000E+00 0. -1.
         11    1    3    3    0    0  0.10071705313E+02 -0.14116152384E+02 -0.24551967909E+00  0.17342585915E+02  0.51100000000E-03 0.  1.
        -11    1    3    3    0    0 -0.44785433847E+01 -0.20119203992E+02 -0.19912597982E+02  0.28659226765E+02  0.51100000000E-03 0. -1.
        -12    1    3    3    0    0 -0.46925926657E+01  0.15544993393E+02  0.20891446195E+02  0.26459776447E+02  0.00000000000E+00 0.  1.
</event>
<event>
 7    1  0.1692604E-013  0.7246183E+02  0.7816164E-02  0.1226707E+00
        -11   -1    0    0    0    0  0.00000000000E+00  0.00000000000E+00  0.45593999997E+02  0.45594000000E+02  0.51100000000E-03 0.  1.
         11   -1    0    0    0    0 -0.00000000000E+00 -0.00000000000E+00 -0.45593999997E+02  0.45594000000E+02  0.51100000000E-03 0. -1.
    9900012    2    1    2    0    0  0.42949039072E+01 -0.98939617988E+01  0.15307928526E+02  0.72461832335E+02  0.70000341356E+02 0.  0.
         12    1    1    2    0    0 -0.42949039072E+01  0.98939617988E+01 -0.15307928526E+02  0.18726167665E+02  0.00000000000E+00 0. -1.
         11    1    3    3    0    0  0.17411799551E+02 -0.31141311668E+02  0.13480422728E+02  0.38140186853E+02  0.51100000000E-03 0. -1.
        -11    1    3    3    0    0 -0.50307129299E+01 -0.47716361500E+01  0.13895039748E+01  0.70715843831E+01  0.51100000000E-03 0.  1.
        -12    1    3    3    0    0 -0.80861827134E+01  0.26018986019E+02  0.43800182308E+00  0.27250061099E+02  0.00000000000E+00 0.  1.
</event>
<event>
 7    1  0.1692604E-013  0.7246159E+02  0.7816164E-02  0.1226708E+00
        -11   -1    0    0    0    0  0.00000000000E+00  0.00000000000E+00  0.45593999997E+02  0.45594000000E+02  0.51100000000E-03 0. -1.
         11   -1    0    0    0    0 -0.00000000000E+00 -0.00000000000E+00 -0.45593999997E+02  0.45594000000E+02  0.51100000000E-03 0.  1.
    9900012    2    1    2    0    0  0.26759440365E+01 -0.56569267242E+01 -0.17649837354E+02  0.72461594711E+02  0.70000031807E+02 0.  0.
         12    1    1    2    0    0 -0.26759440365E+01  0.56569267242E+01  0.17649837354E+02  0.18726405289E+02  0.00000000000E+00 0. -1.
         11    1    3    3    0    0 -0.10388818227E+01  0.62991701251E+00 -0.15366858915E+01  0.19589473383E+01  0.51100000000E-03 0. -1.
        -11    1    3    3    0    0 -0.20075332198E+01  0.30357578794E+02 -0.13611181034E+02  0.33329821921E+02  0.51100000000E-03 0.  1.
         12    1    3    3    0    0  0.57223590790E+01 -0.36644422531E+02 -0.25019704283E+01  0.37172825452E+02  0.00000000000E+00 0. -1.
</event>
<event>
 7    1  0.1692604E-013  0.7246164E+02  0.7816164E-02  0.1226708E+00
        -11   -1    0    0    0    0  0.00000000000E+00  0.00000000000E+00  0.45593999997E+02  0.45594000000E+02  0.51100000000E-03 0. -1.
         11   -1    0    0    0    0 -0.00000000000E+00 -0.00000000000E+00 -0.45593999997E+02  0.45594000000E+02  0.51100000000E-03 0.  1.
    9900012    2    1    2    0    0 -0.16350071328E+02  0.89464171374E+01  0.18203108128E+01  0.72461635070E+02  0.70000084383E+02 0.  0.
         12    1    1    2    0    0  0.16350071328E+02 -0.89464171374E+01 -0.18203108128E+01  0.18726364930E+02  0.00000000000E+00 0. -1.
         11    1    3    3    0    0 -0.39812720721E-01  0.13733083257E+02  0.17958784523E+02  0.22607899120E+02  0.51100000000E-03 0. -1.
        -11    1    3    3    0    0 -0.17515184872E+02 -0.21958607144E+02 -0.16611886385E+02  0.32633064495E+02  0.51100000000E-03 0.  1.
         12    1    3    3    0    0  0.12049262642E+01  0.17171941024E+02  0.47341267503E+00  0.17220671456E+02  0.00000000000E+00 0. -1.
</event>
<event>
 7    1  0.1692604E-013  0.7246157E+02  0.7816164E-02  0.1226708E+00
        -11   -1    0    0    0    0  0.00000000000E+00  0.00000000000E+00  0.45593999997E+02  0.45594000000E+02  0.51100000000E-03 0.  1.
         11   -1    0    0    0    0 -0.00000000000E+00 -0.00000000000E+00 -0.45593999997E+02  0.45594000000E+02  0.51100000000E-03 0. -1.
    9900012    2    1    2    0    0  0.15138284529E+02  0.85741364628E+01  0.69278808502E+01  0.72461574617E+02  0.70000005631E+02 0.  0.
         12    1    1    2    0    0 -0.15138284529E+02 -0.85741364628E+01 -0.69278808502E+01  0.18726425383E+02  0.00000000000E+00 0. -1.
         11    1    3    3    0    0 -0.74206431461E+01 -0.23844448373E+01  0.13321796669E+02  0.15434435157E+02  0.51100000000E-03 0. -1.
        -11    1    3    3    0    0  0.17335867085E+02 -0.31226674999E+01  0.20005087596E+02  0.26654959574E+02  0.51100000000E-03 0.  1.
         12    1    3    3    0    0  0.52230605900E+01  0.14081248800E+02 -0.26399003415E+02  0.30372179885E+02  0.00000000000E+00 0. -1.
</event>
<event>
 7    1  0.1692604E-013  0.7246162E+02  0.7816164E-02  0.1226708E+00
        -11   -1    0    0    0    0  0.00000000000E+00  0.00000000000E+00  0.45593999997E+02  0.45594000000E+02  0.51100000000E-03 0. -1.
         11   -1    0    0    0    0 -0.00000000000E+00 -0.00000000000E+00 -0.45593999997E+02  0.45594000000E+02  0.51100000000E-03 0.  1.
    9900012    2    1    2    0    0 -0.54738992189E+01 -0.13376434027E+02  0.11907338784E+02  0.72461620829E+02  0.70000065831E+02 0.  0.
         12    1    1    2    0    0  0.54738992189E+01  0.13376434027E+02 -0.11907338784E+02  0.18726379171E+02  0.00000000000E+00 0. -1.
         11    1    3    3    0    0 -0.47052221081E+01  0.46398659364E+01  0.18533471546E+02  0.19676306534E+02  0.51100000000E-03 0. -1.
        -11    1    3    3    0    0 -0.21502643792E+02 -0.30394878094E+01  0.82100227753E+01  0.23216516759E+02  0.51100000000E-03 0.  1.
        -12    1    3    3    0    0  0.20733966681E+02 -0.14976812154E+02 -0.14836155538E+02  0.29568797537E+02  0.00000000000E+00 0.  1.
</event>
<event>
 7    1  0.1692604E-013  0.7246151E+02  0.7816164E-02  0.1226708E+00
        -11   -1    0    0    0    0  0.00000000000E+00  0.00000000000E+00  0.45593999997E+02  0.45594000000E+02  0.51100000000E-03 0.  1.
         11   -1    0    0    0    0 -0.00000000000E+00 -0.00000000000E+00 -0.45593999997E+02  0.45594000000E+02  0.51100000000E-03 0. -1.
    9900012    2    1    2    0    0 -0.13200513804E+02 -0.99117092456E+01  0.88422823305E+01  0.72461508026E+02  0.69999918883E+02 0.  0.
         12    1    1    2    0    0  0.13200513804E+02  0.99117092456E+01 -0.88422823305E+01  0.18726491974E+02  0.00000000000E+00 0. -1.
         11    1    3    3    0    0 -0.21183339061E+02 -0.17289199669E+02 -0.60677147405E+00  0.27349925975E+02  0.51100000000E-03 0. -1.
        -11    1    3    3    0    0 -0.35958737826E+01  0.18244083533E+02  0.18996804098E+02  0.26582991901E+02  0.51100000000E-03 0.  1.
         12    1    3    3    0    0  0.11578699039E+02 -0.10866593110E+02 -0.95477502931E+01  0.18528590149E+02  0.00000000000E+00 0. -1.
</event>
<event>
 7    1  0.1692604E-013  0.7246154E+02  0.7816164E-02  0.1226708E+00
        -11   -1    0    0    0    0  0.00000000000E+00  0.00000000000E+00  0.45593999997E+02  0.45594000000E+02  0.51100000000E-03 0.  1.
         11   -1    0    0    0    0 -0.00000000000E+00 -0.00000000000E+00 -0.45593999997E+02  0.45594000000E+02  0.51100000000E-03 0. -1.
    9900012    2    1    2    0    0  0.17183000860E+02  0.65044933733E+01 -0.36216290563E+01  0.72461544125E+02  0.69999965910E+02 0.  0.
         12    1    1    2    0    0 -0.17183000860E+02 -0.65044933733E+01  0.36216290563E+01  0.18726455875E+02  0.00000000000E+00 0. -1.
         11    1    3    3    0    0 -0.15868093538E+02 -0.46671594390E+00 -0.50396433460E+01  0.16655696371E+02  0.51100000000E-03 0. -1.
        -11    1    3    3    0    0  0.13398101354E+02 -0.12855031316E+02  0.15820153403E+02  0.24393404928E+02  0.51100000000E-03 0.  1.
         12    1    3    3    0    0  0.19652993044E+02  0.19826240633E+02 -0.14402139113E+02  0.31412442826E+02  0.00000000000E+00 0. -1.
</event>
<event>
 7    1  0.1692604E-013  0.7246160E+02  0.7816164E-02  0.1226708E+00
        -11   -1    0    0    0    0  0.00000000000E+00  0.00000000000E+00  0.45593999997E+02  0.45594000000E+02  0.51100000000E-03 0. -1.
         11   -1    0    0    0    0 -0.00000000000E+00 -0.00000000000E+00 -0.45593999997E+02  0.45594000000E+02  0.51100000000E-03 0.  1.
    9900012    2    1    2    0    0 -0.89310406468E+01 -0.16449241355E+02 -0.58065363635E+00  0.72461596532E+02  0.70000034180E+02 0.  0.
         12    1    1    2    0    0  0.89310406468E+01  0.16449241355E+02  0.58065363635E+00  0.18726403468E+02  0.00000000000E+00 0. -1.
         11    1    3    3    0    0 -0.20597766001E+02  0.64526362780E+01  0.21090752467E+02  0.30178209341E+02  0.51100000000E-03 0. -1.
        -11    1    3    3    0    0  0.12123101283E+02 -0.15097739434E+02 -0.12541387564E+00  0.19363033069E+02  0.51100000000E-03 0.  1.
        -12    1    3    3    0    0 -0.45637592817E+00 -0.78041381987E+01 -0.21545992227E+02  0.22920354122E+02  0.00000000000E+00 0.  1.
</event>
<event>
 7    1  0.1692604E-013  0.7246156E+02  0.7816164E-02  0.1226708E+00
        -11   -1    0    0    0    0  0.00000000000E+00  0.00000000000E+00  0.45593999997E+02  0.45594000000E+02  0.51100000000E-03 0. -1.
         11   -1    0    0    0    0 -0.00000000000E+00 -0.00000000000E+00 -0.45593999997E+02  0.45594000000E+02  0.51100000000E-03 0.  1.
    9900012    2    1    2    0    0 -0.17706689436E+02  0.60369362098E+01 -0.84147672155E+00  0.72461560598E+02  0.69999987369E+02 0.  0.
         12    1    1    2    0    0  0.17706689436E+02 -0.60369362098E+01  0.84147672155E+00  0.18726439402E+02  0.00000000000E+00 0. -1.
         11    1    3    3    0    0  0.77810381500E+01  0.62835803532E+01  0.13158828037E+02  0.16528239238E+02  0.51100000000E-03 0. -1.
        -11    1    3    3    0    0 -0.60740848427E+01  0.17085341796E+02 -0.22184239184E+02  0.28652118236E+02  0.51100000000E-03 0.  1.
         12    1    3    3    0    0 -0.19413642744E+02 -0.17331985940E+02  0.81839344252E+01  0.27281203124E+02  0.00000000000E+00 0. -1.
</event>
<event>
 7    1  0.1692604E-013  0.7246149E+02  0.7816164E-02  0.1226708E+00
        -11   -1    0    0    0    0  0.00000000000E+00  0.00000000000E+00  0.45593999997E+02  0.45594000000E+02  0.51100000000E-03 0. -1.
         11   -1    0    0    0    0 -0.00000000000E+00 -0.00000000000E+00 -0.45593999997E+02  0.45594000000E+02  0.51100000000E-03 0.  1.
    9900012    2    1    2    0    0 -0.16385397657E+02  0.90092744276E+00 -0.90216007555E+01  0.72461489198E+02  0.69999894357E+02 0.  0.
         12    1    1    2    0    0  0.16385397657E+02 -0.90092744276E+00  0.90216007555E+01  0.18726510802E+02  0.00000000000E+00 0. -1.
         11    1    3    3    0    0 -0.15838933283E+01  0.73938072879E+01  0.25245230364E+01  0.79718455271E+01  0.51100000000E-03 0. -1.
        -11    1    3    3    0    0  0.27542067859E+01  0.13334726350E+02 -0.29502646853E+02  0.32493180107E+02  0.51100000000E-03 0.  1.
        -12    1    3    3    0    0 -0.17555711114E+02 -0.19827606195E+02  0.17956523062E+02  0.31996463564E+02  0.00000000000E+00 0.  1.
</event>
<event>
 7    1  0.1692604E-013  0.7246157E+02  0.7816164E-02  0.1226708E+00
        -11   -1    0    0    0    0  0.00000000000E+00  0.00000000000E+00  0.45593999997E+02  0.45594000000E+02  0.51100000000E-03 0.  1.
         11   -1    0    0    0    0 -0.00000000000E+00 -0.00000000000E+00 -0.45593999997E+02  0.45594000000E+02  0.51100000000E-03 0. -1.
    9900012    2    1    2    0    0  0.15375508705E+02 -0.69983047220E+01  0.80806421685E+01  0.72461566416E+02  0.69999994948E+02 0.  0.
         12    1    1    2    0    0 -0.15375508705E+02  0.69983047220E+01 -0.80806421685E+01  0.18726433584E+02  0.00000000000E+00 0. -1.
         11    1    3    3    0    0  0.76636902070E+01 -0.62118972592E+01  0.92036412211E+01  0.13491731806E+02  0.51100000000E-03 0. -1.
        -11    1    3    3    0    0 -0.19657487453E+02 -0.16692299737E+02  0.61010294422E+01  0.26500419694E+02  0.51100000000E-03 0.  1.
         12    1    3    3    0    0  0.27369305951E+02  0.15905892274E+02 -0.72240284948E+01  0.32469414915E+02  0.00000000000E+00 0. -1.
</event>
<event>
 7    1  0.1692604E-013  0.7246157E+02  0.7816164E-02  0.1226708E+00
        -11   -1    0    0    0    0  0.00000000000E+00  0.00000000000E+00  0.45593999997E+02  0.45594000000E+02  0.51100000000E-03 0.  1.
         11   -1    0    0    0    0 -0.00000000000E+00 -0.00000000000E+00 -0.45593999997E+02  0.45594000000E+02  0.51100000000E-03 0. -1.
    9900012    2    1    2    0    0  0.96771437449E+01  0.50354926050E+01  0.15220908613E+02  0.72461565319E+02  0.69999993519E+02 0.  0.
         12    1    1    2    0    0 -0.96771437449E+01 -0.50354926050E+01 -0.15220908613E+02  0.18726434681E+02  0.00000000000E+00 0. -1.
         11    1    3    3    0    0  0.65018206652E+01 -0.29590119457E+01  0.66698992005E+01  0.97732788389E+01  0.51100000000E-03 0. -1.
        -11    1    3    3    0    0  0.87248792301E+01 -0.23736265919E+02 -0.79318058615E+01  0.26503723924E+02  0.51100000000E-03 0.  1.
         12    1    3    3    0    0 -0.55495561504E+01  0.31730770469E+02  0.16482815274E+02  0.36184562557E+02  0.00000000000E+00 0. -1.
</event>
<event>
 7    1  0.2352705E-013  0.7246157E+02  0.7816164E-02  0.1226708E+00
        -11   -1    0    0    0    0  0.00000000000E+00  0.00000000000E+00  0.45593999997E+02  0.45594000000E+02  0.51100000000E-03 0. -1.
         11   -1    0    0    0    0 -0.00000000000E+00 -0.00000000000E+00 -0.45593999997E+02  0.45594000000E+02  0.51100000000E-03 0.  1.
    9900012    2    1    2    0    0 -0.77408361012E+01  0.82675355723E+01 -0.14913303986E+02  0.72461566176E+02  0.69999994635E+02 0.  0.
         12    1    1    2    0    0  0.77408361012E+01 -0.82675355723E+01  0.14913303986E+02  0.18726433824E+02  0.00000000000E+00 0. -1.
         11    1    3    3    0    0 -0.28220329314E+01 -0.70669720858E+01  0.13850696695E+02  0.15803409870E+02  0.51100000000E-03 0. -1.
        -11    1    3    3    0    0 -0.24151371873E+02  0.98136589839E+01 -0.67896563133E+01  0.26938747170E+02  0.51100000000E-03 0.  1.
        -12    1    3    3    0    0  0.19232568703E+02  0.55208486742E+01 -0.21974344368E+02  0.29719409136E+02  0.00000000000E+00 0.  1.
</event>
<event>
 7    1  0.1692604E-013  0.7246157E+02  0.7816164E-02  0.1226708E+00
        -11   -1    0    0    0    0  0.00000000000E+00  0.00000000000E+00  0.45593999997E+02  0.45594000000E+02  0.51100000000E-03 0. -1.
         11   -1    0    0    0    0 -0.00000000000E+00 -0.00000000000E+00 -0.45593999997E+02  0.45594000000E+02  0.51100000000E-03 0.  1.
    9900012    2    1    2    0    0 -0.16927323438E+02  0.77743730296E+01  0.19245720313E+01  0.72461571289E+02  0.70000001295E+02 0.  0.
         12    1    1    2    0    0  0.16927323438E+02 -0.77743730296E+01 -0.19245720313E+01  0.18726428711E+02  0.00000000000E+00 0. -1.
         11    1    3    3    0    0  0.11992901005E+02 -0.13112628455E+01 -0.13191943503E+01  0.12136282740E+02  0.51100000000E-03 0. -1.
        -11    1    3    3    0    0  0.13940836940E+02  0.87317932497E+01 -0.38128738912E+01  0.16885767839E+02  0.51100000000E-03 0.  1.
        -12    1    3    3    0    0 -0.42861061383E+02  0.35384262532E+00  0.70566402728E+01  0.43439520709E+02  0.00000000000E+00 0.  1.
</event>
<event>
 7    1  0.1692604E-013  0.7246158E+02  0.7816164E-02  0.1226708E+00
        -11   -1    0    0    0    0  0.00000000000E+00  0.00000000000E+00  0.45593999997E+02  0.45594000000E+02  0.51100000000E-03 0.  1.
         11   -1    0    0    0    0 -0.00000000000E+00 -0.00000000000E+00 -0.45593999997E+02  0.45594000000E+02  0.51100000000E-03 0. -1.
    9900012    2    1    2    0    0  0.10746316814E+02 -0.13181410299E+02  0.78387416793E+01  0.72461580864E+02  0.70000013768E+02 0.  0.
         12    1    1    2    0    0 -0.10746316814E+02  0.13181410299E+02 -0.78387416793E+01  0.18726419136E+02  0.00000000000E+00 0. -1.
         11    1    3    3    0    0  0.16499763735E+01  0.94758081839E+01  0.11836184263E+02  0.15251512087E+02  0.51100000000E-03 0. -1.
        -11    1    3    3    0    0  0.17589825090E+02  0.95716549774E+01  0.83097587644E+01  0.21681111980E+02  0.51100000000E-03 0.  1.
        -12    1    3    3    0    0 -0.84934846493E+01 -0.32228873461E+02 -0.12307201348E+02  0.35528956797E+02  0.00000000000E+00 0.  1.
</event>
<event>
 7    1  0.1692604E-013  0.7246157E+02  0.7816164E-02  0.1226708E+00
        -11   -1    0    0    0    0  0.00000000000E+00  0.00000000000E+00  0.45593999997E+02  0.45594000000E+02  0.51100000000E-03 0. -1.
         11   -1    0    0    0    0 -0.00000000000E+00 -0.00000000000E+00 -0.45593999997E+02  0.45594000000E+02  0.51100000000E-03 0.  1.
    9900012    2    1    2    0    0 -0.52432235178E+01 -0.17816898869E+01 -0.17888920953E+02  0.72461566688E+02  0.69999995302E+02 0.  0.
         12    1    1    2    0    0  0.52432235178E+01  0.17816898869E+01  0.17888920953E+02  0.18726433312E+02  0.00000000000E+00 0. -1.
         11    1    3    3    0    0 -0.99141203379E+01  0.67004942215E+00  0.55335237051E+01  0.11373593678E+02  0.51100000000E-03 0. -1.
        -11    1    3    3    0    0 -0.42279217353E+01  0.25509521190E+02 -0.17305075334E+02  0.31113929776E+02  0.51100000000E-03 0.  1.
         12    1    3    3    0    0  0.88988185554E+01 -0.27961260499E+02 -0.61173693241E+01  0.29974043234E+02  0.00000000000E+00 0. -1.
</event>
<event>
 7    1  0.1692604E-013  0.7246156E+02  0.7816164E-02  0.1226708E+00
        -11   -1    0    0    0    0  0.00000000000E+00  0.00000000000E+00  0.45593999997E+02  0.45594000000E+02  0.51100000000E-03 0.  1.
         11   -1    0    0    0    0 -0.00000000000E+00 -0.00000000000E+00 -0.45593999997E+02  0.45594000000E+02  0.51100000000E-03 0. -1.
    9900012    2    1    2    0    0 -0.15381589990E+01 -0.16505558864E+02  0.87109132551E+01  0.72461563707E+02  0.69999991418E+02 0.  0.
         12    1    1    2    0    0  0.15381589990E+01  0.16505558864E+02 -0.87109132551E+01  0.18726436293E+02  0.00000000000E+00 0. -1.
         11    1    3    3    0    0 -0.27653096717E+02 -0.86374428792E+01 -0.94241098257E+00  0.28985984825E+02  0.51100000000E-03 0. -1.
        -11    1    3    3    0    0 -0.62574225800E+01  0.32880439773E+01  0.55553494212E+01  0.89904659498E+01  0.51100000000E-03 0.  1.
        -12    1    3    3    0    0  0.32372360298E+02 -0.11156159962E+02  0.40979748165E+01  0.34485112932E+02  0.00000000000E+00 0.  1.
</event>
<event>
 7    1  0.1692604E-013  0.7246157E+02  0.7816164E-02  0.1226708E+00
        -11   -1    0    0    0    0  0.00000000000E+00  0.00000000000E+00  0.45593999997E+02  0.45594000000E+02  0.51100000000E-03 0.  1.
         11   -1    0    0    0    0 -0.00000000000E+00 -0.00000000000E+00 -0.45593999997E+02  0.45594000000E+02  0.51100000000E-03 0. -1.
    9900012    2    1    2    0    0  0.14602148595E+02 -0.11624232236E+02  0.15276614395E+01  0.72461567661E+02  0.69999996570E+02 0.  0.
         12    1    1    2    0    0 -0.14602148595E+02  0.11624232236E+02 -0.15276614395E+01  0.18726432339E+02  0.00000000000E+00 0. -1.
         11    1    3    3    0    0  0.15181270671E+02 -0.18874610427E+02 -0.13744671266E+02  0.27850276236E+02  0.51100000000E-03 0. -1.
        -11    1    3    3    0    0  0.20491883879E+01 -0.10125989355E+02 -0.96358689308E+01  0.14127448594E+02  0.51100000000E-03 0.  1.
        -12    1    3    3    0    0 -0.26283104638E+01  0.17376367546E+02  0.24908201637E+02  0.30483842831E+02  0.00000000000E+00 0.  1.
</event>
<event>
 7    1  0.1692604E-013  0.7246157E+02  0.7816164E-02  0.1226708E+00
        -11   -1    0    0    0    0  0.00000000000E+00  0.00000000000E+00  0.45593999997E+02  0.45594000000E+02  0.51100000000E-03 0. -1.
         11   -1    0    0    0    0 -0.00000000000E+00 -0.00000000000E+00 -0.45593999997E+02  0.45594000000E+02  0.51100000000E-03 0.  1.
    9900012    2    1    2    0    0  0.10956680891E+02 -0.39612289470E+01 -0.14660800433E+02  0.72461567872E+02  0.69999996844E+02 0.  0.
         12    1    1    2    0    0 -0.10956680891E+02  0.39612289470E+01  0.14660800433E+02  0.18726432128E+02  0.00000000000E+00 0. -1.
         11    1    3    3    0    0  0.18854646051E+01  0.12815608163E+00 -0.24646742815E+01  0.31058042974E+01  0.51100000000E-03 0. -1.
        -11    1    3    3    0    0  0.37496573413E+02 -0.43027206523E+01 -0.15371535071E+02  0.40752797615E+02  0.51100000000E-03 0.  1.
         12    1    3    3    0    0 -0.28425357127E+02  0.21333562366E+00  0.31754089194E+01  0.28602965960E+02  0.00000000000E+00 0. -1.
</event>
<event>
 7    1  0.1692604E-013  0.7246157E+02  0.7816164E-02  0.1226708E+00
        -11   -1    0    0    0    0  0.00000000000E+00  0.00000000000E+00  0.45593999997E+02  0.45594000000E+02  0.51100000000E-03 0.  1.
         11   -1    0    0    0    0 -0.00000000000E+00 -0.00000000000E+00 -0.45593999997E+02  0.45594000000E+02  0.51100000000E-03 0. -1.
    9900012    2    1    2    0    0 -0.11537097993E+02 -0.14545302894E+02 -0.24512346092E+01  0.72461574354E+02  0.70000005288E+02 0.  0.
         12    1    1    2    0    0  0.11537097993E+02  0.14545302894E+02  0.24512346092E+01  0.18726425646E+02  0.00000000000E+00 0. -1.
         11    1    3    3    0    0 -0.19606467876E+02 -0.22272596171E+02  0.72220447464E+01  0.30539156068E+02  0.51100000000E-03 0. -1.
        -11    1    3    3    0    0  0.12130231179E+01  0.11767311695E+02  0.13187642616E+02  0.17715952349E+02  0.51100000000E-03 0.  1.
         12    1    3    3    0    0  0.68563467650E+01 -0.40400184176E+01 -0.22860921972E+02  0.24206465937E+02  0.00000000000E+00 0. -1.
</event>
<event>
 7    1  0.1692604E-013  0.7246156E+02  0.7816164E-02  0.1226708E+00
        -11   -1    0    0    0    0  0.00000000000E+00  0.00000000000E+00  0.45593999997E+02  0.45594000000E+02  0.51100000000E-03 0. -1.
         11   -1    0    0    0    0 -0.00000000000E+00 -0.00000000000E+00 -0.45593999997E+02  0.45594000000E+02  0.51100000000E-03 0.  1.
    9900012    2    1    2    0    0 -0.47170754462E+01  0.12756833286E+02 -0.12872141119E+02  0.72461558447E+02  0.69999984566E+02 0.  0.
         12    1    1    2    0    0  0.47170754462E+01 -0.12756833286E+02  0.12872141119E+02  0.18726441553E+02  0.00000000000E+00 0. -1.
         11    1    3    3    0    0  0.80460282669E+01  0.23820391902E+02  0.11813537004E+02  0.27779656190E+02  0.51100000000E-03 0. -1.
        -11    1    3    3    0    0  0.11373096771E+02 -0.27235385793E+01 -0.72195459239E+01  0.13743610740E+02  0.51100000000E-03 0.  1.
        -12    1    3    3    0    0 -0.24136200484E+02 -0.83400200367E+01 -0.17466132199E+02  0.30938291517E+02  0.00000000000E+00 0.  1.
</event>
<event>
 7    1  0.1692604E-013  0.7246158E+02  0.7816164E-02  0.1226708E+00
        -11   -1    0    0    0    0  0.00000000000E+00  0.00000000000E+00  0.45593999997E+02  0.45594000000E+02  0.51100000000E-03 0.  1.
         11   -1    0    0    0    0 -0.00000000000E+00 -0.00000000000E+00 -0.45593999997E+02  0.45594000000E+02  0.51100000000E-03 0. -1.
    9900012    2    1    2    0    0  0.99878588426E+01  0.10632819478E+02  0.11741572764E+02  0.72461582690E+02  0.70000016147E+02 0.  0.
         12    1    1    2    0    0 -0.99878588426E+01 -0.10632819478E+02 -0.11741572764E+02  0.18726417310E+02  0.00000000000E+00 0. -1.
         11    1    3    3    0    0 -0.18050513408E+02 -0.87995186071E+01 -0.85816517005E+01  0.21837978574E+02  0.51100000000E-03 0. -1.
        -11    1    3    3    0    0  0.11905583623E+02 -0.68894660558E-01  0.22256145462E+02  0.25240516615E+02  0.51100000000E-03 0.  1.
        -12    1    3    3    0    0  0.16132788628E+02  0.19501232746E+02 -0.19329209980E+01  0.25383087502E+02  0.00000000000E+00 0.  1.
</event>
<event>
 7    1  0.1692604E-013  0.7246155E+02  0.7816164E-02  0.1226708E+00
        -11   -1    0    0    0    0  0.00000000000E+00  0.00000000000E+00  0.45593999997E+02  0.45594000000E+02  0.51100000000E-03 0.  1.
         11   -1    0    0    0    0 -0.00000000000E+00 -0.00000000000E+00 -0.45593999997E+02  0.45594000000E+02  0.51100000000E-03 0. -1.
    9900012    2    1    2    0    0  0.18216518899E+02  0.46167958399E+00  0.43156916194E+01  0.72461550711E+02  0.69999974489E+02 0.  0.
         12    1    1    2    0    0 -0.18216518899E+02 -0.46167958399E+00 -0.43156916194E+01  0.18726449289E+02  0.00000000000E+00 0. -1.
         11    1    3    3    0    0  0.31843386004E+01 -0.12987947852E+02  0.59572635256E+01  0.14639528364E+02  0.51100000000E-03 0. -1.
        -11    1    3    3    0    0 -0.61441215366E+01 -0.50040773197E+01  0.20549977651E+02  0.22024817842E+02  0.51100000000E-03 0.  1.
         12    1    3    3    0    0  0.21176301835E+02  0.18453704756E+02 -0.22191549557E+02  0.35797204505E+02  0.00000000000E+00 0. -1.
</event>
<event>
 7    1  0.1692604E-013  0.7246158E+02  0.7816164E-02  0.1226708E+00
        -11   -1    0    0    0    0  0.00000000000E+00  0.00000000000E+00  0.45593999997E+02  0.45594000000E+02  0.51100000000E-03 0. -1.
         11   -1    0    0    0    0 -0.00000000000E+00 -0.00000000000E+00 -0.45593999997E+02  0.45594000000E+02  0.51100000000E-03 0.  1.
    9900012    2    1    2    0    0 -0.79245460880E+01 -0.75762675245E+01 -0.15181584660E+02  0.72461580879E+02  0.70000013788E+02 0.  0.
         12    1    1    2    0    0  0.79245460880E+01  0.75762675245E+01  0.15181584660E+02  0.18726419121E+02  0.00000000000E+00 0. -1.
         11    1    3    3    0    0 -0.13160132777E+02 -0.85617942295E+01 -0.36498421494E+01  0.16118770521E+02  0.51100000000E-03 0. -1.
        -11    1    3    3    0    0 -0.13985652108E+02 -0.20446501039E+02 -0.12054499916E+02  0.27549389070E+02  0.51100000000E-03 0.  1.
         12    1    3    3    0    0  0.19221238797E+02  0.21432027744E+02  0.52275740518E+00  0.28793421288E+02  0.00000000000E+00 0. -1.
</event>
<event>
 7    1  0.1692604E-013  0.7246156E+02  0.7816164E-02  0.1226708E+00
        -11   -1    0    0    0    0  0.00000000000E+00  0.00000000000E+00  0.45593999997E+02  0.45594000000E+02  0.51100000000E-03 0. -1.
         11   -1    0    0    0    0 -0.00000000000E+00 -0.00000000000E+00 -0.45593999997E+02  0.45594000000E+02  0.51100000000E-03 0.  1.
    9900012    2    1    2    0    0  0.27510936169E+00  0.18350849137E+02  0.37215744066E+01  0.72461562397E+02  0.69999989713E+02 0.  0.
         12    1    1    2    0    0 -0.27510936169E+00 -0.18350849137E+02 -0.37215744066E+01  0.18726437603E+02  0.00000000000E+00 0. -1.
         11    1    3    3    0    0  0.22186079056E+02  0.27244373539E+02 -0.69677344150E+01  0.35819370689E+02  0.51100000000E-03 0. -1.
        -11    1    3    3    0    0  0.42543285459E+01 -0.31863070760E+00  0.78850557162E+01  0.89652072376E+01  0.51100000000E-03 0.  1.
        -12    1    3    3    0    0 -0.26165298241E+02 -0.85748936943E+01  0.28042531054E+01  0.27676984470E+02  0.00000000000E+00 0.  1.
</event>
<event>
 7    1  0.1692604E-013  0.7246152E+02  0.7816164E-02  0.1226708E+00
        -11   -1    0    0    0    0  0.00000000000E+00  0.00000000000E+00  0.45593999997E+02  0.45594000000E+02  0.51100000000E-03 0.  1.
         11   -1    0    0    0    0 -0.00000000000E+00 -0.00000000000E+00 -0.45593999997E+02  0.45594000000E+02  0.51100000000E-03 0. -1.
    9900012    2    1    2    0    0 -0.16812424454E+02  0.50591327089E+00  0.82321056344E+01  0.72461518018E+02  0.69999931900E+02 0.  0.
         12    1    1    2    0    0  0.16812424454E+02 -0.50591327089E+00 -0.82321056344E+01  0.18726481982E+02  0.00000000000E+00 0. -1.
         11    1    3    3    0    0  0.59361367340E+01 -0.30439113977E+01  0.76813377260E+01  0.10173793071E+02  0.51100000000E-03 0. -1.
        -11    1    3    3    0    0  0.48332739594E+01 -0.54662701908E+01  0.23933543340E+02  0.25021093982E+02  0.51100000000E-03 0.  1.
         12    1    3    3    0    0 -0.27581835147E+02  0.90160948594E+01 -0.23382775432E+02  0.37266630965E+02  0.00000000000E+00 0. -1.
</event>
<event>
 7    1  0.1692604E-013  0.7246143E+02  0.7816164E-02  0.1226708E+00
        -11   -1    0    0    0    0  0.00000000000E+00  0.00000000000E+00  0.45593999997E+02  0.45594000000E+02  0.51100000000E-03 0.  1.
         11   -1    0    0    0    0 -0.00000000000E+00 -0.00000000000E+00 -0.45593999997E+02  0.45594000000E+02  0.51100000000E-03 0. -1.
    9900012    2    1    2    0    0  0.10614915647E+02 -0.26604612230E+00  0.15425210244E+02  0.72461432621E+02  0.69999820654E+02 0.  0.
         12    1    1    2    0    0 -0.10614915647E+02  0.26604612230E+00 -0.15425210244E+02  0.18726567379E+02  0.00000000000E+00 0. -1.
         11    1    3    3    0    0 -0.53768073509E+01  0.91487355618E+01  0.32732214149E+00  0.10616805532E+02  0.51100000000E-03 0. -1.
        -11    1    3    3    0    0 -0.77398477160E+01  0.18885015105E+02  0.14267518078E+02  0.24902030250E+02  0.51100000000E-03 0.  1.
         12    1    3    3    0    0  0.23731570713E+02 -0.28299796789E+02  0.83037002448E+00  0.36942596839E+02  0.00000000000E+00 0. -1.
</event>
<event>
 7    1  0.1692604E-013  0.7246152E+02  0.7816164E-02  0.1226708E+00
        -11   -1    0    0    0    0  0.00000000000E+00  0.00000000000E+00  0.45593999997E+02  0.45594000000E+02  0.51100000000E-03 0.  1.
         11   -1    0    0    0    0 -0.00000000000E+00 -0.00000000000E+00 -0.45593999997E+02  0.45594000000E+02  0.51100000000E-03 0. -1.
    9900012    2    1    2    0    0 -0.12343235993E+02  0.12445194701E+02  0.65910956581E+01  0.72461524413E+02  0.69999940231E+02 0.  0.
         12    1    1    2    0    0  0.12343235993E+02 -0.12445194701E+02 -0.65910956581E+01  0.18726475587E+02  0.00000000000E+00 0. -1.
         11    1    3    3    0    0  0.45850714281E+01 -0.13705447595E+02 -0.35908039902E+01  0.14891475660E+02  0.51100000000E-03 0. -1.
        -11    1    3    3    0    0  0.10122672193E+02 -0.50560086162E+01  0.11655860544E+02  0.16244716087E+02  0.51100000000E-03 0.  1.
         12    1    3    3    0    0 -0.27050979614E+02  0.31206650912E+02 -0.14739608960E+01  0.41325332666E+02  0.00000000000E+00 0. -1.
</event>
<event>
 7    1  0.1692604E-013  0.7246161E+02  0.7816164E-02  0.1226708E+00
        -11   -1    0    0    0    0  0.00000000000E+00  0.00000000000E+00  0.45593999997E+02  0.45594000000E+02  0.51100000000E-03 0.  1.
         11   -1    0    0    0    0 -0.00000000000E+00 -0.00000000000E+00 -0.45593999997E+02  0.45594000000E+02  0.51100000000E-03 0. -1.
    9900012    2    1    2    0    0  0.12181432489E+02  0.95525447135E+01  0.10537513903E+02  0.72461612007E+02  0.70000054339E+02 0.  0.
         12    1    1    2    0    0 -0.12181432489E+02 -0.95525447135E+01 -0.10537513903E+02  0.18726387993E+02  0.00000000000E+00 0. -1.
         11    1    3    3    0    0 -0.18770872400E+01 -0.96830001136E+01  0.39621568000E+00  0.98712174950E+01  0.51100000000E-03 0. -1.
        -11    1    3    3    0    0  0.34995895399E+02  0.20874432116E+02  0.73058039487E+01  0.41398422465E+02  0.51100000000E-03 0.  1.
         12    1    3    3    0    0 -0.20937375670E+02 -0.16388872886E+01  0.28354942743E+01  0.21191972048E+02  0.00000000000E+00 0. -1.
</event>
<event>
 7    1  0.1692604E-013  0.7246153E+02  0.7816164E-02  0.1226708E+00
        -11   -1    0    0    0    0  0.00000000000E+00  0.00000000000E+00  0.45593999997E+02  0.45594000000E+02  0.51100000000E-03 0. -1.
         11   -1    0    0    0    0 -0.00000000000E+00 -0.00000000000E+00 -0.45593999997E+02  0.45594000000E+02  0.51100000000E-03 0.  1.
    9900012    2    1    2    0    0 -0.15388856187E+01 -0.17771502273E+02 -0.56996826271E+01  0.72461525584E+02  0.69999941757E+02 0.  0.
         12    1    1    2    0    0  0.15388856187E+01  0.17771502273E+02  0.56996826271E+01  0.18726474416E+02  0.00000000000E+00 0. -1.
         11    1    3    3    0    0  0.21518384419E+02 -0.10757350808E+02 -0.11206162932E+02  0.26539396231E+02  0.51100000000E-03 0. -1.
        -11    1    3    3    0    0 -0.26664727861E+00  0.27216526992E+01  0.17973265191E+02  0.18180119804E+02  0.51100000000E-03 0.  1.
        -12    1    3    3    0    0 -0.22790622759E+02 -0.97358041642E+01 -0.12466784886E+02  0.27742009550E+02  0.00000000000E+00 0.  1.
</event>
<event>
 7    1  0.1692604E-013  0.7246154E+02  0.7816164E-02  0.1226708E+00
        -11   -1    0    0    0    0  0.00000000000E+00  0.00000000000E+00  0.45593999997E+02  0.45594000000E+02  0.51100000000E-03 0.  1.
         11   -1    0    0    0    0 -0.00000000000E+00 -0.00000000000E+00 -0.45593999997E+02  0.45594000000E+02  0.51100000000E-03 0. -1.
    9900012    2    1    2    0    0  0.32757270125E+01  0.15027916476E+02  0.10682299403E+02  0.72461543271E+02  0.69999964797E+02 0.  0.
         12    1    1    2    0    0 -0.32757270125E+01 -0.15027916476E+02 -0.10682299403E+02  0.18726456729E+02  0.00000000000E+00 0. -1.
         11    1    3    3    0    0  0.70800796830E+00  0.19066559627E+02 -0.13083676835E+02  0.23134769743E+02  0.51100000000E-03 0. -1.
        -11    1    3    3    0    0  0.30410188096E+01 -0.23824573783E+01 -0.12467541536E+02  0.13052336602E+02  0.51100000000E-03 0.  1.
         12    1    3    3    0    0 -0.47329976541E+00 -0.16561857723E+01  0.36233517774E+02  0.36274436926E+02  0.00000000000E+00 0. -1.
</event>
<event>
 7    1  0.1692604E-013  0.7246157E+02  0.7816164E-02  0.1226708E+00
        -11   -1    0    0    0    0  0.00000000000E+00  0.00000000000E+00  0.45593999997E+02  0.45594000000E+02  0.51100000000E-03 0.  1.
         11   -1    0    0    0    0 -0.00000000000E+00 -0.00000000000E+00 -0.45593999997E+02  0.45594000000E+02  0.51100000000E-03 0. -1.
    9900012    2    1    2    0    0  0.46252989094E+01 -0.48231486392E+00  0.18139821660E+02  0.72461570882E+02  0.70000000766E+02 0.  0.
         12    1    1    2    0    0 -0.46252989094E+01  0.48231486392E+00 -0.18139821660E+02  0.18726429118E+02  0.00000000000E+00 0. -1.
         11    1    3    3    0    0 -0.20463499592E+02 -0.15826412380E+02  0.12372116614E+02  0.28675763532E+02  0.51100000000E-03 0. -1.
        -11    1    3    3    0    0  0.13942075749E+01 -0.32912959773E+01  0.12412829215E+02  0.12917227774E+02  0.51100000000E-03 0.  1.
        -12    1    3    3    0    0  0.23694590927E+02  0.18635393493E+02 -0.66451241689E+01  0.30868579576E+02  0.00000000000E+00 0.  1.
</event>
<event>
 7    1  0.1692604E-013  0.7246157E+02  0.7816164E-02  0.1226708E+00
        -11   -1    0    0    0    0  0.00000000000E+00  0.00000000000E+00  0.45593999997E+02  0.45594000000E+02  0.51100000000E-03 0.  1.
         11   -1    0    0    0    0 -0.00000000000E+00 -0.00000000000E+00 -0.45593999997E+02  0.45594000000E+02  0.51100000000E-03 0. -1.
    9900012    2    1    2    0    0 -0.69690160450E+00 -0.15217174814E+02  0.10891789031E+02  0.72461570830E+02  0.70000000698E+02 0.  0.
         12    1    1    2    0    0  0.69690160450E+00  0.15217174814E+02 -0.10891789031E+02  0.18726429170E+02  0.00000000000E+00 0. -1.
         11    1    3    3    0    0 -0.24804400525E+01 -0.87372793849E+00 -0.41588258282E+01  0.49205503651E+01  0.51100000000E-03 0. -1.
        -11    1    3    3    0    0  0.19068131745E+01  0.11393504893E+02  0.33786278962E+02  0.35706589540E+02  0.51100000000E-03 0.  1.
         12    1    3    3    0    0 -0.12327472647E+00 -0.25736951768E+02 -0.18735664103E+02  0.31834430925E+02  0.00000000000E+00 0. -1.
</event>
<event>
 7    1  0.1692604E-013  0.7246156E+02  0.7816164E-02  0.1226708E+00
        -11   -1    0    0    0    0  0.00000000000E+00  0.00000000000E+00  0.45593999997E+02  0.45594000000E+02  0.51100000000E-03 0.  1.
         11   -1    0    0    0    0 -0.00000000000E+00 -0.00000000000E+00 -0.45593999997E+02  0.45594000000E+02  0.51100000000E-03 0. -1.
    9900012    2    1    2    0    0  0.73297773150E+01 -0.17170741666E+02  0.14558344062E+01  0.72461562574E+02  0.69999989943E+02 0.  0.
         12    1    1    2    0    0 -0.73297773150E+01  0.17170741666E+02 -0.14558344062E+01  0.18726437426E+02  0.00000000000E+00 0. -1.
         11    1    3    3    0    0  0.12876533584E+02 -0.32560952112E+02  0.17936932879E+02  0.39341508371E+02  0.51100000000E-03 0. -1.
        -11    1    3    3    0    0  0.28423927535E+01 -0.31982379777E+01  0.27521534346E+01  0.50874621882E+01  0.51100000000E-03 0.  1.
        -12    1    3    3    0    0 -0.83891490221E+01  0.18588448424E+02 -0.19233251907E+02  0.28032592014E+02  0.00000000000E+00 0.  1.
</event>
<event>
 7    1  0.1692604E-013  0.7246149E+02  0.7816164E-02  0.1226708E+00
        -11   -1    0    0    0    0  0.00000000000E+00  0.00000000000E+00  0.45593999997E+02  0.45594000000E+02  0.51100000000E-03 0. -1.
         11   -1    0    0    0    0 -0.00000000000E+00 -0.00000000000E+00 -0.45593999997E+02  0.45594000000E+02  0.51100000000E-03 0.  1.
    9900012    2    1    2    0    0 -0.10101478932E+02  0.46514371238E+01 -0.15066733772E+02  0.72461489100E+02  0.69999894229E+02 0.  0.
         12    1    1    2    0    0  0.10101478932E+02 -0.46514371238E+01  0.15066733772E+02  0.18726510900E+02  0.00000000000E+00 0. -1.
         11    1    3    3    0    0 -0.41670587736E+01 -0.22627004032E+02  0.80353437057E+00  0.23021541174E+02  0.51100000000E-03 0. -1.
        -11    1    3    3    0    0 -0.18467085522E+02  0.19580944860E+01 -0.64276580078E+01  0.19651518247E+02  0.51100000000E-03 0.  1.
         12    1    3    3    0    0  0.12532665363E+02  0.25320346669E+02 -0.94426101349E+01  0.29788429679E+02  0.00000000000E+00 0. -1.
</event>
<event>
 7    1  0.1692604E-013  0.7246158E+02  0.7816164E-02  0.1226708E+00
        -11   -1    0    0    0    0  0.00000000000E+00  0.00000000000E+00  0.45593999997E+02  0.45594000000E+02  0.51100000000E-03 0.  1.
         11   -1    0    0    0    0 -0.00000000000E+00 -0.00000000000E+00 -0.45593999997E+02  0.45594000000E+02  0.51100000000E-03 0. -1.
    9900012    2    1    2    0    0  0.10162745433E+02 -0.89276041610E+01  0.12949726175E+02  0.72461576989E+02  0.70000008721E+02 0.  0.
         12    1    1    2    0    0 -0.10162745433E+02  0.89276041610E+01 -0.12949726175E+02  0.18726423011E+02  0.00000000000E+00 0. -1.
         11    1    3    3    0    0  0.42251930561E+00 -0.10131062143E+02 -0.16206084178E+02  0.19116854013E+02  0.51100000000E-03 0. -1.
        -11    1    3    3    0    0 -0.13383367403E+02 -0.46765651254E+01 -0.17675755075E+01  0.14286675885E+02  0.51100000000E-03 0.  1.
        -12    1    3    3    0    0  0.23123593530E+02  0.58800231076E+01  0.30923385860E+02  0.39058047091E+02  0.00000000000E+00 0.  1.
</event>
<event>
 7    1  0.1692604E-013  0.7246161E+02  0.7816164E-02  0.1226708E+00
        -11   -1    0    0    0    0  0.00000000000E+00  0.00000000000E+00  0.45593999997E+02  0.45594000000E+02  0.51100000000E-03 0. -1.
         11   -1    0    0    0    0 -0.00000000000E+00 -0.00000000000E+00 -0.45593999997E+02  0.45594000000E+02  0.51100000000E-03 0.  1.
    9900012    2    1    2    0    0  0.83315521086E+01 -0.14130637042E+02 -0.90326139393E+01  0.72461607440E+02  0.70000048388E+02 0.  0.
         12    1    1    2    0    0 -0.83315521086E+01  0.14130637042E+02  0.90326139393E+01  0.18726392560E+02  0.00000000000E+00 0. -1.
         11    1    3    3    0    0  0.67813120088E+01 -0.10525262253E+02 -0.23762727697E+02  0.26859533986E+02  0.51100000000E-03 0. -1.
        -11    1    3    3    0    0  0.18825769723E+02  0.50278984652E+01 -0.25944206935E+01  0.19657578377E+02  0.51100000000E-03 0.  1.
         12    1    3    3    0    0 -0.17275529623E+02 -0.86332732547E+01  0.17324534451E+02  0.25944495077E+02  0.00000000000E+00 0. -1.
</event>
<event>
 7    1  0.1692604E-013  0.7246154E+02  0.7816164E-02  0.1226708E+00
        -11   -1    0    0    0    0  0.00000000000E+00  0.00000000000E+00  0.45593999997E+02  0.45594000000E+02  0.51100000000E-03 0.  1.
         11   -1    0    0    0    0 -0.00000000000E+00 -0.00000000000E+00 -0.45593999997E+02  0.45594000000E+02  0.51100000000E-03 0. -1.
    9900012    2    1    2    0    0  0.34787844665E+00 -0.13028489887E+02  0.13446842914E+02  0.72461544049E+02  0.69999965810E+02 0.  0.
         12    1    1    2    0    0 -0.34787844665E+00  0.13028489887E+02 -0.13446842914E+02  0.18726455951E+02  0.00000000000E+00 0. -1.
         11    1    3    3    0    0  0.19531052976E+01 -0.13659973705E+02 -0.22451306634E+02  0.26352811458E+02  0.51100000000E-03 0. -1.
        -11    1    3    3    0    0 -0.60242442971E+01  0.81950307724E+01  0.11062695533E+01  0.10231025427E+02  0.51100000000E-03 0.  1.
        -12    1    3    3    0    0  0.44190174461E+01 -0.75635469543E+01  0.34791879995E+02  0.35877707163E+02  0.00000000000E+00 0.  1.
</event>
<event>
 7    1  0.1692604E-013  0.7246165E+02  0.7816164E-02  0.1226708E+00
        -11   -1    0    0    0    0  0.00000000000E+00  0.00000000000E+00  0.45593999997E+02  0.45594000000E+02  0.51100000000E-03 0.  1.
         11   -1    0    0    0    0 -0.00000000000E+00 -0.00000000000E+00 -0.45593999997E+02  0.45594000000E+02  0.51100000000E-03 0. -1.
    9900012    2    1    2    0    0  0.17411578043E+02  0.45305093294E+01  0.51949454145E+01  0.72461654318E+02  0.70000109457E+02 0.  0.
         12    1    1    2    0    0 -0.17411578043E+02 -0.45305093294E+01 -0.51949454145E+01  0.18726345682E+02  0.00000000000E+00 0. -1.
         11    1    3    3    0    0 -0.94063522790E+01  0.99251231350E+00 -0.12875475167E+02  0.15976307613E+02  0.51100000000E-03 0. -1.
        -11    1    3    3    0    0  0.24850319079E+02  0.18010199472E+02 -0.30121166683E+01  0.30837939141E+02  0.51100000000E-03 0.  1.
         12    1    3    3    0    0  0.19676112425E+01 -0.14472202456E+02  0.21082537250E+02  0.25647407565E+02  0.00000000000E+00 0. -1.
</event>
<event>
 7    1  0.1692604E-013  0.7246159E+02  0.7816164E-02  0.1226708E+00
        -11   -1    0    0    0    0  0.00000000000E+00  0.00000000000E+00  0.45593999997E+02  0.45594000000E+02  0.51100000000E-03 0.  1.
         11   -1    0    0    0    0 -0.00000000000E+00 -0.00000000000E+00 -0.45593999997E+02  0.45594000000E+02  0.51100000000E-03 0. -1.
    9900012    2    1    2    0    0  0.84341607691E+01 -0.57461197062E+01  0.15701131582E+02  0.72461588371E+02  0.70000023548E+02 0.  0.
         12    1    1    2    0    0 -0.84341607691E+01  0.57461197062E+01 -0.15701131582E+02  0.18726411629E+02  0.00000000000E+00 0. -1.
         11    1    3    3    0    0  0.13324511809E+02 -0.70658500072E+01 -0.14216471449E+02  0.20726237284E+02  0.51100000000E-03 0. -1.
        -11    1    3    3    0    0 -0.12364670995E+02  0.57957688596E+01 -0.58983529499E+01  0.14875032547E+02  0.51100000000E-03 0.  1.
        -12    1    3    3    0    0  0.74743199559E+01 -0.44760385586E+01  0.35815955981E+02  0.36860318539E+02  0.00000000000E+00 0.  1.
</event>
<event>
 7    1  0.1692604E-013  0.7246161E+02  0.7816164E-02  0.1226708E+00
        -11   -1    0    0    0    0  0.00000000000E+00  0.00000000000E+00  0.45593999997E+02  0.45594000000E+02  0.51100000000E-03 0.  1.
         11   -1    0    0    0    0 -0.00000000000E+00 -0.00000000000E+00 -0.45593999997E+02  0.45594000000E+02  0.51100000000E-03 0. -1.
    9900012    2    1    2    0    0  0.66420243631E+01  0.41275541855E+01  0.17015419590E+02  0.72461609664E+02  0.70000051287E+02 0.  0.
         12    1    1    2    0    0 -0.66420243631E+01 -0.41275541855E+01 -0.17015419590E+02  0.18726390336E+02  0.00000000000E+00 0. -1.
         11    1    3    3    0    0 -0.18927186309E+01 -0.21542409724E+02  0.10693236723E+02  0.24124740671E+02  0.51100000000E-03 0. -1.
        -11    1    3    3    0    0 -0.19509522823E+01  0.10107951342E+02  0.21737496649E+02  0.24051936636E+02  0.51100000000E-03 0.  1.
        -12    1    3    3    0    0  0.10485695276E+02  0.15562012568E+02 -0.15415313782E+02  0.24284932357E+02  0.00000000000E+00 0.  1.
</event>
<event>
 7    1  0.1692604E-013  0.7246161E+02  0.7816164E-02  0.1226708E+00
        -11   -1    0    0    0    0  0.00000000000E+00  0.00000000000E+00  0.45593999997E+02  0.45594000000E+02  0.51100000000E-03 0.  1.
         11   -1    0    0    0    0 -0.00000000000E+00 -0.00000000000E+00 -0.45593999997E+02  0.45594000000E+02  0.51100000000E-03 0. -1.
    9900012    2    1    2    0    0 -0.15177135054E+02 -0.71662948589E+01 -0.83052111058E+01  0.72461608410E+02  0.70000049653E+02 0.  0.
         12    1    1    2    0    0  0.15177135054E+02  0.71662948589E+01  0.83052111058E+01  0.18726391590E+02  0.00000000000E+00 0. -1.
         11    1    3    3    0    0 -0.97966720860E+00  0.12492546206E+02  0.42626623166E+01  0.13236077547E+02  0.51100000000E-03 0. -1.
        -11    1    3    3    0    0 -0.62749316818E+01 -0.23137819299E+02  0.16364903140E+02  0.29026599948E+02  0.51100000000E-03 0.  1.
         12    1    3    3    0    0 -0.79225361637E+01  0.34789782341E+01 -0.28932776562E+02  0.30198930915E+02  0.00000000000E+00 0. -1.
</event>
<event>
 7    1  0.1692604E-013  0.7246167E+02  0.7816164E-02  0.1226708E+00
        -11   -1    0    0    0    0  0.00000000000E+00  0.00000000000E+00  0.45593999997E+02  0.45594000000E+02  0.51100000000E-03 0.  1.
         11   -1    0    0    0    0 -0.00000000000E+00 -0.00000000000E+00 -0.45593999997E+02  0.45594000000E+02  0.51100000000E-03 0. -1.
    9900012    2    1    2    0    0 -0.30309535272E+01 -0.15868291599E+02  0.94702642801E+01  0.72461674597E+02  0.70000135873E+02 0.  0.
         12    1    1    2    0    0  0.30309535272E+01  0.15868291599E+02 -0.94702642801E+01  0.18726325403E+02  0.00000000000E+00 0. -1.
         11    1    3    3    0    0 -0.44490741922E+01 -0.27126370017E+01 -0.20444590029E+02  0.21098197136E+02  0.51100000000E-03 0. -1.
        -11    1    3    3    0    0  0.83745765310E+01 -0.69562069922E+01 -0.72292428087E+01  0.13068446719E+02  0.51100000000E-03 0.  1.
         12    1    3    3    0    0 -0.69564558661E+01 -0.61994476053E+01  0.37144097118E+02  0.38295030742E+02  0.00000000000E+00 0. -1.
</event>
<event>
 7    1  0.1692604E-013  0.7246159E+02  0.7816164E-02  0.1226708E+00
        -11   -1    0    0    0    0  0.00000000000E+00  0.00000000000E+00  0.45593999997E+02  0.45594000000E+02  0.51100000000E-03 0. -1.
         11   -1    0    0    0    0 -0.00000000000E+00 -0.00000000000E+00 -0.45593999997E+02  0.45594000000E+02  0.51100000000E-03 0.  1.
    9900012    2    1    2    0    0 -0.50785563297E+01  0.15368097461E+02 -0.94185070029E+01  0.72461590089E+02  0.70000025787E+02 0.  0.
         12    1    1    2    0    0  0.50785563297E+01 -0.15368097461E+02  0.94185070029E+01  0.18726409911E+02  0.00000000000E+00 0. -1.
         11    1    3    3    0    0  0.26908774948E+02  0.11186424587E+02 -0.23222544138E+01  0.29233732743E+02  0.51100000000E-03 0. -1.
        -11    1    3    3    0    0 -0.68331090339E+01  0.11061009884E+02 -0.10782285713E+02  0.16890678026E+02  0.51100000000E-03 0.  1.
        -12    1    3    3    0    0 -0.25154222244E+02 -0.68793370088E+01  0.36860331239E+01  0.26337179321E+02  0.00000000000E+00 0.  1.
</event>
<event>
 7    1  0.1692604E-013  0.7246159E+02  0.7816164E-02  0.1226708E+00
        -11   -1    0    0    0    0  0.00000000000E+00  0.00000000000E+00  0.45593999997E+02  0.45594000000E+02  0.51100000000E-03 0. -1.
         11   -1    0    0    0    0 -0.00000000000E+00 -0.00000000000E+00 -0.45593999997E+02  0.45594000000E+02  0.51100000000E-03 0.  1.
    9900012    2    1    2    0    0 -0.48594727442E+01  0.17774523431E+02 -0.33362281700E+01  0.72461586116E+02  0.70000020611E+02 0.  0.
         12    1    1    2    0    0  0.48594727442E+01 -0.17774523431E+02  0.33362281700E+01  0.18726413884E+02  0.00000000000E+00 0. -1.
         11    1    3    3    0    0 -0.10241211185E+02  0.10074056948E+02 -0.36174675828E+01  0.14814017075E+02  0.51100000000E-03 0. -1.
        -11    1    3    3    0    0 -0.16740348670E+02  0.20366638467E+02 -0.12447917389E+02  0.29154585980E+02  0.51100000000E-03 0.  1.
         12    1    3    3    0    0  0.22122087110E+02 -0.12666171984E+02  0.12729156802E+02  0.28492983062E+02  0.00000000000E+00 0. -1.
</event>
<event>
 7    1  0.1692604E-013  0.7246149E+02  0.7816164E-02  0.1226708E+00
        -11   -1    0    0    0    0  0.00000000000E+00  0.00000000000E+00  0.45593999997E+02  0.45594000000E+02  0.51100000000E-03 0. -1.
         11   -1    0    0    0    0 -0.00000000000E+00 -0.00000000000E+00 -0.45593999997E+02  0.45594000000E+02  0.51100000000E-03 0.  1.
    9900012    2    1    2    0    0  0.12760745744E+02 -0.57135982726E-01 -0.13705550441E+02  0.72461494470E+02  0.69999901225E+02 0.  0.
         12    1    1    2    0    0 -0.12760745744E+02  0.57135982726E-01  0.13705550441E+02  0.18726505530E+02  0.00000000000E+00 0. -1.
         11    1    3    3    0    0  0.21309791817E+02 -0.14674979059E+02 -0.27369099183E+02  0.37663375155E+02  0.51100000000E-03 0. -1.
        -11    1    3    3    0    0 -0.62307077386E+01 -0.54643528969E+01 -0.27780060498E+01  0.87406057787E+01  0.51100000000E-03 0.  1.
         12    1    3    3    0    0 -0.23183383348E+01  0.20082195973E+02  0.16441554792E+02  0.26057513537E+02  0.00000000000E+00 0. -1.
</event>
<event>
 7    1  0.1692604E-013  0.7246159E+02  0.7816164E-02  0.1226708E+00
        -11   -1    0    0    0    0  0.00000000000E+00  0.00000000000E+00  0.45593999997E+02  0.45594000000E+02  0.51100000000E-03 0.  1.
         11   -1    0    0    0    0 -0.00000000000E+00 -0.00000000000E+00 -0.45593999997E+02  0.45594000000E+02  0.51100000000E-03 0. -1.
    9900012    2    1    2    0    0  0.44332702087E+01 -0.14227456904E+02  0.11340371967E+02  0.72461589477E+02  0.70000024989E+02 0.  0.
         12    1    1    2    0    0 -0.44332702087E+01  0.14227456904E+02 -0.11340371967E+02  0.18726410523E+02  0.00000000000E+00 0. -1.
         11    1    3    3    0    0  0.15323018174E+02 -0.12893529547E+02 -0.15333342771E+02  0.25222002120E+02  0.51100000000E-03 0. -1.
        -11    1    3    3    0    0  0.10050584917E+02 -0.11832148687E+02  0.96007775253E+01  0.18253463482E+02  0.51100000000E-03 0.  1.
        -12    1    3    3    0    0 -0.20940332882E+02  0.10498221330E+02  0.17072937213E+02  0.28986123876E+02  0.00000000000E+00 0.  1.
</event>
<event>
 7    1  0.1692604E-013  0.7246166E+02  0.7816164E-02  0.1226708E+00
        -11   -1    0    0    0    0  0.00000000000E+00  0.00000000000E+00  0.45593999997E+02  0.45594000000E+02  0.51100000000E-03 0.  1.
         11   -1    0    0    0    0 -0.00000000000E+00 -0.00000000000E+00 -0.45593999997E+02  0.45594000000E+02  0.51100000000E-03 0. -1.
    9900012    2    1    2    0    0  0.11262437525E+02 -0.64333555359E+01  0.13507223003E+02  0.72461664648E+02  0.70000122913E+02 0.  0.
         12    1    1    2    0    0 -0.11262437525E+02  0.64333555359E+01 -0.13507223003E+02  0.18726335352E+02  0.00000000000E+00 0. -1.
         11    1    3    3    0    0  0.12993323402E+02  0.17021943378E+01 -0.18227150408E+02  0.22448895983E+02  0.51100000000E-03 0. -1.
        -11    1    3    3    0    0 -0.83412875481E+01 -0.14049051637E+02 -0.73358143772E+00  0.16355154290E+02  0.51100000000E-03 0.  1.
        -12    1    3    3    0    0  0.66104016714E+01  0.59135017629E+01  0.32467954849E+02  0.33657614375E+02  0.00000000000E+00 0.  1.
</event>
<event>
 7    1  0.1692604E-013  0.7246156E+02  0.7816164E-02  0.1226708E+00
        -11   -1    0    0    0    0  0.00000000000E+00  0.00000000000E+00  0.45593999997E+02  0.45594000000E+02  0.51100000000E-03 0.  1.
         11   -1    0    0    0    0 -0.00000000000E+00 -0.00000000000E+00 -0.45593999997E+02  0.45594000000E+02  0.51100000000E-03 0. -1.
    9900012    2    1    2    0    0  0.10222424434E+00 -0.14107701457E+02  0.12314295270E+02  0.72461559917E+02  0.69999986482E+02 0.  0.
         12    1    1    2    0    0 -0.10222424434E+00  0.14107701457E+02 -0.12314295270E+02  0.18726440083E+02  0.00000000000E+00 0. -1.
         11    1    3    3    0    0  0.58489907941E+01 -0.15263501525E+02 -0.25067459194E+02  0.29925953332E+02  0.51100000000E-03 0. -1.
        -11    1    3    3    0    0  0.29145411003E+01  0.80488208964E+01  0.11096709817E+02  0.14014814900E+02  0.51100000000E-03 0.  1.
        -12    1    3    3    0    0 -0.86613076502E+01 -0.68930208277E+01  0.26285044646E+02  0.28520791686E+02  0.00000000000E+00 0.  1.
</event>
<event>
 7    1  0.1692604E-013  0.7246156E+02  0.7816164E-02  0.1226708E+00
        -11   -1    0    0    0    0  0.00000000000E+00  0.00000000000E+00  0.45593999997E+02  0.45594000000E+02  0.51100000000E-03 0. -1.
         11   -1    0    0    0    0 -0.00000000000E+00 -0.00000000000E+00 -0.45593999997E+02  0.45594000000E+02  0.51100000000E-03 0.  1.
    9900012    2    1    2    0    0 -0.32228427289E+01 -0.11328865533E+02 -0.14558485701E+02  0.72461563729E+02  0.69999991447E+02 0.  0.
         12    1    1    2    0    0  0.32228427289E+01  0.11328865533E+02  0.14558485701E+02  0.18726436271E+02  0.00000000000E+00 0. -1.
         11    1    3    3    0    0 -0.20510162867E+02  0.10405416290E+02  0.46747324778E+01  0.23468970855E+02  0.51100000000E-03 0. -1.
        -11    1    3    3    0    0  0.14654655588E+02 -0.67997216184E+01  0.78432608286E+01  0.17958615904E+02  0.51100000000E-03 0.  1.
        -12    1    3    3    0    0  0.26326645498E+01 -0.14934560204E+02 -0.27076479008E+02  0.31033976970E+02  0.00000000000E+00 0.  1.
</event>
<event>
 7    1  0.1692604E-013  0.7246154E+02  0.7816164E-02  0.1226708E+00
        -11   -1    0    0    0    0  0.00000000000E+00  0.00000000000E+00  0.45593999997E+02  0.45594000000E+02  0.51100000000E-03 0.  1.
         11   -1    0    0    0    0 -0.00000000000E+00 -0.00000000000E+00 -0.45593999997E+02  0.45594000000E+02  0.51100000000E-03 0. -1.
    9900012    2    1    2    0    0  0.10805677383E+02 -0.12342412674E+02  0.90322957642E+01  0.72461543285E+02  0.69999964816E+02 0.  0.
         12    1    1    2    0    0 -0.10805677383E+02  0.12342412674E+02 -0.90322957642E+01  0.18726456715E+02  0.00000000000E+00 0. -1.
         11    1    3    3    0    0  0.15976305853E+02  0.54177567261E+00 -0.27801521421E+01  0.16225446551E+02  0.51100000000E-03 0. -1.
        -11    1    3    3    0    0 -0.66842282629E+01 -0.22702008239E+02  0.28359187799E+02  0.36936480861E+02  0.51100000000E-03 0.  1.
         12    1    3    3    0    0  0.15135997926E+01  0.98178198922E+01 -0.16546739892E+02  0.19299615873E+02  0.00000000000E+00 0. -1.
</event>
<event>
 7    1  0.1692604E-013  0.7246154E+02  0.7816164E-02  0.1226708E+00
        -11   -1    0    0    0    0  0.00000000000E+00  0.00000000000E+00  0.45593999997E+02  0.45594000000E+02  0.51100000000E-03 0. -1.
         11   -1    0    0    0    0 -0.00000000000E+00 -0.00000000000E+00 -0.45593999997E+02  0.45594000000E+02  0.51100000000E-03 0.  1.
    9900012    2    1    2    0    0 -0.76215468754E+00  0.21940610117E+01 -0.18581863111E+02  0.72461536902E+02  0.69999956500E+02 0.  0.
         12    1    1    2    0    0  0.76215468754E+00 -0.21940610117E+01  0.18581863111E+02  0.18726463098E+02  0.00000000000E+00 0. -1.
         11    1    3    3    0    0  0.14137629805E+02 -0.56105492122E+01  0.51441813306E+01  0.16056570019E+02  0.51100000000E-03 0. -1.
        -11    1    3    3    0    0 -0.19142699303E+02 -0.30566713383E+01 -0.35111739635E+02  0.40107610708E+02  0.51100000000E-03 0.  1.
         12    1    3    3    0    0  0.42429148103E+01  0.10861281562E+02  0.11385695193E+02  0.16297356175E+02  0.00000000000E+00 0. -1.
</event>
<event>
 7    1  0.1692604E-013  0.7246162E+02  0.7816164E-02  0.1226708E+00
        -11   -1    0    0    0    0  0.00000000000E+00  0.00000000000E+00  0.45593999997E+02  0.45594000000E+02  0.51100000000E-03 0. -1.
         11   -1    0    0    0    0 -0.00000000000E+00 -0.00000000000E+00 -0.45593999997E+02  0.45594000000E+02  0.51100000000E-03 0.  1.
    9900012    2    1    2    0    0 -0.14278821173E+02  0.11956960021E+02 -0.19554467968E+01  0.72461617562E+02  0.70000061575E+02 0.  0.
         12    1    1    2    0    0  0.14278821173E+02 -0.11956960021E+02  0.19554467968E+01  0.18726382438E+02  0.00000000000E+00 0. -1.
         11    1    3    3    0    0 -0.16221894327E+02 -0.16162581182E+02  0.30236064415E+01  0.23098075292E+02  0.51100000000E-03 0. -1.
        -11    1    3    3    0    0  0.30019622285E+01  0.44584436147E+00 -0.18358040820E+02  0.18607208749E+02  0.51100000000E-03 0.  1.
        -12    1    3    3    0    0 -0.10588890736E+01  0.27673696842E+02  0.13378987582E+02  0.30756333521E+02  0.00000000000E+00 0.  1.
</event>
<event>
 7    1  0.1692604E-013  0.7246156E+02  0.7816164E-02  0.1226708E+00
        -11   -1    0    0    0    0  0.00000000000E+00  0.00000000000E+00  0.45593999997E+02  0.45594000000E+02  0.51100000000E-03 0.  1.
         11   -1    0    0    0    0 -0.00000000000E+00 -0.00000000000E+00 -0.45593999997E+02  0.45594000000E+02  0.51100000000E-03 0. -1.
    9900012    2    1    2    0    0  0.14864227369E+02 -0.11310809452E+02 -0.13415664819E+01  0.72461562369E+02  0.69999989675E+02 0.  0.
         12    1    1    2    0    0 -0.14864227369E+02  0.11310809452E+02  0.13415664819E+01  0.18726437631E+02  0.00000000000E+00 0. -1.
         11    1    3    3    0    0  0.37533892855E+02 -0.89210098482E+01 -0.66694445029E+01  0.39151743509E+02  0.51100000000E-03 0. -1.
        -11    1    3    3    0    0  0.79421536871E+00  0.51571200303E+01  0.68548538243E+01  0.86148526553E+01  0.51100000000E-03 0.  1.
         12    1    3    3    0    0 -0.23463880855E+02 -0.75469196340E+01 -0.15269758034E+01  0.24694966204E+02  0.00000000000E+00 0. -1.
</event>
<event>
 7    1  0.1692604E-013  0.7246161E+02  0.7816164E-02  0.1226708E+00
        -11   -1    0    0    0    0  0.00000000000E+00  0.00000000000E+00  0.45593999997E+02  0.45594000000E+02  0.51100000000E-03 0. -1.
         11   -1    0    0    0    0 -0.00000000000E+00 -0.00000000000E+00 -0.45593999997E+02  0.45594000000E+02  0.51100000000E-03 0.  1.
    9900012    2    1    2    0    0  0.13669548423E+02  0.37936843540E+01 -0.12224120726E+02  0.72461608928E+02  0.70000050327E+02 0.  0.
         12    1    1    2    0    0 -0.13669548423E+02 -0.37936843540E+01  0.12224120726E+02  0.18726391072E+02  0.00000000000E+00 0. -1.
         11    1    3    3    0    0 -0.17580549560E+02 -0.29848764315E+01  0.15315029138E+02  0.23506070022E+02  0.51100000000E-03 0. -1.
        -11    1    3    3    0    0 -0.27604610869E+01  0.40356902891E+01  0.32849177092E+00  0.49004947328E+01  0.51100000000E-03 0.  1.
        -12    1    3    3    0    0  0.34010559069E+02  0.27428704964E+01 -0.27867641635E+02  0.44055044173E+02  0.00000000000E+00 0.  1.
</event>
<event>
 7    1  0.1692604E-013  0.7246157E+02  0.7816164E-02  0.1226708E+00
        -11   -1    0    0    0    0  0.00000000000E+00  0.00000000000E+00  0.45593999997E+02  0.45594000000E+02  0.51100000000E-03 0. -1.
         11   -1    0    0    0    0 -0.00000000000E+00 -0.00000000000E+00 -0.45593999997E+02  0.45594000000E+02  0.51100000000E-03 0.  1.
    9900012    2    1    2    0    0 -0.13651072297E+02  0.10245541851E+01 -0.12778020858E+02  0.72461566726E+02  0.69999995351E+02 0.  0.
         12    1    1    2    0    0  0.13651072297E+02 -0.10245541851E+01  0.12778020858E+02  0.18726433274E+02  0.00000000000E+00 0. -1.
         11    1    3    3    0    0 -0.87652945235E+01 -0.31366965543E+02 -0.82139065565E+01  0.33588467911E+02  0.51100000000E-03 0. -1.
        -11    1    3    3    0    0 -0.30136038622E+01  0.29388744569E+01  0.61703488315E+01  0.74694040107E+01  0.51100000000E-03 0.  1.
        -12    1    3    3    0    0 -0.18721739109E+01  0.29452645271E+02 -0.10734463133E+02  0.31403694804E+02  0.00000000000E+00 0.  1.
</event>
<event>
 7    1  0.1692604E-013  0.7246156E+02  0.7816164E-02  0.1226708E+00
        -11   -1    0    0    0    0  0.00000000000E+00  0.00000000000E+00  0.45593999997E+02  0.45594000000E+02  0.51100000000E-03 0.  1.
         11   -1    0    0    0    0 -0.00000000000E+00 -0.00000000000E+00 -0.45593999997E+02  0.45594000000E+02  0.51100000000E-03 0. -1.
    9900012    2    1    2    0    0 -0.33595932147E+01  0.18343994411E+02 -0.17001274873E+01  0.72461563313E+02  0.69999990905E+02 0.  0.
         12    1    1    2    0    0  0.33595932147E+01 -0.18343994411E+02  0.17001274873E+01  0.18726436687E+02  0.00000000000E+00 0. -1.
         11    1    3    3    0    0  0.22315071527E+01  0.50286152637E+01  0.86760267894E+01  0.10273268066E+02  0.51100000000E-03 0. -1.
        -11    1    3    3    0    0  0.80579879196E+01 -0.67008642234E+00  0.22518781722E+02  0.23926464754E+02  0.51100000000E-03 0.  1.
         12    1    3    3    0    0 -0.13649088287E+02  0.13985465570E+02 -0.32894935999E+02  0.38261830493E+02  0.00000000000E+00 0. -1.
</event>
<event>
 7    1  0.1692604E-013  0.7246148E+02  0.7816164E-02  0.1226708E+00
        -11   -1    0    0    0    0  0.00000000000E+00  0.00000000000E+00  0.45593999997E+02  0.45594000000E+02  0.51100000000E-03 0. -1.
         11   -1    0    0    0    0 -0.00000000000E+00 -0.00000000000E+00 -0.45593999997E+02  0.45594000000E+02  0.51100000000E-03 0.  1.
    9900012    2    1    2    0    0 -0.25582795088E+01 -0.12491779517E+02 -0.13714700843E+02  0.72461484874E+02  0.69999888724E+02 0.  0.
         12    1    1    2    0    0  0.25582795088E+01  0.12491779517E+02  0.13714700843E+02  0.18726515126E+02  0.00000000000E+00 0. -1.
         11    1    3    3    0    0  0.87606804817E+01  0.17988631684E+02 -0.55130828274E+01  0.20754143560E+02  0.51100000000E-03 0. -1.
        -11    1    3    3    0    0 -0.14584086279E+02 -0.10434483988E+02  0.13151196472E+02  0.22237985466E+02  0.51100000000E-03 0.  1.
        -12    1    3    3    0    0  0.32651262889E+01 -0.20045927214E+02 -0.21352814487E+02  0.29469355848E+02  0.00000000000E+00 0.  1.
</event>
<event>
 7    1  0.1692604E-013  0.7246136E+02  0.7816164E-02  0.1226709E+00
        -11   -1    0    0    0    0  0.00000000000E+00  0.00000000000E+00  0.45593999997E+02  0.45594000000E+02  0.51100000000E-03 0.  1.
         11   -1    0    0    0    0 -0.00000000000E+00 -0.00000000000E+00 -0.45593999997E+02  0.45594000000E+02  0.51100000000E-03 0. -1.
    9900012    2    1    2    0    0  0.10433655706E+02  0.13302870085E+02  0.80535379318E+01  0.72461361297E+02  0.69999727741E+02 0.  0.
         12    1    1    2    0    0 -0.10433655706E+02 -0.13302870085E+02 -0.80535379318E+01  0.18726638703E+02  0.00000000000E+00 0. -1.
         11    1    3    3    0    0 -0.25908978344E+01  0.46829508722E+01  0.19062499617E+02  0.19799537176E+02  0.51100000000E-03 0. -1.
        -11    1    3    3    0    0 -0.17494093423E+02  0.10553389369E+02 -0.79739909795E+01  0.21931754701E+02  0.51100000000E-03 0.  1.
        -12    1    3    3    0    0  0.30518646964E+02 -0.19334701562E+01 -0.30349707059E+01  0.30730069420E+02  0.00000000000E+00 0.  1.
</event>
<event>
 7    1  0.1692604E-013  0.7246155E+02  0.7816164E-02  0.1226708E+00
        -11   -1    0    0    0    0  0.00000000000E+00  0.00000000000E+00  0.45593999997E+02  0.45594000000E+02  0.51100000000E-03 0. -1.
         11   -1    0    0    0    0 -0.00000000000E+00 -0.00000000000E+00 -0.45593999997E+02  0.45594000000E+02  0.51100000000E-03 0.  1.
    9900012    2    1    2    0    0  0.23305209233E+00 -0.14212195360E+02 -0.12191757420E+02  0.72461554550E+02  0.69999979490E+02 0.  0.
         12    1    1    2    0    0 -0.23305209233E+00  0.14212195360E+02  0.12191757420E+02  0.18726445450E+02  0.00000000000E+00 0. -1.
         11    1    3    3    0    0  0.36372364555E+01 -0.10043248275E+02  0.17753738802E+02  0.20719352468E+02  0.51100000000E-03 0. -1.
        -11    1    3    3    0    0  0.21696752510E+01  0.74691930908E+01  0.83021714224E+01  0.11376396033E+02  0.51100000000E-03 0.  1.
        -12    1    3    3    0    0 -0.55738596142E+01 -0.11638140175E+02 -0.38247667644E+02  0.40365806049E+02  0.00000000000E+00 0.  1.
</event>
<event>
 7    1  0.1692604E-013  0.7246158E+02  0.7816164E-02  0.1226708E+00
        -11   -1    0    0    0    0  0.00000000000E+00  0.00000000000E+00  0.45593999997E+02  0.45594000000E+02  0.51100000000E-03 0.  1.
         11   -1    0    0    0    0 -0.00000000000E+00 -0.00000000000E+00 -0.45593999997E+02  0.45594000000E+02  0.51100000000E-03 0. -1.
    9900012    2    1    2    0    0  0.17515683847E+01 -0.12687774275E+02  0.13661300126E+02  0.72461582056E+02  0.70000015322E+02 0.  0.
         12    1    1    2    0    0 -0.17515683847E+01  0.12687774275E+02 -0.13661300126E+02  0.18726417944E+02  0.00000000000E+00 0. -1.
         11    1    3    3    0    0 -0.45373921688E+01  0.41616814075E+01 -0.46027825081E+01  0.76872054031E+01  0.51100000000E-03 0. -1.
        -11    1    3    3    0    0 -0.24363212870E+02  0.27686035209E+01  0.13724501004E+02  0.28099701687E+02  0.51100000000E-03 0.  1.
        -12    1    3    3    0    0  0.30652173424E+02 -0.19618059204E+02  0.45395816305E+01  0.36674674966E+02  0.00000000000E+00 0.  1.
</event>
<event>
 7    1  0.1692604E-013  0.7246156E+02  0.7816164E-02  0.1226708E+00
        -11   -1    0    0    0    0  0.00000000000E+00  0.00000000000E+00  0.45593999997E+02  0.45594000000E+02  0.51100000000E-03 0.  1.
         11   -1    0    0    0    0 -0.00000000000E+00 -0.00000000000E+00 -0.45593999997E+02  0.45594000000E+02  0.51100000000E-03 0. -1.
    9900012    2    1    2    0    0  0.13756740118E+02 -0.86294071851E+01  0.93255056807E+01  0.72461558180E+02  0.69999984219E+02 0.  0.
         12    1    1    2    0    0 -0.13756740118E+02  0.86294071851E+01 -0.93255056807E+01  0.18726441820E+02  0.00000000000E+00 0. -1.
         11    1    3    3    0    0  0.80840318815E+01  0.10484613844E+02 -0.14152153075E+02  0.19379425581E+02  0.51100000000E-03 0. -1.
        -11    1    3    3    0    0 -0.66927426262E-01  0.10434787939E+02 -0.50657224941E+01  0.11599604444E+02  0.51100000000E-03 0.  1.
        -12    1    3    3    0    0  0.57396356629E+01 -0.29548808968E+02  0.28543381250E+02  0.41482528155E+02  0.00000000000E+00 0.  1.
</event>
<event>
 7    1  0.1705389E-013  0.7246165E+02  0.7816164E-02  0.1226708E+00
        -11   -1    0    0    0    0  0.00000000000E+00  0.00000000000E+00  0.45593999997E+02  0.45594000000E+02  0.51100000000E-03 0. -1.
         11   -1    0    0    0    0 -0.00000000000E+00 -0.00000000000E+00 -0.45593999997E+02  0.45594000000E+02  0.51100000000E-03 0.  1.
    9900012    2    1    2    0    0 -0.76980050332E+01 -0.74492797685E+01 -0.15359859822E+02  0.72461645728E+02  0.70000098267E+02 0.  0.
         12    1    1    2    0    0  0.76980050332E+01  0.74492797685E+01  0.15359859822E+02  0.18726354272E+02  0.00000000000E+00 0. -1.
         11    1    3    3    0    0 -0.15132245693E+01  0.68504104173E+01  0.17433748679E+02  0.18792380497E+02  0.51100000000E-03 0. -1.
        -11    1    3    3    0    0 -0.10960121593E+02  0.88710808655E+01 -0.11326382253E+01  0.14145784201E+02  0.51100000000E-03 0.  1.
        -12    1    3    3    0    0  0.47753411287E+01 -0.23170771051E+02 -0.31660970275E+02  0.39523481031E+02  0.00000000000E+00 0.  1.
</event>
<event>
 7    1  0.1692604E-013  0.7246157E+02  0.7816164E-02  0.1226708E+00
        -11   -1    0    0    0    0  0.00000000000E+00  0.00000000000E+00  0.45593999997E+02  0.45594000000E+02  0.51100000000E-03 0.  1.
         11   -1    0    0    0    0 -0.00000000000E+00 -0.00000000000E+00 -0.45593999997E+02  0.45594000000E+02  0.51100000000E-03 0. -1.
    9900012    2    1    2    0    0 -0.60307820608E+01 -0.67627845058E+01  0.16388216249E+02  0.72461568990E+02  0.69999998301E+02 0.  0.
         12    1    1    2    0    0  0.60307820608E+01  0.67627845058E+01 -0.16388216249E+02  0.18726431010E+02  0.00000000000E+00 0. -1.
         11    1    3    3    0    0 -0.13408128846E+02  0.21882171633E+02 -0.59432160981E+00  0.25670227365E+02  0.51100000000E-03 0. -1.
        -11    1    3    3    0    0 -0.25492165217E+01  0.38582791757E+01 -0.46076555464E+01  0.65280405151E+01  0.51100000000E-03 0.  1.
        -12    1    3    3    0    0  0.99265633069E+01 -0.32503235314E+02  0.21590193406E+02  0.40263301110E+02  0.00000000000E+00 0.  1.
</event>
<event>
 7    1  0.1692604E-013  0.7246156E+02  0.7816164E-02  0.1226708E+00
        -11   -1    0    0    0    0  0.00000000000E+00  0.00000000000E+00  0.45593999997E+02  0.45594000000E+02  0.51100000000E-03 0.  1.
         11   -1    0    0    0    0 -0.00000000000E+00 -0.00000000000E+00 -0.45593999997E+02  0.45594000000E+02  0.51100000000E-03 0. -1.
    9900012    2    1    2    0    0 -0.82631631181E+01  0.16198484542E+02  0.44731013851E+01  0.72461564082E+02  0.69999991907E+02 0.  0.
         12    1    1    2    0    0  0.82631631181E+01 -0.16198484542E+02 -0.44731013851E+01  0.18726435918E+02  0.00000000000E+00 0. -1.
         11    1    3    3    0    0 -0.80535647343E+01  0.14299372966E+02  0.46689161161E+01  0.17062554033E+02  0.51100000000E-03 0. -1.
        -11    1    3    3    0    0  0.79043975927E+01  0.11955600087E+02  0.24008702518E+02  0.27961288804E+02  0.51100000000E-03 0.  1.
         12    1    3    3    0    0 -0.81139959765E+01 -0.10056488511E+02 -0.24204517249E+02  0.27437721245E+02  0.00000000000E+00 0. -1.
</event>
<event>
 7    1  0.1692604E-013  0.7246158E+02  0.7816164E-02  0.1226708E+00
        -11   -1    0    0    0    0  0.00000000000E+00  0.00000000000E+00  0.45593999997E+02  0.45594000000E+02  0.51100000000E-03 0.  1.
         11   -1    0    0    0    0 -0.00000000000E+00 -0.00000000000E+00 -0.45593999997E+02  0.45594000000E+02  0.51100000000E-03 0. -1.
    9900012    2    1    2    0    0 -0.48819553880E+01  0.94525323130E-01  0.18078614067E+02  0.72461582563E+02  0.70000015983E+02 0.  0.
         12    1    1    2    0    0  0.48819553880E+01 -0.94525323130E-01 -0.18078614067E+02  0.18726417437E+02  0.00000000000E+00 0. -1.
         11    1    3    3    0    0  0.28148031742E+01  0.52457931101E+01 -0.22039883949E+02  0.22829760117E+02  0.51100000000E-03 0. -1.
        -11    1    3    3    0    0  0.56761726836E+01 -0.21857483821E+01 -0.11139581599E+01  0.61836344788E+01  0.51100000000E-03 0.  1.
        -12    1    3    3    0    0 -0.13372931246E+02 -0.29655194048E+01  0.41232456175E+02  0.43448187968E+02  0.00000000000E+00 0.  1.
</event>
<event>
 7    1  0.1692604E-013  0.7246155E+02  0.7816164E-02  0.1226708E+00
        -11   -1    0    0    0    0  0.00000000000E+00  0.00000000000E+00  0.45593999997E+02  0.45594000000E+02  0.51100000000E-03 0.  1.
         11   -1    0    0    0    0 -0.00000000000E+00 -0.00000000000E+00 -0.45593999997E+02  0.45594000000E+02  0.51100000000E-03 0. -1.
    9900012    2    1    2    0    0  0.13652006408E+02  0.12729375487E+02 -0.15052344699E+01  0.72461547852E+02  0.69999970764E+02 0.  0.
         12    1    1    2    0    0 -0.13652006408E+02 -0.12729375487E+02  0.15052344699E+01  0.18726452148E+02  0.00000000000E+00 0. -1.
         11    1    3    3    0    0  0.15073451913E+02  0.13461164952E+01 -0.46775056012E+01  0.15839824529E+02  0.51100000000E-03 0. -1.
        -11    1    3    3    0    0  0.25782662652E+02  0.44223947740E+01  0.95111393781E+01  0.27834601515E+02  0.51100000000E-03 0.  1.
         12    1    3    3    0    0 -0.27204108157E+02  0.69608642176E+01 -0.63388682468E+01  0.28787121807E+02  0.00000000000E+00 0. -1.
</event>
<event>
 7    1  0.1692604E-013  0.7246157E+02  0.7816164E-02  0.1226708E+00
        -11   -1    0    0    0    0  0.00000000000E+00  0.00000000000E+00  0.45593999997E+02  0.45594000000E+02  0.51100000000E-03 0.  1.
         11   -1    0    0    0    0 -0.00000000000E+00 -0.00000000000E+00 -0.45593999997E+02  0.45594000000E+02  0.51100000000E-03 0. -1.
    9900012    2    1    2    0    0 -0.40730427610E+00 -0.33187603196E+00  0.18719058326E+02  0.72461569932E+02  0.69999999528E+02 0.  0.
         12    1    1    2    0    0  0.40730427610E+00  0.33187603196E+00 -0.18719058326E+02  0.18726430068E+02  0.00000000000E+00 0. -1.
         11    1    3    3    0    0  0.35589689848E+01 -0.29101947353E+01 -0.64591845004E+01  0.79282128064E+01  0.51100000000E-03 0. -1.
        -11    1    3    3    0    0  0.15591553106E+02 -0.21425007945E+02  0.19867924955E+02  0.33118906020E+02  0.51100000000E-03 0.  1.
        -12    1    3    3    0    0 -0.19557826367E+02  0.24003326648E+02  0.53103178711E+01  0.31414451106E+02  0.00000000000E+00 0.  1.
</event>
<event>
 7    1  0.1692604E-013  0.7246158E+02  0.7816164E-02  0.1226708E+00
        -11   -1    0    0    0    0  0.00000000000E+00  0.00000000000E+00  0.45593999997E+02  0.45594000000E+02  0.51100000000E-03 0.  1.
         11   -1    0    0    0    0 -0.00000000000E+00 -0.00000000000E+00 -0.45593999997E+02  0.45594000000E+02  0.51100000000E-03 0. -1.
    9900012    2    1    2    0    0 -0.22842303070E+00 -0.18278477617E+02 -0.40649627298E+01  0.72461579011E+02  0.70000011355E+02 0.  0.
         12    1    1    2    0    0  0.22842303070E+00  0.18278477617E+02  0.40649627298E+01  0.18726420989E+02  0.00000000000E+00 0. -1.
         11    1    3    3    0    0 -0.97953115283E+01 -0.16617938602E+02 -0.64164491325E+01  0.20329162084E+02  0.51100000000E-03 0. -1.
        -11    1    3    3    0    0  0.33224462014E+01 -0.24242519939E+02 -0.90333935419E+01  0.26083339911E+02  0.51100000000E-03 0.  1.
        -12    1    3    3    0    0  0.62444422963E+01  0.22581980924E+02  0.11384879945E+02  0.26049077016E+02  0.00000000000E+00 0.  1.
</event>
<event>
 7    1  0.1692604E-013  0.7246158E+02  0.7816164E-02  0.1226708E+00
        -11   -1    0    0    0    0  0.00000000000E+00  0.00000000000E+00  0.45593999997E+02  0.45594000000E+02  0.51100000000E-03 0.  1.
         11   -1    0    0    0    0 -0.00000000000E+00 -0.00000000000E+00 -0.45593999997E+02  0.45594000000E+02  0.51100000000E-03 0. -1.
    9900012    2    1    2    0    0 -0.17486621602E+02  0.64163738243E+01  0.19305053563E+01  0.72461584458E+02  0.70000018451E+02 0.  0.
         12    1    1    2    0    0  0.17486621602E+02 -0.64163738243E+01 -0.19305053563E+01  0.18726415542E+02  0.00000000000E+00 0. -1.
         11    1    3    3    0    0 -0.23553579088E+02 -0.10877317070E+02  0.15043601923E+02  0.29989949543E+02  0.51100000000E-03 0. -1.
        -11    1    3    3    0    0 -0.73437597139E+01  0.82371607959E+01 -0.21557950530E+02  0.24218316540E+02  0.51100000000E-03 0.  1.
        -12    1    3    3    0    0  0.13410717200E+02  0.90565300985E+01  0.84448539629E+01  0.18253318375E+02  0.00000000000E+00 0.  1.
</event>
<event>
 7    1  0.1692604E-013  0.7246154E+02  0.7816164E-02  0.1226708E+00
        -11   -1    0    0    0    0  0.00000000000E+00  0.00000000000E+00  0.45593999997E+02  0.45594000000E+02  0.51100000000E-03 0. -1.
         11   -1    0    0    0    0 -0.00000000000E+00 -0.00000000000E+00 -0.45593999997E+02  0.45594000000E+02  0.51100000000E-03 0.  1.
    9900012    2    1    2    0    0 -0.18107069382E+02  0.23330780459E+01 -0.41678706968E+01  0.72461538484E+02  0.69999958561E+02 0.  0.
         12    1    1    2    0    0  0.18107069382E+02 -0.23330780459E+01  0.41678706968E+01  0.18726461516E+02  0.00000000000E+00 0. -1.
         11    1    3    3    0    0 -0.19077658748E+02 -0.98936136447E+01  0.57638521939E+01  0.22250003295E+02  0.51100000000E-03 0. -1.
        -11    1    3    3    0    0 -0.23096051067E+02  0.95906755729E+01 -0.51855569491E+01  0.25540137704E+02  0.51100000000E-03 0.  1.
         12    1    3    3    0    0  0.24066640433E+02  0.26360161177E+01 -0.47461659416E+01  0.24671397484E+02  0.00000000000E+00 0. -1.
</event>
<event>
 7    1  0.1692604E-013  0.7246189E+02  0.7816164E-02  0.1226707E+00
        -11   -1    0    0    0    0  0.00000000000E+00  0.00000000000E+00  0.45593999997E+02  0.45594000000E+02  0.51100000000E-03 0.  1.
         11   -1    0    0    0    0 -0.00000000000E+00 -0.00000000000E+00 -0.45593999997E+02  0.45594000000E+02  0.51100000000E-03 0. -1.
    9900012    2    1    2    0    0 -0.18259738380E+02  0.29291371094E+01 -0.29443550864E+01  0.72461892108E+02  0.70000419221E+02 0.  0.
         12    1    1    2    0    0  0.18259738380E+02 -0.29291371094E+01  0.29443550864E+01  0.18726107892E+02  0.00000000000E+00 0. -1.
         11    1    3    3    0    0 -0.23431438042E+02 -0.26187923782E+02 -0.35013760638E+01  0.35314292791E+02  0.51100000000E-03 0. -1.
        -11    1    3    3    0    0  0.23678012048E+00  0.15336530991E+02  0.11248819361E+02  0.19021072129E+02  0.51100000000E-03 0.  1.
        -12    1    3    3    0    0  0.49349195412E+01  0.13780529901E+02 -0.10691798383E+02  0.18126527188E+02  0.00000000000E+00 0.  1.
</event>
<event>
 7    1  0.1692604E-013  0.7246158E+02  0.7816164E-02  0.1226708E+00
        -11   -1    0    0    0    0  0.00000000000E+00  0.00000000000E+00  0.45593999997E+02  0.45594000000E+02  0.51100000000E-03 0.  1.
         11   -1    0    0    0    0 -0.00000000000E+00 -0.00000000000E+00 -0.45593999997E+02  0.45594000000E+02  0.51100000000E-03 0. -1.
    9900012    2    1    2    0    0 -0.12421546755E+01 -0.59284493882E+01  0.17719746997E+02  0.72461577650E+02  0.70000009582E+02 0.  0.
         12    1    1    2    0    0  0.12421546755E+01  0.59284493882E+01 -0.17719746997E+02  0.18726422350E+02  0.00000000000E+00 0. -1.
         11    1    3    3    0    0 -0.45161858903E+01  0.31173754079E+01  0.13210836058E+02  0.14305249178E+02  0.51100000000E-03 0. -1.
        -11    1    3    3    0    0  0.12948055785E+01  0.57044295383E+01  0.28953077037E+02  0.29538072179E+02  0.51100000000E-03 0.  1.
         12    1    3    3    0    0  0.19792256363E+01 -0.14750254334E+02 -0.24444166098E+02  0.28618256294E+02  0.00000000000E+00 0. -1.
</event>
<event>
 7    1  0.1692604E-013  0.7246157E+02  0.7816164E-02  0.1226708E+00
        -11   -1    0    0    0    0  0.00000000000E+00  0.00000000000E+00  0.45593999997E+02  0.45594000000E+02  0.51100000000E-03 0. -1.
         11   -1    0    0    0    0 -0.00000000000E+00 -0.00000000000E+00 -0.45593999997E+02  0.45594000000E+02  0.51100000000E-03 0.  1.
    9900012    2    1    2    0    0 -0.15005185286E+02 -0.77677663569E+01 -0.80737585975E+01  0.72461565274E+02  0.69999993460E+02 0.  0.
         12    1    1    2    0    0  0.15005185286E+02  0.77677663569E+01  0.80737585975E+01  0.18726434726E+02  0.00000000000E+00 0. -1.
         11    1    3    3    0    0  0.92100392398E+01  0.20116364714E+01  0.29889639480E+01  0.98896617655E+01  0.51100000000E-03 0. -1.
        -11    1    3    3    0    0  0.25350731705E+01 -0.94790168051E+01 -0.28832218239E+02  0.30456118670E+02  0.51100000000E-03 0.  1.
        -12    1    3    3    0    0 -0.26750297696E+02 -0.30038602330E+00  0.17769495694E+02  0.32115784839E+02  0.00000000000E+00 0.  1.
</event>
<event>
 7    1  0.1692604E-013  0.7246155E+02  0.7816164E-02  0.1226708E+00
        -11   -1    0    0    0    0  0.00000000000E+00  0.00000000000E+00  0.45593999997E+02  0.45594000000E+02  0.51100000000E-03 0.  1.
         11   -1    0    0    0    0 -0.00000000000E+00 -0.00000000000E+00 -0.45593999997E+02  0.45594000000E+02  0.51100000000E-03 0. -1.
    9900012    2    1    2    0    0 -0.40110188929E+00 -0.62636691940E+01  0.17643281032E+02  0.72461553459E+02  0.69999978069E+02 0.  0.
         12    1    1    2    0    0  0.40110188929E+00  0.62636691940E+01 -0.17643281032E+02  0.18726446541E+02  0.00000000000E+00 0. -1.
         11    1    3    3    0    0 -0.19763118575E+00  0.94288580748E+00 -0.22641594769E+01  0.24605914186E+01  0.51100000000E-03 0. -1.
        -11    1    3    3    0    0 -0.62999413093E+01  0.28157339624E+02 -0.22386229713E+00  0.28854378347E+02  0.51100000000E-03 0.  1.
         12    1    3    3    0    0  0.60964706058E+01 -0.35363894626E+02  0.20131302805E+02  0.41146583693E+02  0.00000000000E+00 0. -1.
</event>
<event>
 7    1  0.1692604E-013  0.7246151E+02  0.7816164E-02  0.1226708E+00
        -11   -1    0    0    0    0  0.00000000000E+00  0.00000000000E+00  0.45593999997E+02  0.45594000000E+02  0.51100000000E-03 0.  1.
         11   -1    0    0    0    0 -0.00000000000E+00 -0.00000000000E+00 -0.45593999997E+02  0.45594000000E+02  0.51100000000E-03 0. -1.
    9900012    2    1    2    0    0  0.18290169188E+02  0.10301649204E+01  0.38845774322E+01  0.72461508857E+02  0.69999919967E+02 0.  0.
         12    1    1    2    0    0 -0.18290169188E+02 -0.10301649204E+01 -0.38845774322E+01  0.18726491143E+02  0.00000000000E+00 0. -1.
         11    1    3    3    0    0 -0.69515832662E+01 -0.21484900803E+02 -0.49630262186E+01  0.23120490954E+02  0.51100000000E-03 0. -1.
        -11    1    3    3    0    0  0.63703173808E+01 -0.93440276395E+01  0.40036947791E+01  0.11996723228E+02  0.51100000000E-03 0.  1.
        -12    1    3    3    0    0  0.18871435074E+02  0.31859093363E+02  0.48439088716E+01  0.37344294676E+02  0.00000000000E+00 0.  1.
</event>
<event>
 7    1  0.1692604E-013  0.7246135E+02  0.7816164E-02  0.1226709E+00
        -11   -1    0    0    0    0  0.00000000000E+00  0.00000000000E+00  0.45593999997E+02  0.45594000000E+02  0.51100000000E-03 0. -1.
         11   -1    0    0    0    0 -0.00000000000E+00 -0.00000000000E+00 -0.45593999997E+02  0.45594000000E+02  0.51100000000E-03 0.  1.
    9900012    2    1    2    0    0 -0.22970173474E+01 -0.15573003437E+02 -0.10143603933E+02  0.72461349860E+02  0.69999712842E+02 0.  0.
         12    1    1    2    0    0  0.22970173474E+01  0.15573003437E+02  0.10143603933E+02  0.18726650140E+02  0.00000000000E+00 0. -1.
         11    1    3    3    0    0 -0.88668494324E+01 -0.48199131822E+01  0.20046096584E+02  0.22443229947E+02  0.51100000000E-03 0. -1.
        -11    1    3    3    0    0 -0.97434579921E+01  0.29017500898E+01  0.29963009053E+01  0.10598723820E+02  0.51100000000E-03 0.  1.
        -12    1    3    3    0    0  0.16313290077E+02 -0.13654840344E+02 -0.33186001422E+02  0.39419396093E+02  0.00000000000E+00 0.  1.
</event>
<event>
 7    1  0.1692604E-013  0.7246156E+02  0.7816164E-02  0.1226708E+00
        -11   -1    0    0    0    0  0.00000000000E+00  0.00000000000E+00  0.45593999997E+02  0.45594000000E+02  0.51100000000E-03 0.  1.
         11   -1    0    0    0    0 -0.00000000000E+00 -0.00000000000E+00 -0.45593999997E+02  0.45594000000E+02  0.51100000000E-03 0. -1.
    9900012    2    1    2    0    0  0.87022397931E+01 -0.13547030705E+02  0.95618228195E+01  0.72461562165E+02  0.69999989411E+02 0.  0.
         12    1    1    2    0    0 -0.87022397931E+01  0.13547030705E+02 -0.95618228195E+01  0.18726437835E+02  0.00000000000E+00 0. -1.
         11    1    3    3    0    0 -0.49306091279E+01 -0.96145204912E+01 -0.14478543217E+01  0.10901660105E+02  0.51100000000E-03 0. -1.
        -11    1    3    3    0    0  0.32923162305E+02 -0.10831691779E+02 -0.56973205200E+01  0.35124345180E+02  0.51100000000E-03 0.  1.
         12    1    3    3    0    0 -0.19290313384E+02  0.68991815654E+01  0.16706997661E+02  0.26435556880E+02  0.00000000000E+00 0. -1.
</event>
<event>
 7    1  0.1692604E-013  0.7246159E+02  0.7816164E-02  0.1226708E+00
        -11   -1    0    0    0    0  0.00000000000E+00  0.00000000000E+00  0.45593999997E+02  0.45594000000E+02  0.51100000000E-03 0.  1.
         11   -1    0    0    0    0 -0.00000000000E+00 -0.00000000000E+00 -0.45593999997E+02  0.45594000000E+02  0.51100000000E-03 0. -1.
    9900012    2    1    2    0    0  0.12039403610E+02 -0.65868735689E+01  0.12741444339E+02  0.72461586928E+02  0.70000021668E+02 0.  0.
         12    1    1    2    0    0 -0.12039403610E+02  0.65868735689E+01 -0.12741444339E+02  0.18726413072E+02  0.00000000000E+00 0. -1.
         11    1    3    3    0    0  0.11295367497E+01  0.37524651381E+01 -0.75567044127E+01  0.85123809668E+01  0.51100000000E-03 0. -1.
        -11    1    3    3    0    0 -0.11825628237E+02  0.10096998065E+02 -0.11877126651E+02  0.19566833951E+02  0.51100000000E-03 0.  1.
         12    1    3    3    0    0  0.22735495097E+02 -0.20436336772E+02  0.32175275403E+02  0.44382372010E+02  0.00000000000E+00 0. -1.
</event>
<event>
 7    1  0.1692604E-013  0.7246158E+02  0.7816164E-02  0.1226708E+00
        -11   -1    0    0    0    0  0.00000000000E+00  0.00000000000E+00  0.45593999997E+02  0.45594000000E+02  0.51100000000E-03 0. -1.
         11   -1    0    0    0    0 -0.00000000000E+00 -0.00000000000E+00 -0.45593999997E+02  0.45594000000E+02  0.51100000000E-03 0.  1.
    9900012    2    1    2    0    0 -0.67714929745E+01  0.32092975486E+01 -0.17161768050E+02  0.72461575075E+02  0.70000006228E+02 0.  0.
         12    1    1    2    0    0  0.67714929745E+01 -0.32092975486E+01  0.17161768050E+02  0.18726424925E+02  0.00000000000E+00 0. -1.
         11    1    3    3    0    0  0.22835447527E+01  0.22337709061E+02  0.39127936136E+01  0.22792493871E+02  0.51100000000E-03 0. -1.
        -11    1    3    3    0    0  0.12542455698E+02 -0.61780190273E+01  0.35740653489E+01  0.14431044917E+02  0.51100000000E-03 0.  1.
        -12    1    3    3    0    0 -0.21597493425E+02 -0.12950392485E+02 -0.24648627012E+02  0.35238036287E+02  0.00000000000E+00 0.  1.
</event>
<event>
 7    1  0.1692604E-013  0.7246156E+02  0.7816164E-02  0.1226708E+00
        -11   -1    0    0    0    0  0.00000000000E+00  0.00000000000E+00  0.45593999997E+02  0.45594000000E+02  0.51100000000E-03 0. -1.
         11   -1    0    0    0    0 -0.00000000000E+00 -0.00000000000E+00 -0.45593999997E+02  0.45594000000E+02  0.51100000000E-03 0.  1.
    9900012    2    1    2    0    0 -0.54128081950E+00 -0.18693197130E+02 -0.97511335027E+00  0.72461562808E+02  0.69999990247E+02 0.  0.
         12    1    1    2    0    0  0.54128081950E+00  0.18693197130E+02  0.97511335027E+00  0.18726437192E+02  0.00000000000E+00 0. -1.
         11    1    3    3    0    0 -0.57177219391E+00 -0.80616817804E+01  0.20105252262E+02  0.21668844116E+02  0.51100000000E-03 0. -1.
        -11    1    3    3    0    0 -0.81500701477E+01 -0.25721202626E+02 -0.53425339440E+01  0.27505391783E+02  0.51100000000E-03 0.  1.
        -12    1    3    3    0    0  0.81805615221E+01  0.15089687276E+02 -0.15737831668E+02  0.23287326908E+02  0.00000000000E+00 0.  1.
</event>
<event>
 7    1  0.1692604E-013  0.7246173E+02  0.7816164E-02  0.1226708E+00
        -11   -1    0    0    0    0  0.00000000000E+00  0.00000000000E+00  0.45593999997E+02  0.45594000000E+02  0.51100000000E-03 0. -1.
         11   -1    0    0    0    0 -0.00000000000E+00 -0.00000000000E+00 -0.45593999997E+02  0.45594000000E+02  0.51100000000E-03 0.  1.
    9900012    2    1    2    0    0 -0.21563209991E+01 -0.89523413800E+01 -0.16305800103E+02  0.72461728256E+02  0.70000205774E+02 0.  0.
         12    1    1    2    0    0  0.21563209991E+01  0.89523413800E+01  0.16305800103E+02  0.18726271744E+02  0.00000000000E+00 0. -1.
         11    1    3    3    0    0  0.10446397470E+01  0.35586021938E+01 -0.95566528964E+01  0.10251074901E+02  0.51100000000E-03 0. -1.
        -11    1    3    3    0    0 -0.66207457468E+01  0.43605606834E+01 -0.31265046796E+02  0.32254486744E+02  0.51100000000E-03 0.  1.
         12    1    3    3    0    0  0.34197850006E+01 -0.16871504257E+02  0.24515899590E+02  0.29956166611E+02  0.00000000000E+00 0. -1.
</event>
<event>
 7    1  0.1692604E-013  0.7246140E+02  0.7816164E-02  0.1226708E+00
        -11   -1    0    0    0    0  0.00000000000E+00  0.00000000000E+00  0.45593999997E+02  0.45594000000E+02  0.51100000000E-03 0.  1.
         11   -1    0    0    0    0 -0.00000000000E+00 -0.00000000000E+00 -0.45593999997E+02  0.45594000000E+02  0.51100000000E-03 0. -1.
    9900012    2    1    2    0    0  0.16147890885E+02  0.11689408023E+01  0.94108938159E+01  0.72461395261E+02  0.69999771986E+02 0.  0.
         12    1    1    2    0    0 -0.16147890885E+02 -0.11689408023E+01 -0.94108938159E+01  0.18726604739E+02  0.00000000000E+00 0. -1.
         11    1    3    3    0    0  0.32462775006E+02  0.10213514655E+02 -0.13944250431E+02  0.36777571467E+02  0.51100000000E-03 0. -1.
        -11    1    3    3    0    0 -0.16950107769E+02 -0.47545456250E+01  0.73078864611E+01  0.19060877794E+02  0.51100000000E-03 0.  1.
        -12    1    3    3    0    0  0.63522364833E+00 -0.42900282276E+01  0.16047257786E+02  0.16622946000E+02  0.00000000000E+00 0.  1.
</event>
<event>
 7    1  0.1692604E-013  0.7246151E+02  0.7816164E-02  0.1226708E+00
        -11   -1    0    0    0    0  0.00000000000E+00  0.00000000000E+00  0.45593999997E+02  0.45594000000E+02  0.51100000000E-03 0. -1.
         11   -1    0    0    0    0 -0.00000000000E+00 -0.00000000000E+00 -0.45593999997E+02  0.45594000000E+02  0.51100000000E-03 0.  1.
    9900012    2    1    2    0    0 -0.12761900853E+02  0.13596603816E+02  0.17168960476E+01  0.72461508584E+02  0.69999919611E+02 0.  0.
         12    1    1    2    0    0  0.12761900853E+02 -0.13596603816E+02 -0.17168960476E+01  0.18726491416E+02  0.00000000000E+00 0. -1.
         11    1    3    3    0    0 -0.22375756039E+01  0.19007952228E+02  0.45899124024E+01  0.19681877162E+02  0.51100000000E-03 0. -1.
        -11    1    3    3    0    0 -0.31556400413E+01  0.83610760119E+01  0.21809787002E+02  0.23569736220E+02  0.51100000000E-03 0.  1.
        -12    1    3    3    0    0 -0.73686852076E+01 -0.13772424424E+02 -0.24682803357E+02  0.29209895203E+02  0.00000000000E+00 0.  1.
</event>
<event>
 7    1  0.1692604E-013  0.7246159E+02  0.7816164E-02  0.1226708E+00
        -11   -1    0    0    0    0  0.00000000000E+00  0.00000000000E+00  0.45593999997E+02  0.45594000000E+02  0.51100000000E-03 0. -1.
         11   -1    0    0    0    0 -0.00000000000E+00 -0.00000000000E+00 -0.45593999997E+02  0.45594000000E+02  0.51100000000E-03 0.  1.
    9900012    2    1    2    0    0 -0.76339869498E+01 -0.16313388431E+02 -0.51258122178E+01  0.72461592183E+02  0.70000028513E+02 0.  0.
         12    1    1    2    0    0  0.76339869498E+01  0.16313388431E+02  0.51258122178E+01  0.18726407817E+02  0.00000000000E+00 0. -1.
         11    1    3    3    0    0  0.21113183997E+02  0.62613581893E+00 -0.18420855629E+01  0.21202638138E+02  0.51100000000E-03 0. -1.
        -11    1    3    3    0    0 -0.80389975468E+01 -0.84617876934E+00  0.16522528644E+02  0.18393897171E+02  0.51100000000E-03 0.  1.
        -12    1    3    3    0    0 -0.20708173400E+02 -0.16093345481E+02 -0.19806255299E+02  0.32865056873E+02  0.00000000000E+00 0.  1.
</event>
<event>
 7    1  0.1692604E-013  0.7246158E+02  0.7816164E-02  0.1226708E+00
        -11   -1    0    0    0    0  0.00000000000E+00  0.00000000000E+00  0.45593999997E+02  0.45594000000E+02  0.51100000000E-03 0.  1.
         11   -1    0    0    0    0 -0.00000000000E+00 -0.00000000000E+00 -0.45593999997E+02  0.45594000000E+02  0.51100000000E-03 0. -1.
    9900012    2    1    2    0    0 -0.40081048649E+01  0.14195643192E+02  0.11536795447E+02  0.72461579108E+02  0.70000011481E+02 0.  0.
         12    1    1    2    0    0  0.40081048649E+01 -0.14195643192E+02 -0.11536795447E+02  0.18726420892E+02  0.00000000000E+00 0. -1.
         11    1    3    3    0    0 -0.18521877867E+02  0.20603532619E+02 -0.34571103415E+00  0.27707129632E+02  0.51100000000E-03 0. -1.
        -11    1    3    3    0    0  0.17495792006E+01  0.78368747704E+01  0.21783873269E+02  0.23216691591E+02  0.51100000000E-03 0.  1.
        -12    1    3    3    0    0  0.12764193801E+02 -0.14244764197E+02 -0.99013667886E+01  0.21537757885E+02  0.00000000000E+00 0.  1.
</event>
<event>
 7    1  0.1692604E-013  0.7246162E+02  0.7816164E-02  0.1226708E+00
        -11   -1    0    0    0    0  0.00000000000E+00  0.00000000000E+00  0.45593999997E+02  0.45594000000E+02  0.51100000000E-03 0.  1.
         11   -1    0    0    0    0 -0.00000000000E+00 -0.00000000000E+00 -0.45593999997E+02  0.45594000000E+02  0.51100000000E-03 0. -1.
    9900012    2    1    2    0    0 -0.13516668105E+02  0.10201865125E+02  0.79936929066E+01  0.72461615005E+02  0.70000058244E+02 0.  0.
         12    1    1    2    0    0  0.13516668105E+02 -0.10201865125E+02 -0.79936929066E+01  0.18726384995E+02  0.00000000000E+00 0. -1.
         11    1    3    3    0    0  0.13038481419E+02  0.43710011913E+01  0.13905277001E+02  0.19556696497E+02  0.51100000000E-03 0. -1.
        -11    1    3    3    0    0 -0.23910647230E+01 -0.99772922815E+01  0.14342328020E+02  0.17634225956E+02  0.51100000000E-03 0.  1.
         12    1    3    3    0    0 -0.24164084801E+02  0.15808156215E+02 -0.20253912114E+02  0.35270692552E+02  0.00000000000E+00 0. -1.
</event>
<event>
 7    1  0.1692604E-013  0.7246156E+02  0.7816164E-02  0.1226708E+00
        -11   -1    0    0    0    0  0.00000000000E+00  0.00000000000E+00  0.45593999997E+02  0.45594000000E+02  0.51100000000E-03 0.  1.
         11   -1    0    0    0    0 -0.00000000000E+00 -0.00000000000E+00 -0.45593999997E+02  0.45594000000E+02  0.51100000000E-03 0. -1.
    9900012    2    1    2    0    0  0.14575944331E+02 -0.57174232804E+01 -0.10272898215E+02  0.72461560941E+02  0.69999987815E+02 0.  0.
         12    1    1    2    0    0 -0.14575944331E+02  0.57174232804E+01  0.10272898215E+02  0.18726439059E+02  0.00000000000E+00 0. -1.
         11    1    3    3    0    0  0.23456383593E+02 -0.21667738419E+02 -0.11017539870E+02  0.33779860931E+02  0.51100000000E-03 0. -1.
        -11    1    3    3    0    0  0.73595221985E+01  0.64676000327E+01  0.12967599652E+02  0.16252724638E+02  0.51100000000E-03 0.  1.
        -12    1    3    3    0    0 -0.16239961460E+02  0.94827151059E+01 -0.12222957997E+02  0.22428975371E+02  0.00000000000E+00 0.  1.
</event>
<event>
 7    1  0.1692604E-013  0.7246157E+02  0.7816164E-02  0.1226708E+00
        -11   -1    0    0    0    0  0.00000000000E+00  0.00000000000E+00  0.45593999997E+02  0.45594000000E+02  0.51100000000E-03 0. -1.
         11   -1    0    0    0    0 -0.00000000000E+00 -0.00000000000E+00 -0.45593999997E+02  0.45594000000E+02  0.51100000000E-03 0.  1.
    9900012    2    1    2    0    0 -0.12568851669E+02  0.56140602951E+01 -0.12695889954E+02  0.72461566090E+02  0.69999994523E+02 0.  0.
         12    1    1    2    0    0  0.12568851669E+02 -0.56140602951E+01  0.12695889954E+02  0.18726433910E+02  0.00000000000E+00 0. -1.
         11    1    3    3    0    0  0.15304031464E+01 -0.59440718710E+01 -0.84794935416E+01  0.10467852463E+02  0.51100000000E-03 0. -1.
        -11    1    3    3    0    0 -0.24900860522E+02  0.14106088337E+02 -0.25280013390E+02  0.38185254486E+02  0.51100000000E-03 0.  1.
         12    1    3    3    0    0  0.10801605707E+02 -0.25479561712E+01  0.21063616978E+02  0.23808459141E+02  0.00000000000E+00 0. -1.
</event>
<event>
 7    1  0.1692604E-013  0.7246156E+02  0.7816164E-02  0.1226708E+00
        -11   -1    0    0    0    0  0.00000000000E+00  0.00000000000E+00  0.45593999997E+02  0.45594000000E+02  0.51100000000E-03 0.  1.
         11   -1    0    0    0    0 -0.00000000000E+00 -0.00000000000E+00 -0.45593999997E+02  0.45594000000E+02  0.51100000000E-03 0. -1.
    9900012    2    1    2    0    0  0.77587581064E+01 -0.83693239533E+01  0.14847076312E+02  0.72461559179E+02  0.69999985521E+02 0.  0.
         12    1    1    2    0    0 -0.77587581064E+01  0.83693239533E+01 -0.14847076312E+02  0.18726440821E+02  0.00000000000E+00 0. -1.
         11    1    3    3    0    0 -0.33906677650E+01  0.24142703068E+01 -0.33465439613E+01  0.53408506582E+01  0.51100000000E-03 0. -1.
        -11    1    3    3    0    0 -0.15879213735E+02 -0.56348354063E+01 -0.15997108215E+02  0.23233774346E+02  0.51100000000E-03 0.  1.
         12    1    3    3    0    0  0.27028639606E+02 -0.51487588538E+01  0.34190728488E+02  0.43886934175E+02  0.00000000000E+00 0. -1.
</event>
<event>
 7    1  0.1692604E-013  0.7246168E+02  0.7816164E-02  0.1226708E+00
        -11   -1    0    0    0    0  0.00000000000E+00  0.00000000000E+00  0.45593999997E+02  0.45594000000E+02  0.51100000000E-03 0.  1.
         11   -1    0    0    0    0 -0.00000000000E+00 -0.00000000000E+00 -0.45593999997E+02  0.45594000000E+02  0.51100000000E-03 0. -1.
    9900012    2    1    2    0    0  0.10273376906E+02  0.11462251129E+02  0.10665348499E+02  0.72461678081E+02  0.70000140413E+02 0.  0.
         12    1    1    2    0    0 -0.10273376906E+02 -0.11462251129E+02 -0.10665348499E+02  0.18726321919E+02  0.00000000000E+00 0. -1.
         11    1    3    3    0    0  0.13498030600E+02 -0.84264831443E+01  0.11326177771E+02  0.19531634632E+02  0.51100000000E-03 0. -1.
        -11    1    3    3    0    0  0.58455066735E+01 -0.11547488578E+02  0.12188824518E+02  0.17778691857E+02  0.51100000000E-03 0.  1.
        -12    1    3    3    0    0 -0.90701603675E+01  0.31436222851E+02 -0.12849653790E+02  0.35151351593E+02  0.00000000000E+00 0.  1.
</event>
<event>
 7    1  0.1692604E-013  0.7246151E+02  0.7816164E-02  0.1226708E+00
        -11   -1    0    0    0    0  0.00000000000E+00  0.00000000000E+00  0.45593999997E+02  0.45594000000E+02  0.51100000000E-03 0. -1.
         11   -1    0    0    0    0 -0.00000000000E+00 -0.00000000000E+00 -0.45593999997E+02  0.45594000000E+02  0.51100000000E-03 0.  1.
    9900012    2    1    2    0    0  0.17519983911E+02  0.44272610788E+01 -0.49123320836E+01  0.72461508513E+02  0.69999919519E+02 0.  0.
         12    1    1    2    0    0 -0.17519983911E+02 -0.44272610788E+01  0.49123320836E+01  0.18726491487E+02  0.00000000000E+00 0. -1.
         11    1    3    3    0    0  0.25654706657E+02 -0.21965417249E+02  0.71186307063E+01  0.34515481048E+02  0.51100000000E-03 0. -1.
        -11    1    3    3    0    0 -0.96685679912E+01  0.22502489288E+01 -0.92973899003E+01  0.13600966380E+02  0.51100000000E-03 0.  1.
        -12    1    3    3    0    0  0.15338452453E+01  0.24142429399E+02 -0.27335728896E+01  0.24345061086E+02  0.00000000000E+00 0.  1.
</event>
<event>
 7    1  0.1692604E-013  0.7246152E+02  0.7816164E-02  0.1226708E+00
        -11   -1    0    0    0    0  0.00000000000E+00  0.00000000000E+00  0.45593999997E+02  0.45594000000E+02  0.51100000000E-03 0.  1.
         11   -1    0    0    0    0 -0.00000000000E+00 -0.00000000000E+00 -0.45593999997E+02  0.45594000000E+02  0.51100000000E-03 0. -1.
    9900012    2    1    2    0    0  0.10346318191E+01 -0.95173245256E+00  0.18673636897E+02  0.72461522151E+02  0.69999937284E+02 0.  0.
         12    1    1    2    0    0 -0.10346318191E+01  0.95173245256E+00 -0.18673636897E+02  0.18726477849E+02  0.00000000000E+00 0. -1.
         11    1    3    3    0    0 -0.14433283859E+02  0.56475695656E+01  0.99271020987E+01  0.18405490520E+02  0.51100000000E-03 0. -1.
        -11    1    3    3    0    0  0.14954913195E+02  0.83329161742E+01  0.26064242486E+02  0.31183836475E+02  0.51100000000E-03 0.  1.
         12    1    3    3    0    0  0.51300248318E+00 -0.14932218192E+02 -0.17317707688E+02  0.22872195156E+02  0.00000000000E+00 0. -1.
</event>
<event>
 7    1  0.1692604E-013  0.7246160E+02  0.7816164E-02  0.1226708E+00
        -11   -1    0    0    0    0  0.00000000000E+00  0.00000000000E+00  0.45593999997E+02  0.45594000000E+02  0.51100000000E-03 0.  1.
         11   -1    0    0    0    0 -0.00000000000E+00 -0.00000000000E+00 -0.45593999997E+02  0.45594000000E+02  0.51100000000E-03 0. -1.
    9900012    2    1    2    0    0  0.11779814683E+02  0.12980606495E+02  0.65892256616E+01  0.72461599552E+02  0.70000038113E+02 0.  0.
         12    1    1    2    0    0 -0.11779814683E+02 -0.12980606495E+02 -0.65892256616E+01  0.18726400448E+02  0.00000000000E+00 0. -1.
         11    1    3    3    0    0 -0.74423384195E+01  0.17367674679E+02 -0.60677095587E+01  0.19845443418E+02  0.51100000000E-03 0. -1.
        -11    1    3    3    0    0  0.29802792731E+01  0.20508767632E+02  0.11988156212E+01  0.20758823991E+02  0.51100000000E-03 0.  1.
        -12    1    3    3    0    0  0.16241873830E+02 -0.24895835817E+02  0.11458119599E+02  0.31857332143E+02  0.00000000000E+00 0.  1.
</event>
<event>
 7    1  0.1692604E-013  0.7246155E+02  0.7816164E-02  0.1226708E+00
        -11   -1    0    0    0    0  0.00000000000E+00  0.00000000000E+00  0.45593999997E+02  0.45594000000E+02  0.51100000000E-03 0.  1.
         11   -1    0    0    0    0 -0.00000000000E+00 -0.00000000000E+00 -0.45593999997E+02  0.45594000000E+02  0.51100000000E-03 0. -1.
    9900012    2    1    2    0    0  0.15442174485E+02 -0.50820640237E+01 -0.92947248370E+01  0.72461547123E+02  0.69999969815E+02 0.  0.
         12    1    1    2    0    0 -0.15442174485E+02  0.50820640237E+01  0.92947248370E+01  0.18726452877E+02  0.00000000000E+00 0. -1.
         11    1    3    3    0    0 -0.40472755260E+01 -0.84163586999E+01 -0.82829010246E+01  0.12482867563E+02  0.51100000000E-03 0. -1.
        -11    1    3    3    0    0  0.18568067106E+02 -0.17648874398E+02  0.18271346898E+02  0.31465822750E+02  0.51100000000E-03 0.  1.
         12    1    3    3    0    0  0.92138290463E+00  0.20983169074E+02 -0.19283170710E+02  0.28512856810E+02  0.00000000000E+00 0. -1.
</event>
<event>
 7    1  0.1692604E-013  0.7246150E+02  0.7816164E-02  0.1226708E+00
        -11   -1    0    0    0    0  0.00000000000E+00  0.00000000000E+00  0.45593999997E+02  0.45594000000E+02  0.51100000000E-03 0.  1.
         11   -1    0    0    0    0 -0.00000000000E+00 -0.00000000000E+00 -0.45593999997E+02  0.45594000000E+02  0.51100000000E-03 0. -1.
    9900012    2    1    2    0    0 -0.15084777635E+02  0.93691654974E+01 -0.59456021326E+01  0.72461495704E+02  0.69999902833E+02 0.  0.
         12    1    1    2    0    0  0.15084777635E+02 -0.93691654974E+01  0.59456021326E+01  0.18726504296E+02  0.00000000000E+00 0. -1.
         11    1    3    3    0    0 -0.14389069320E+02  0.85772340730E+01 -0.17597148295E+02  0.24295552857E+02  0.51100000000E-03 0. -1.
        -11    1    3    3    0    0  0.58236688831E+01 -0.98046054050E+01 -0.14947586811E+02  0.18800950991E+02  0.51100000000E-03 0.  1.
        -12    1    3    3    0    0 -0.65193771978E+01  0.10596536829E+02  0.26599132973E+02  0.29364991857E+02  0.00000000000E+00 0.  1.
</event>
<event>
 7    1  0.1692604E-013  0.7246154E+02  0.7816164E-02  0.1226708E+00
        -11   -1    0    0    0    0  0.00000000000E+00  0.00000000000E+00  0.45593999997E+02  0.45594000000E+02  0.51100000000E-03 0.  1.
         11   -1    0    0    0    0 -0.00000000000E+00 -0.00000000000E+00 -0.45593999997E+02  0.45594000000E+02  0.51100000000E-03 0. -1.
    9900012    2    1    2    0    0 -0.90607322199E+00  0.14246956158E+02  0.12119556620E+02  0.72461537945E+02  0.69999957859E+02 0.  0.
         12    1    1    2    0    0  0.90607322199E+00 -0.14246956158E+02 -0.12119556620E+02  0.18726462055E+02  0.00000000000E+00 0. -1.
         11    1    3    3    0    0 -0.11409081766E+02 -0.11289750946E+02 -0.42111073122E+01  0.16593946132E+02  0.51100000000E-03 0.  1.
        -11    1    3    3    0    0  0.49630909488E+01  0.17145380714E+02 -0.14778823257E+02  0.23173475543E+02  0.51100000000E-03 0. -1.
        -12    1    3    3    0    0  0.55399175955E+01  0.83913263892E+01  0.31109487189E+02  0.32694116270E+02  0.00000000000E+00 0.  1.
</event>
<event>
 7    1  0.1692604E-013  0.7246158E+02  0.7816164E-02  0.1226708E+00
        -11   -1    0    0    0    0  0.00000000000E+00  0.00000000000E+00  0.45593999997E+02  0.45594000000E+02  0.51100000000E-03 0. -1.
         11   -1    0    0    0    0 -0.00000000000E+00 -0.00000000000E+00 -0.45593999997E+02  0.45594000000E+02  0.51100000000E-03 0.  1.
    9900012    2    1    2    0    0 -0.13302617837E-02 -0.42818172758E+01 -0.18230331466E+02  0.72461576254E+02  0.70000007764E+02 0.  0.
         12    1    1    2    0    0  0.13302617837E-02  0.42818172758E+01  0.18230331466E+02  0.18726423746E+02  0.00000000000E+00 0. -1.
         11    1    3    3    0    0  0.21895145318E+02 -0.41524318711E+01 -0.16431978721E+02  0.27688445313E+02  0.51100000000E-03 0. -1.
        -11    1    3    3    0    0  0.42080305334E+01 -0.12338820611E+02 -0.79988778597E+01  0.15294968529E+02  0.51100000000E-03 0.  1.
        -12    1    3    3    0    0 -0.26104506113E+02  0.12209435206E+02  0.62005251149E+01  0.29478162412E+02  0.00000000000E+00 0.  1.
</event>
<event>
 7    1  0.1692604E-013  0.7246156E+02  0.7816164E-02  0.1226708E+00
        -11   -1    0    0    0    0  0.00000000000E+00  0.00000000000E+00  0.45593999997E+02  0.45594000000E+02  0.51100000000E-03 0. -1.
         11   -1    0    0    0    0 -0.00000000000E+00 -0.00000000000E+00 -0.45593999997E+02  0.45594000000E+02  0.51100000000E-03 0.  1.
    9900012    2    1    2    0    0 -0.70858963347E+01 -0.11952975144E+02 -0.12553727776E+02  0.72461558193E+02  0.69999984236E+02 0.  0.
         12    1    1    2    0    0  0.70858963347E+01  0.11952975144E+02  0.12553727776E+02  0.18726441807E+02  0.00000000000E+00 0. -1.
         11    1    3    3    0    0 -0.23351163293E+02  0.82332439858E+01  0.12413125137E+02  0.27697451319E+02  0.51100000000E-03 0. -1.
        -11    1    3    3    0    0  0.66515762855E+01  0.61770547893E+01 -0.66717256371E+01  0.11265495825E+02  0.51100000000E-03 0.  1.
         12    1    3    3    0    0  0.96136906724E+01 -0.26363273920E+02 -0.18295127277E+02  0.33498611048E+02  0.00000000000E+00 0. -1.
</event>
<event>
 7    1  0.1692604E-013  0.7246159E+02  0.7816164E-02  0.1226708E+00
        -11   -1    0    0    0    0  0.00000000000E+00  0.00000000000E+00  0.45593999997E+02  0.45594000000E+02  0.51100000000E-03 0. -1.
         11   -1    0    0    0    0 -0.00000000000E+00 -0.00000000000E+00 -0.45593999997E+02  0.45594000000E+02  0.51100000000E-03 0.  1.
    9900012    2    1    2    0    0  0.10010792909E+02 -0.15631451631E+02  0.24739208642E+01  0.72461587124E+02  0.70000021924E+02 0.  0.
         12    1    1    2    0    0 -0.10010792909E+02  0.15631451631E+02 -0.24739208642E+01  0.18726412876E+02  0.00000000000E+00 0. -1.
         11    1    3    3    0    0  0.91742211027E+01 -0.82384749369E+01 -0.46404138388E+01  0.13174681893E+02  0.51100000000E-03 0. -1.
        -11    1    3    3    0    0 -0.14791809226E+00  0.54165086753E+01 -0.24536694038E+02  0.25127869001E+02  0.51100000000E-03 0.  1.
         12    1    3    3    0    0  0.98448989830E+00 -0.12809485369E+02  0.31651028741E+02  0.34159036230E+02  0.00000000000E+00 0. -1.
</event>
<event>
 7    1  0.1692604E-013  0.7246155E+02  0.7816164E-02  0.1226708E+00
        -11   -1    0    0    0    0  0.00000000000E+00  0.00000000000E+00  0.45593999997E+02  0.45594000000E+02  0.51100000000E-03 0.  1.
         11   -1    0    0    0    0 -0.00000000000E+00 -0.00000000000E+00 -0.45593999997E+02  0.45594000000E+02  0.51100000000E-03 0. -1.
    9900012    2    1    2    0    0 -0.11563650641E+02  0.13151630100E+02  0.66329989001E+01  0.72461546389E+02  0.69999968859E+02 0.  0.
         12    1    1    2    0    0  0.11563650641E+02 -0.13151630100E+02 -0.66329989001E+01  0.18726453611E+02  0.00000000000E+00 0. -1.
         11    1    3    3    0    0  0.53832603514E+01  0.56150671046E+01 -0.57244668718E+01  0.96580532111E+01  0.51100000000E-03 0. -1.
        -11    1    3    3    0    0 -0.11109408002E+02  0.31077776909E+02  0.18429620502E+02  0.37800768191E+02  0.51100000000E-03 0.  1.
         12    1    3    3    0    0 -0.58375029908E+01 -0.23541213913E+02 -0.60721547304E+01  0.25002724986E+02  0.00000000000E+00 0. -1.
</event>
<event>
 7    1  0.1692604E-013  0.7246162E+02  0.7816164E-02  0.1226708E+00
        -11   -1    0    0    0    0  0.00000000000E+00  0.00000000000E+00  0.45593999997E+02  0.45594000000E+02  0.51100000000E-03 0.  1.
         11   -1    0    0    0    0 -0.00000000000E+00 -0.00000000000E+00 -0.45593999997E+02  0.45594000000E+02  0.51100000000E-03 0. -1.
    9900012    2    1    2    0    0 -0.34898040027E+01 -0.43586107739E+01 -0.17874597480E+02  0.72461616075E+02  0.70000059637E+02 0.  0.
         12    1    1    2    0    0  0.34898040027E+01  0.43586107739E+01  0.17874597480E+02  0.18726383925E+02  0.00000000000E+00 0. -1.
         11    1    3    3    0    0  0.78236294936E+01  0.83227115244E+01  0.13634910547E+02  0.17787284544E+02  0.51100000000E-03 0. -1.
        -11    1    3    3    0    0  0.52881980662E+00 -0.25406706400E+02 -0.10735461849E+02  0.27586781651E+02  0.51100000000E-03 0.  1.
         12    1    3    3    0    0 -0.11842253303E+02  0.12725384102E+02 -0.20774046178E+02  0.27087549879E+02  0.00000000000E+00 0. -1.
</event>
<event>
 7    1  0.1692604E-013  0.7246156E+02  0.7816164E-02  0.1226708E+00
        -11   -1    0    0    0    0  0.00000000000E+00  0.00000000000E+00  0.45593999997E+02  0.45594000000E+02  0.51100000000E-03 0. -1.
         11   -1    0    0    0    0 -0.00000000000E+00 -0.00000000000E+00 -0.45593999997E+02  0.45594000000E+02  0.51100000000E-03 0.  1.
    9900012    2    1    2    0    0 -0.69313934187E+01  0.17375855436E+02  0.84557917205E+00  0.72461559575E+02  0.69999986036E+02 0.  0.
         12    1    1    2    0    0  0.69313934187E+01 -0.17375855436E+02 -0.84557917205E+00  0.18726440425E+02  0.00000000000E+00 0. -1.
         11    1    3    3    0    0 -0.18371337529E+01 -0.28014570377E+01 -0.76736890041E+01  0.83730953149E+01  0.51100000000E-03 0. -1.
        -11    1    3    3    0    0  0.26506758454E+00  0.37834120142E+02 -0.87302150446E+01  0.38829210174E+02  0.51100000000E-03 0.  1.
         12    1    3    3    0    0 -0.53593272503E+01 -0.17656807668E+02  0.17249483221E+02  0.25259254086E+02  0.00000000000E+00 0. -1.
</event>
<event>
 7    1  0.1692604E-013  0.7246156E+02  0.7816164E-02  0.1226708E+00
        -11   -1    0    0    0    0  0.00000000000E+00  0.00000000000E+00  0.45593999997E+02  0.45594000000E+02  0.51100000000E-03 0. -1.
         11   -1    0    0    0    0 -0.00000000000E+00 -0.00000000000E+00 -0.45593999997E+02  0.45594000000E+02  0.51100000000E-03 0.  1.
    9900012    2    1    2    0    0  0.10527282745E+02 -0.15468049444E+02 -0.77165296120E+00  0.72461556561E+02  0.69999982110E+02 0.  0.
         12    1    1    2    0    0 -0.10527282745E+02  0.15468049444E+02  0.77165296120E+00  0.18726443439E+02  0.00000000000E+00 0. -1.
         11    1    3    3    0    0  0.11595095885E+02 -0.22803798560E+02 -0.24257922335E+00  0.25583555701E+02  0.51100000000E-03 0. -1.
        -11    1    3    3    0    0  0.59794210325E+01  0.33156872968E+01 -0.22468886663E+02  0.23486126251E+02  0.51100000000E-03 0.  1.
         12    1    3    3    0    0 -0.70472341725E+01  0.40200618194E+01  0.21939812926E+02  0.23391874609E+02  0.00000000000E+00 0. -1.
</event>
<event>
 7    1  0.1692604E-013  0.7246153E+02  0.7816164E-02  0.1226708E+00
        -11   -1    0    0    0    0  0.00000000000E+00  0.00000000000E+00  0.45593999997E+02  0.45594000000E+02  0.51100000000E-03 0. -1.
         11   -1    0    0    0    0 -0.00000000000E+00 -0.00000000000E+00 -0.45593999997E+02  0.45594000000E+02  0.51100000000E-03 0.  1.
    9900012    2    1    2    0    0  0.17442580114E+02  0.24317430816E+01 -0.63658149911E+01  0.72461532743E+02  0.69999951082E+02 0.  0.
         12    1    1    2    0    0 -0.17442580114E+02 -0.24317430816E+01  0.63658149911E+01  0.18726467257E+02  0.00000000000E+00 0. -1.
         11    1    3    3    0    0 -0.52151266689E+01  0.27019794198E+02  0.85487825237E+00  0.27531756968E+02  0.51100000000E-03 0. -1.
        -11    1    3    3    0    0  0.65766535151E+01 -0.40845545628E+01 -0.15718508876E+02  0.17521628890E+02  0.51100000000E-03 0.  1.
        -12    1    3    3    0    0  0.16081053267E+02 -0.20503496553E+02  0.84978156324E+01  0.27408146884E+02  0.00000000000E+00 0.  1.
</event>
<event>
 7    1  0.1692604E-013  0.7246156E+02  0.7816164E-02  0.1226708E+00
        -11   -1    0    0    0    0  0.00000000000E+00  0.00000000000E+00  0.45593999997E+02  0.45594000000E+02  0.51100000000E-03 0.  1.
         11   -1    0    0    0    0 -0.00000000000E+00 -0.00000000000E+00 -0.45593999997E+02  0.45594000000E+02  0.51100000000E-03 0. -1.
    9900012    2    1    2    0    0 -0.13539723086E+02 -0.62697189376E+01 -0.11315742049E+02  0.72461561606E+02  0.69999988682E+02 0.  0.
         12    1    1    2    0    0  0.13539723086E+02  0.62697189376E+01  0.11315742049E+02  0.18726438394E+02  0.00000000000E+00 0. -1.
         11    1    3    3    0    0 -0.10920467063E+02 -0.95865639107E+01 -0.25242646837E+02  0.29126448944E+02  0.51100000000E-03 0. -1.
        -11    1    3    3    0    0 -0.43341497376E+01  0.16976464941E+02 -0.65121281777E+01  0.18692057926E+02  0.51100000000E-03 0.  1.
        -12    1    3    3    0    0  0.17148937145E+01 -0.13659619968E+02  0.20439032966E+02  0.24643054736E+02  0.00000000000E+00 0.  1.
</event>
<event>
 7    1  0.1692604E-013  0.7246165E+02  0.7816164E-02  0.1226708E+00
        -11   -1    0    0    0    0  0.00000000000E+00  0.00000000000E+00  0.45593999997E+02  0.45594000000E+02  0.51100000000E-03 0. -1.
         11   -1    0    0    0    0 -0.00000000000E+00 -0.00000000000E+00 -0.45593999997E+02  0.45594000000E+02  0.51100000000E-03 0.  1.
    9900012    2    1    2    0    0 -0.44477427885E+01 -0.17756301884E+02  0.39506232227E+01  0.72461652349E+02  0.70000106891E+02 0.  0.
         12    1    1    2    0    0  0.44477427885E+01  0.17756301884E+02 -0.39506232227E+01  0.18726347651E+02  0.00000000000E+00 0. -1.
         11    1    3    3    0    0 -0.62808163762E+01  0.10518243364E+02  0.13542225311E+01  0.12325421565E+02  0.51100000000E-03 0. -1.
        -11    1    3    3    0    0 -0.25124834917E+02 -0.11739782208E+02 -0.34260309060E+01  0.27943111922E+02  0.51100000000E-03 0.  1.
         12    1    3    3    0    0  0.26957908504E+02 -0.16534763041E+02  0.60224315976E+01  0.32193118862E+02  0.00000000000E+00 0. -1.
</event>
<event>
 7    1  0.1692604E-013  0.7246155E+02  0.7816164E-02  0.1226708E+00
        -11   -1    0    0    0    0  0.00000000000E+00  0.00000000000E+00  0.45593999997E+02  0.45594000000E+02  0.51100000000E-03 0. -1.
         11   -1    0    0    0    0 -0.00000000000E+00 -0.00000000000E+00 -0.45593999997E+02  0.45594000000E+02  0.51100000000E-03 0.  1.
    9900012    2    1    2    0    0 -0.42159780139E+01  0.16486636596E+02  0.78164081732E+01  0.72461550962E+02  0.69999974815E+02 0.  0.
         12    1    1    2    0    0  0.42159780139E+01 -0.16486636596E+02 -0.78164081732E+01  0.18726449038E+02  0.00000000000E+00 0. -1.
         11    1    3    3    0    0 -0.10585302426E+02 -0.86874675301E+01  0.63120923784E+01  0.15078568566E+02  0.51100000000E-03 0. -1.
        -11    1    3    3    0    0 -0.13332207164E+02  0.31083255742E+02  0.97868769184E+01  0.35209366587E+02  0.51100000000E-03 0.  1.
         12    1    3    3    0    0  0.19701531576E+02 -0.59091516158E+01 -0.82825611236E+01  0.22173615809E+02  0.00000000000E+00 0. -1.
</event>
<event>
 7    1  0.1692604E-013  0.7246154E+02  0.7816164E-02  0.1226708E+00
        -11   -1    0    0    0    0  0.00000000000E+00  0.00000000000E+00  0.45593999997E+02  0.45594000000E+02  0.51100000000E-03 0.  1.
         11   -1    0    0    0    0 -0.00000000000E+00 -0.00000000000E+00 -0.45593999997E+02  0.45594000000E+02  0.51100000000E-03 0. -1.
    9900012    2    1    2    0    0 -0.89831001570E+01  0.92425981792E+01  0.13585229238E+02  0.72461543768E+02  0.69999965445E+02 0.  0.
         12    1    1    2    0    0  0.89831001570E+01 -0.92425981792E+01 -0.13585229238E+02  0.18726456232E+02  0.00000000000E+00 0. -1.
         11    1    3    3    0    0  0.25125754013E+01  0.21264790233E+01 -0.12394235776E+02  0.12823885094E+02  0.51100000000E-03 0. -1.
        -11    1    3    3    0    0 -0.12819732846E+02 -0.13296990453E+02 -0.78780874058E+01  0.20080332836E+02  0.51100000000E-03 0.  1.
        -12    1    3    3    0    0  0.13240572882E+01  0.20413109609E+02  0.33857552420E+02  0.39557325838E+02  0.00000000000E+00 0.  1.
</event>
<event>
 7    1  0.1692604E-013  0.7246157E+02  0.7816164E-02  0.1226708E+00
        -11   -1    0    0    0    0  0.00000000000E+00  0.00000000000E+00  0.45593999997E+02  0.45594000000E+02  0.51100000000E-03 0.  1.
         11   -1    0    0    0    0 -0.00000000000E+00 -0.00000000000E+00 -0.45593999997E+02  0.45594000000E+02  0.51100000000E-03 0. -1.
    9900012    2    1    2    0    0 -0.26263577390E+01  0.30063659430E+01  0.18295986631E+02  0.72461571671E+02  0.70000001794E+02 0.  0.
         12    1    1    2    0    0  0.26263577390E+01 -0.30063659430E+01 -0.18295986631E+02  0.18726428329E+02  0.00000000000E+00 0. -1.
         11    1    3    3    0    0 -0.11952218573E+02  0.92810915133E+00 -0.16791902110E+02  0.20632132516E+02  0.51100000000E-03 0. -1.
        -11    1    3    3    0    0 -0.61936712376E+00  0.13554844409E+02 -0.29629110363E-01  0.13569019888E+02  0.51100000000E-03 0.  1.
        -12    1    3    3    0    0  0.99452279579E+01 -0.11476587617E+02  0.35117517851E+02  0.38260419267E+02  0.00000000000E+00 0.  1.
</event>
<event>
 7    1  0.1692604E-013  0.7246156E+02  0.7816164E-02  0.1226708E+00
        -11   -1    0    0    0    0  0.00000000000E+00  0.00000000000E+00  0.45593999997E+02  0.45594000000E+02  0.51100000000E-03 0.  1.
         11   -1    0    0    0    0 -0.00000000000E+00 -0.00000000000E+00 -0.45593999997E+02  0.45594000000E+02  0.51100000000E-03 0. -1.
    9900012    2    1    2    0    0  0.90666945398E+01  0.73895234331E+01  0.14624284053E+02  0.72461556384E+02  0.69999981879E+02 0.  0.
         12    1    1    2    0    0 -0.90666945398E+01 -0.73895234331E+01 -0.14624284053E+02  0.18726443616E+02  0.00000000000E+00 0. -1.
         11    1    3    3    0    0  0.51052550135E+00  0.99097085685E+01 -0.41817812796E+01  0.10768020019E+02  0.51100000000E-03 0.  1.
        -11    1    3    3    0    0 -0.13727332398E+02  0.21560972688E+02  0.11762183434E+02  0.28136527103E+02  0.51100000000E-03 0. -1.
         12    1    3    3    0    0  0.22283501436E+02 -0.24081157824E+02  0.70438818982E+01  0.33557009262E+02  0.00000000000E+00 0. -1.
</event>
<event>
 7    1  0.1692604E-013  0.7246157E+02  0.7816164E-02  0.1226708E+00
        -11   -1    0    0    0    0  0.00000000000E+00  0.00000000000E+00  0.45593999997E+02  0.45594000000E+02  0.51100000000E-03 0.  1.
         11   -1    0    0    0    0 -0.00000000000E+00 -0.00000000000E+00 -0.45593999997E+02  0.45594000000E+02  0.51100000000E-03 0. -1.
    9900012    2    1    2    0    0 -0.15010615790E+02  0.18450975173E+01  0.11043375971E+02  0.72461571508E+02  0.70000001581E+02 0.  0.
         12    1    1    2    0    0  0.15010615790E+02 -0.18450975173E+01 -0.11043375971E+02  0.18726428492E+02  0.00000000000E+00 0. -1.
         11    1    3    3    0    0 -0.30017682351E+01  0.84538896946E+01 -0.95528593945E+01  0.13104807758E+02  0.51100000000E-03 0. -1.
        -11    1    3    3    0    0  0.20318676310E+02 -0.25150404197E-01 -0.27042285563E+00  0.20320491341E+02  0.51100000000E-03 0.  1.
         12    1    3    3    0    0 -0.32327523865E+02 -0.65836417731E+01  0.20866658222E+02  0.39036272409E+02  0.00000000000E+00 0. -1.
</event>
<event>
 7    1  0.1692604E-013  0.7246157E+02  0.7816164E-02  0.1226708E+00
        -11   -1    0    0    0    0  0.00000000000E+00  0.00000000000E+00  0.45593999997E+02  0.45594000000E+02  0.51100000000E-03 0.  1.
         11   -1    0    0    0    0 -0.00000000000E+00 -0.00000000000E+00 -0.45593999997E+02  0.45594000000E+02  0.51100000000E-03 0. -1.
    9900012    2    1    2    0    0  0.16241136739E+02 -0.49997620004E+01 -0.78681097919E+01  0.72461566962E+02  0.69999995659E+02 0.  0.
         12    1    1    2    0    0 -0.16241136739E+02  0.49997620004E+01  0.78681097919E+01  0.18726433038E+02  0.00000000000E+00 0. -1.
         11    1    3    3    0    0 -0.20729348748E+02 -0.76980125025E+01 -0.57477628763E+01  0.22847364713E+02  0.51100000000E-03 0. -1.
        -11    1    3    3    0    0  0.11502112459E+02 -0.22593821058E+01  0.14617876202E+02  0.18737281111E+02  0.51100000000E-03 0.  1.
        -12    1    3    3    0    0  0.25468373028E+02  0.49576326079E+01 -0.16738223118E+02  0.30876921137E+02  0.00000000000E+00 0.  1.
</event>
<event>
 7    1  0.1692604E-013  0.7246156E+02  0.7816164E-02  0.1226708E+00
        -11   -1    0    0    0    0  0.00000000000E+00  0.00000000000E+00  0.45593999997E+02  0.45594000000E+02  0.51100000000E-03 0.  1.
         11   -1    0    0    0    0 -0.00000000000E+00 -0.00000000000E+00 -0.45593999997E+02  0.45594000000E+02  0.51100000000E-03 0. -1.
    9900012    2    1    2    0    0 -0.36678595403E+01  0.18023812401E+01  0.18275056006E+02  0.72461562972E+02  0.69999990461E+02 0.  0.
         12    1    1    2    0    0  0.36678595403E+01 -0.18023812401E+01 -0.18275056006E+02  0.18726437028E+02  0.00000000000E+00 0. -1.
         11    1    3    3    0    0 -0.13129259589E+02 -0.13292043026E+02 -0.71575590331E+01  0.20007161636E+02  0.51100000000E-03 0. -1.
        -11    1    3    3    0    0  0.20713811750E+02 -0.38198167837E+01  0.21498670184E+02  0.30097272591E+02  0.51100000000E-03 0.  1.
         12    1    3    3    0    0 -0.11252411701E+02  0.18914241049E+02  0.39339448554E+01  0.22357128745E+02  0.00000000000E+00 0. -1.
</event>
<event>
 7    1  0.1692604E-013  0.7246156E+02  0.7816164E-02  0.1226708E+00
        -11   -1    0    0    0    0  0.00000000000E+00  0.00000000000E+00  0.45593999997E+02  0.45594000000E+02  0.51100000000E-03 0. -1.
         11   -1    0    0    0    0 -0.00000000000E+00 -0.00000000000E+00 -0.45593999997E+02  0.45594000000E+02  0.51100000000E-03 0.  1.
    9900012    2    1    2    0    0  0.71203455074E+01 -0.28063801578E+01 -0.17091061810E+02  0.72461561911E+02  0.69999989079E+02 0.  0.
         12    1    1    2    0    0 -0.71203455074E+01  0.28063801578E+01  0.17091061810E+02  0.18726438089E+02  0.00000000000E+00 0. -1.
         11    1    3    3    0    0  0.31059134438E+02  0.68456656220E+01 -0.30749137409E+01  0.31952903853E+02  0.51100000000E-03 0. -1.
        -11    1    3    3    0    0  0.32232385491E+01 -0.25989241224E+00  0.50663594754E+01  0.60103917847E+01  0.51100000000E-03 0.  1.
        -12    1    3    3    0    0 -0.27162027480E+02 -0.93921533675E+01 -0.19082507544E+02  0.34498266273E+02  0.00000000000E+00 0.  1.
</event>
<event>
 7    1  0.1692604E-013  0.7246155E+02  0.7816164E-02  0.1226708E+00
        -11   -1    0    0    0    0  0.00000000000E+00  0.00000000000E+00  0.45593999997E+02  0.45594000000E+02  0.51100000000E-03 0.  1.
         11   -1    0    0    0    0 -0.00000000000E+00 -0.00000000000E+00 -0.45593999997E+02  0.45594000000E+02  0.51100000000E-03 0. -1.
    9900012    2    1    2    0    0  0.15534654170E+02  0.54374051229E+01  0.89324827229E+01  0.72461545390E+02  0.69999967558E+02 0.  0.
         12    1    1    2    0    0 -0.15534654170E+02 -0.54374051229E+01 -0.89324827229E+01  0.18726454610E+02  0.00000000000E+00 0. -1.
         11    1    3    3    0    0 -0.17603955002E+02 -0.34674675929E+01  0.73257449839E+01  0.19380121337E+02  0.51100000000E-03 0.  1.
        -11    1    3    3    0    0  0.10676569436E+02  0.56067542368E+01 -0.18945344576E+02  0.22457758334E+02  0.51100000000E-03 0. -1.
         12    1    3    3    0    0  0.22462039736E+02  0.32981184789E+01  0.20552082315E+02  0.30623665719E+02  0.00000000000E+00 0. -1.
</event>
<event>
 7    1  0.1692604E-013  0.7246155E+02  0.7816164E-02  0.1226708E+00
        -11   -1    0    0    0    0  0.00000000000E+00  0.00000000000E+00  0.45593999997E+02  0.45594000000E+02  0.51100000000E-03 0. -1.
         11   -1    0    0    0    0 -0.00000000000E+00 -0.00000000000E+00 -0.45593999997E+02  0.45594000000E+02  0.51100000000E-03 0.  1.
    9900012    2    1    2    0    0  0.15043192596E+02  0.64539605172E+01 -0.90955392271E+01  0.72461545886E+02  0.69999968204E+02 0.  0.
         12    1    1    2    0    0 -0.15043192596E+02 -0.64539605172E+01  0.90955392271E+01  0.18726454114E+02  0.00000000000E+00 0. -1.
         11    1    3    3    0    0  0.53534744451E+01 -0.12777117172E+02 -0.26743813237E+02  0.30118863833E+02  0.51100000000E-03 0. -1.
        -11    1    3    3    0    0  0.17300384806E+02  0.10887459457E+02 -0.10835995200E+01  0.20469838203E+02  0.51100000000E-03 0.  1.
        -12    1    3    3    0    0 -0.76106666549E+01  0.83436182329E+01  0.18731873530E+02  0.21872843850E+02  0.00000000000E+00 0.  1.
</event>
<event>
 7    1  0.1692604E-013  0.7246148E+02  0.7816164E-02  0.1226708E+00
        -11   -1    0    0    0    0  0.00000000000E+00  0.00000000000E+00  0.45593999997E+02  0.45594000000E+02  0.51100000000E-03 0. -1.
         11   -1    0    0    0    0 -0.00000000000E+00 -0.00000000000E+00 -0.45593999997E+02  0.45594000000E+02  0.51100000000E-03 0.  1.
    9900012    2    1    2    0    0  0.93066935557E+01  0.12946334309E+02 -0.98214348043E+01  0.72461476068E+02  0.69999877252E+02 0.  0.
         12    1    1    2    0    0 -0.93066935557E+01 -0.12946334309E+02  0.98214348043E+01  0.18726523932E+02  0.00000000000E+00 0. -1.
         11    1    3    3    0    0 -0.12927616675E+01 -0.80449513825E+01 -0.22891518605E+01  0.84636098668E+01  0.51100000000E-03 0. -1.
        -11    1    3    3    0    0  0.28372460918E+02 -0.36929397931E+01 -0.15519386000E+02  0.32549741703E+02  0.51100000000E-03 0.  1.
         12    1    3    3    0    0 -0.17773005695E+02  0.24684225484E+02  0.79871030558E+01  0.31448124498E+02  0.00000000000E+00 0. -1.
</event>
<event>
 7    1  0.1692604E-013  0.7246139E+02  0.7816164E-02  0.1226709E+00
        -11   -1    0    0    0    0  0.00000000000E+00  0.00000000000E+00  0.45593999997E+02  0.45594000000E+02  0.51100000000E-03 0.  1.
         11   -1    0    0    0    0 -0.00000000000E+00 -0.00000000000E+00 -0.45593999997E+02  0.45594000000E+02  0.51100000000E-03 0. -1.
    9900012    2    1    2    0    0 -0.13041650248E+02 -0.12359673669E+02 -0.52763552271E+01  0.72461385280E+02  0.69999758984E+02 0.  0.
         12    1    1    2    0    0  0.13041650248E+02  0.12359673669E+02  0.52763552271E+01  0.18726614720E+02  0.00000000000E+00 0. -1.
         11    1    3    3    0    0  0.14166191069E+02  0.10926145073E+02 -0.88157092757E+01  0.19944381310E+02  0.51100000000E-03 0. -1.
        -11    1    3    3    0    0 -0.23740567203E+02  0.43473158151E+01 -0.16347897481E+01  0.24190622639E+02  0.51100000000E-03 0.  1.
        -12    1    3    3    0    0 -0.34672741144E+01 -0.27633134557E+02  0.51741437967E+01  0.28326381330E+02  0.00000000000E+00 0.  1.
</event>
<event>
 7    1  0.1692604E-013  0.7246161E+02  0.7816164E-02  0.1226708E+00
        -11   -1    0    0    0    0  0.00000000000E+00  0.00000000000E+00  0.45593999997E+02  0.45594000000E+02  0.51100000000E-03 0. -1.
         11   -1    0    0    0    0 -0.00000000000E+00 -0.00000000000E+00 -0.45593999997E+02  0.45594000000E+02  0.51100000000E-03 0.  1.
    9900012    2    1    2    0    0  0.56323823081E+01  0.10876830118E+02 -0.14165040015E+02  0.72461614270E+02  0.70000057286E+02 0.  0.
         12    1    1    2    0    0 -0.56323823081E+01 -0.10876830118E+02  0.14165040015E+02  0.18726385730E+02  0.00000000000E+00 0. -1.
         11    1    3    3    0    0  0.21963429123E+01 -0.89771621251E+01  0.63927514242E+01  0.11237465597E+02  0.51100000000E-03 0. -1.
        -11    1    3    3    0    0  0.70285906352E+01 -0.13321839699E+02  0.82200911796E+01  0.17159323954E+02  0.51100000000E-03 0.  1.
        -12    1    3    3    0    0 -0.35925512394E+01  0.33175831943E+02 -0.28777882619E+02  0.44064824719E+02  0.00000000000E+00 0.  1.
</event>
<event>
 7    1  0.1692604E-013  0.7246157E+02  0.7816164E-02  0.1226708E+00
        -11   -1    0    0    0    0  0.00000000000E+00  0.00000000000E+00  0.45593999997E+02  0.45594000000E+02  0.51100000000E-03 0.  1.
         11   -1    0    0    0    0 -0.00000000000E+00 -0.00000000000E+00 -0.45593999997E+02  0.45594000000E+02  0.51100000000E-03 0. -1.
    9900012    2    1    2    0    0  0.32104532030E+01  0.12007576311E+02  0.14006792497E+02  0.72461571224E+02  0.70000001211E+02 0.  0.
         12    1    1    2    0    0 -0.32104532030E+01 -0.12007576311E+02 -0.14006792497E+02  0.18726428776E+02  0.00000000000E+00 0. -1.
         11    1    3    3    0    0 -0.59881856860E+01 -0.18676329769E+01  0.15190344001E+02  0.16434505526E+02  0.51100000000E-03 0. -1.
        -11    1    3    3    0    0  0.18418435164E+02 -0.14118029279E+02  0.89328518568E+01  0.24866711627E+02  0.51100000000E-03 0.  1.
         12    1    3    3    0    0 -0.92197962747E+01  0.27993238567E+02 -0.10116403361E+02  0.31160354070E+02  0.00000000000E+00 0. -1.
</event>
<event>
 7    1  0.1692604E-013  0.7246152E+02  0.7816164E-02  0.1226708E+00
        -11   -1    0    0    0    0  0.00000000000E+00  0.00000000000E+00  0.45593999997E+02  0.45594000000E+02  0.51100000000E-03 0. -1.
         11   -1    0    0    0    0 -0.00000000000E+00 -0.00000000000E+00 -0.45593999997E+02  0.45594000000E+02  0.51100000000E-03 0.  1.
    9900012    2    1    2    0    0 -0.13969921240E+02 -0.69059739453E+01 -0.10384114369E+02  0.72461521238E+02  0.69999936095E+02 0.  0.
         12    1    1    2    0    0  0.13969921240E+02  0.69059739453E+01  0.10384114369E+02  0.18726478762E+02  0.00000000000E+00 0. -1.
         11    1    3    3    0    0 -0.20069903874E+01 -0.24431309130E+01 -0.26898137537E+01  0.41511441030E+01  0.51100000000E-03 0. -1.
        -11    1    3    3    0    0 -0.43215129031E+01 -0.16257185430E+02 -0.34310245993E+02  0.38212099291E+02  0.51100000000E-03 0.  1.
         12    1    3    3    0    0 -0.76414179496E+01  0.11794342397E+02  0.26615945377E+02  0.30098277844E+02  0.00000000000E+00 0. -1.
</event>
<event>
 7    1  0.1692604E-013  0.7246160E+02  0.7816164E-02  0.1226708E+00
        -11   -1    0    0    0    0  0.00000000000E+00  0.00000000000E+00  0.45593999997E+02  0.45594000000E+02  0.51100000000E-03 0. -1.
         11   -1    0    0    0    0 -0.00000000000E+00 -0.00000000000E+00 -0.45593999997E+02  0.45594000000E+02  0.51100000000E-03 0.  1.
    9900012    2    1    2    0    0  0.53004200128E+01  0.65099767321E+01 -0.16739292113E+02  0.72461597521E+02  0.70000035468E+02 0.  0.
         12    1    1    2    0    0 -0.53004200128E+01 -0.65099767321E+01  0.16739292113E+02  0.18726402479E+02  0.00000000000E+00 0. -1.
         11    1    3    3    0    0 -0.10316016965E+02 -0.48901126326E+01  0.93181414262E+01  0.14736389228E+02  0.51100000000E-03 0. -1.
        -11    1    3    3    0    0  0.14197880200E+02 -0.16994104350E+02 -0.60338017177E+01  0.22951822330E+02  0.51100000000E-03 0.  1.
         12    1    3    3    0    0  0.14185567777E+01  0.28394193715E+02 -0.20023631821E+02  0.34773385963E+02  0.00000000000E+00 0. -1.
</event>
<event>
 7    1  0.1692604E-013  0.7246155E+02  0.7816164E-02  0.1226708E+00
        -11   -1    0    0    0    0  0.00000000000E+00  0.00000000000E+00  0.45593999997E+02  0.45594000000E+02  0.51100000000E-03 0.  1.
         11   -1    0    0    0    0 -0.00000000000E+00 -0.00000000000E+00 -0.45593999997E+02  0.45594000000E+02  0.51100000000E-03 0. -1.
    9900012    2    1    2    0    0 -0.13194354952E+02 -0.42578261138E+01  0.12588082945E+02  0.72461550309E+02  0.69999973965E+02 0.  0.
         12    1    1    2    0    0  0.13194354952E+02  0.42578261138E+01 -0.12588082945E+02  0.18726449691E+02  0.00000000000E+00 0. -1.
         11    1    3    3    0    0  0.76791879869E+01  0.12025793085E+02  0.15332652240E+02  0.20944685542E+02  0.51100000000E-03 0. -1.
        -11    1    3    3    0    0  0.43185888280E+01  0.11475247465E+01  0.15316072224E+02  0.15954594672E+02  0.51100000000E-03 0.  1.
        -12    1    3    3    0    0 -0.25192131767E+02 -0.17431143946E+02 -0.18060641519E+02  0.35562270095E+02  0.00000000000E+00 0.  1.
</event>
<event>
 7    1  0.1692604E-013  0.7246159E+02  0.7816164E-02  0.1226708E+00
        -11   -1    0    0    0    0  0.00000000000E+00  0.00000000000E+00  0.45593999997E+02  0.45594000000E+02  0.51100000000E-03 0. -1.
         11   -1    0    0    0    0 -0.00000000000E+00 -0.00000000000E+00 -0.45593999997E+02  0.45594000000E+02  0.51100000000E-03 0.  1.
    9900012    2    1    2    0    0 -0.71923767618E+01  0.17134706191E+02  0.23130338800E+01  0.72461586423E+02  0.70000021010E+02 0.  0.
         12    1    1    2    0    0  0.71923767618E+01 -0.17134706191E+02 -0.23130338800E+01  0.18726413577E+02  0.00000000000E+00 0. -1.
         11    1    3    3    0    0  0.54410183080E+01  0.25194702426E+02 -0.83856496161E+00  0.25789162492E+02  0.51100000000E-03 0. -1.
        -11    1    3    3    0    0 -0.12781777221E+01  0.16916361979E+02 -0.56145984026E+01  0.17869548298E+02  0.51100000000E-03 0.  1.
         12    1    3    3    0    0 -0.11355217348E+02 -0.24976358214E+02  0.87661972441E+01  0.28802875633E+02  0.00000000000E+00 0. -1.
</event>
<event>
 7    1  0.1692604E-013  0.7246158E+02  0.7816164E-02  0.1226708E+00
        -11   -1    0    0    0    0  0.00000000000E+00  0.00000000000E+00  0.45593999997E+02  0.45594000000E+02  0.51100000000E-03 0.  1.
         11   -1    0    0    0    0 -0.00000000000E+00 -0.00000000000E+00 -0.45593999997E+02  0.45594000000E+02  0.51100000000E-03 0. -1.
    9900012    2    1    2    0    0 -0.29333905588E+01 -0.89992108350E+01  0.16158230203E+02  0.72461575378E+02  0.70000006623E+02 0.  0.
         12    1    1    2    0    0  0.29333905588E+01  0.89992108350E+01 -0.16158230203E+02  0.18726424622E+02  0.00000000000E+00 0. -1.
         11    1    3    3    0    0 -0.10448019542E+02 -0.20880751054E+02  0.11643108191E+02  0.26090780853E+02  0.51100000000E-03 0. -1.
        -11    1    3    3    0    0 -0.14419376359E+02  0.89137034968E+01  0.14292909468E+02  0.22173402669E+02  0.51100000000E-03 0.  1.
         12    1    3    3    0    0  0.21934005341E+02  0.29678367223E+01 -0.97777874555E+01  0.24197391856E+02  0.00000000000E+00 0. -1.
</event>
<event>
 7    1  0.1692604E-013  0.7246155E+02  0.7816164E-02  0.1226708E+00
        -11   -1    0    0    0    0  0.00000000000E+00  0.00000000000E+00  0.45593999997E+02  0.45594000000E+02  0.51100000000E-03 0.  1.
         11   -1    0    0    0    0 -0.00000000000E+00 -0.00000000000E+00 -0.45593999997E+02  0.45594000000E+02  0.51100000000E-03 0. -1.
    9900012    2    1    2    0    0  0.28026957100E+01  0.11114625913E+02  0.14808443061E+02  0.72461548165E+02  0.69999971172E+02 0.  0.
         12    1    1    2    0    0 -0.28026957100E+01 -0.11114625913E+02 -0.14808443061E+02  0.18726451835E+02  0.00000000000E+00 0. -1.
         11    1    3    3    0    0  0.24317781878E+02 -0.17514360754E+01  0.17023824555E+02  0.29736049613E+02  0.51100000000E-03 0. -1.
        -11    1    3    3    0    0 -0.47041624327E+00  0.62674698245E+01  0.14003324275E+02  0.15349122466E+02  0.51100000000E-03 0.  1.
        -12    1    3    3    0    0 -0.21044669925E+02  0.65985921640E+01 -0.16218705769E+02  0.27376376087E+02  0.00000000000E+00 0.  1.
</event>
<event>
 7    1  0.1692604E-013  0.7246116E+02  0.7816164E-02  0.1226709E+00
        -11   -1    0    0    0    0  0.00000000000E+00  0.00000000000E+00  0.45593999997E+02  0.45594000000E+02  0.51100000000E-03 0.  1.
         11   -1    0    0    0    0 -0.00000000000E+00 -0.00000000000E+00 -0.45593999997E+02  0.45594000000E+02  0.51100000000E-03 0. -1.
    9900012    2    1    2    0    0  0.12353895966E+02 -0.95800696783E+01  0.10310089397E+02  0.72461163002E+02  0.69999469424E+02 0.  0.
         12    1    1    2    0    0 -0.12353895966E+02  0.95800696783E+01 -0.10310089397E+02  0.18726836998E+02  0.00000000000E+00 0. -1.
         11    1    3    3    0    0  0.38650839381E+01 -0.27632137557E+02 -0.63055518050E+01  0.28604787775E+02  0.51100000000E-03 0. -1.
        -11    1    3    3    0    0  0.16207508057E+02 -0.11925472772E+01 -0.15029041459E+01  0.16320668110E+02  0.51100000000E-03 0.  1.
        -12    1    3    3    0    0 -0.77186960290E+01  0.19244615156E+02  0.18118545348E+02  0.27535707117E+02  0.00000000000E+00 0.  1.
</event>
<event>
 7    1  0.1692604E-013  0.7246158E+02  0.7816164E-02  0.1226708E+00
        -11   -1    0    0    0    0  0.00000000000E+00  0.00000000000E+00  0.45593999997E+02  0.45594000000E+02  0.51100000000E-03 0. -1.
         11   -1    0    0    0    0 -0.00000000000E+00 -0.00000000000E+00 -0.45593999997E+02  0.45594000000E+02  0.51100000000E-03 0.  1.
    9900012    2    1    2    0    0  0.14302844538E+02 -0.34133216064E+01 -0.11595538852E+02  0.72461584231E+02  0.70000018155E+02 0.  0.
         12    1    1    2    0    0 -0.14302844538E+02  0.34133216064E+01  0.11595538852E+02  0.18726415769E+02  0.00000000000E+00 0. -1.
         11    1    3    3    0    0  0.13581601775E+02  0.13112792451E+02  0.59325464884E+01  0.19788894379E+02  0.51100000000E-03 0. -1.
        -11    1    3    3    0    0  0.13790650215E+02  0.11128539547E+02 -0.12473181780E+02  0.21670410466E+02  0.51100000000E-03 0.  1.
        -12    1    3    3    0    0 -0.13069407451E+02 -0.27654653605E+02 -0.50549035608E+01  0.31002279386E+02  0.00000000000E+00 0.  1.
</event>
<event>
 7    1  0.1692604E-013  0.7246157E+02  0.7816164E-02  0.1226708E+00
        -11   -1    0    0    0    0  0.00000000000E+00  0.00000000000E+00  0.45593999997E+02  0.45594000000E+02  0.51100000000E-03 0. -1.
         11   -1    0    0    0    0 -0.00000000000E+00 -0.00000000000E+00 -0.45593999997E+02  0.45594000000E+02  0.51100000000E-03 0.  1.
    9900012    2    1    2    0    0 -0.16107922702E+02  0.95182830791E+01 -0.78494745897E+00  0.72461574045E+02  0.70000004886E+02 0.  0.
         12    1    1    2    0    0  0.16107922702E+02 -0.95182830791E+01  0.78494745897E+00  0.18726425955E+02  0.00000000000E+00 0. -1.
         11    1    3    3    0    0 -0.22228009107E+01  0.29087251073E+01  0.12494819752E+02  0.13020063231E+02  0.51100000000E-03 0.  1.
        -11    1    3    3    0    0  0.84218313086E+01  0.63106410978E+01  0.18101636708E+02  0.20938497688E+02  0.51100000000E-03 0. -1.
        -12    1    3    3    0    0 -0.22306953100E+02  0.29891687402E+00 -0.31381403919E+02  0.38503013126E+02  0.00000000000E+00 0.  1.
</event>
<event>
 7    1  0.1692604E-013  0.7246158E+02  0.7816164E-02  0.1226708E+00
        -11   -1    0    0    0    0  0.00000000000E+00  0.00000000000E+00  0.45593999997E+02  0.45594000000E+02  0.51100000000E-03 0. -1.
         11   -1    0    0    0    0 -0.00000000000E+00 -0.00000000000E+00 -0.45593999997E+02  0.45594000000E+02  0.51100000000E-03 0.  1.
    9900012    2    1    2    0    0 -0.14344361089E+02 -0.42534846920E+01 -0.11261698502E+02  0.72461583359E+02  0.70000017019E+02 0.  0.
         12    1    1    2    0    0  0.14344361089E+02  0.42534846920E+01  0.11261698502E+02  0.18726416641E+02  0.00000000000E+00 0. -1.
         11    1    3    3    0    0 -0.22143674661E+02 -0.13191432147E+02 -0.63681830642E+01  0.26550140591E+02  0.51100000000E-03 0. -1.
        -11    1    3    3    0    0 -0.16643692224E+02  0.12634643651E+02 -0.31095498828E+01  0.21126192553E+02  0.51100000000E-03 0.  1.
         12    1    3    3    0    0  0.24443005796E+02 -0.36966961965E+01 -0.17839655546E+01  0.24785250215E+02  0.00000000000E+00 0. -1.
</event>
<event>
 7    1  0.1692604E-013  0.7246163E+02  0.7816164E-02  0.1226708E+00
        -11   -1    0    0    0    0  0.00000000000E+00  0.00000000000E+00  0.45593999997E+02  0.45594000000E+02  0.51100000000E-03 0.  1.
         11   -1    0    0    0    0 -0.00000000000E+00 -0.00000000000E+00 -0.45593999997E+02  0.45594000000E+02  0.51100000000E-03 0. -1.
    9900012    2    1    2    0    0 -0.78720217854E+01  0.16825230881E+02  0.23706168683E+01  0.72461629675E+02  0.70000077355E+02 0.  0.
         12    1    1    2    0    0  0.78720217854E+01 -0.16825230881E+02 -0.23706168683E+01  0.18726370325E+02  0.00000000000E+00 0. -1.
         11    1    3    3    0    0 -0.22593820060E+02 -0.10396547381E+01  0.78005225361E+01  0.23925085977E+02  0.51100000000E-03 0. -1.
        -11    1    3    3    0    0 -0.11189255412E+02 -0.28864603164E+01  0.65040123387E+01  0.13260213670E+02  0.51100000000E-03 0.  1.
        -12    1    3    3    0    0  0.25911053686E+02  0.20751345936E+02 -0.11933918007E+02  0.35276330028E+02  0.00000000000E+00 0.  1.
</event>
<event>
 7    1  0.1692604E-013  0.7246152E+02  0.7816164E-02  0.1226708E+00
        -11   -1    0    0    0    0  0.00000000000E+00  0.00000000000E+00  0.45593999997E+02  0.45594000000E+02  0.51100000000E-03 0. -1.
         11   -1    0    0    0    0 -0.00000000000E+00 -0.00000000000E+00 -0.45593999997E+02  0.45594000000E+02  0.51100000000E-03 0.  1.
    9900012    2    1    2    0    0  0.69334377404E+01 -0.41919936962E+01 -0.16882996203E+02  0.72461523267E+02  0.69999938738E+02 0.  0.
         12    1    1    2    0    0 -0.69334377404E+01  0.41919936962E+01  0.16882996203E+02  0.18726476733E+02  0.00000000000E+00 0. -1.
         11    1    3    3    0    0 -0.18441987053E+00  0.45802608937E+01  0.73363729922E+01  0.86507323091E+01  0.51100000000E-03 0. -1.
        -11    1    3    3    0    0 -0.19950831845E+02  0.12563869792E+02 -0.15638231276E+02  0.28292062370E+02  0.51100000000E-03 0.  1.
         12    1    3    3    0    0  0.27068689456E+02 -0.21336124381E+02 -0.85811379193E+01  0.35518728588E+02  0.00000000000E+00 0. -1.
</event>
<event>
 7    1  0.1692604E-013  0.7246160E+02  0.7816164E-02  0.1226708E+00
        -11   -1    0    0    0    0  0.00000000000E+00  0.00000000000E+00  0.45593999997E+02  0.45594000000E+02  0.51100000000E-03 0. -1.
         11   -1    0    0    0    0 -0.00000000000E+00 -0.00000000000E+00 -0.45593999997E+02  0.45594000000E+02  0.51100000000E-03 0.  1.
    9900012    2    1    2    0    0 -0.23809381858E+01  0.88916771472E+01 -0.16307895410E+02  0.72461595064E+02  0.70000032267E+02 0.  0.
         12    1    1    2    0    0  0.23809381858E+01 -0.88916771472E+01  0.16307895410E+02  0.18726404936E+02  0.00000000000E+00 0. -1.
         11    1    3    3    0    0  0.32160149312E+01  0.88027000080E+01  0.19009231977E+02  0.21193894877E+02  0.51100000000E-03 0. -1.
        -11    1    3    3    0    0 -0.16715225654E+01  0.11248832919E+02  0.24995643089E+01  0.11643798853E+02  0.51100000000E-03 0.  1.
         12    1    3    3    0    0 -0.39254305516E+01 -0.11159855780E+02 -0.37816691696E+02  0.39623901333E+02  0.00000000000E+00 0. -1.
</event>
<event>
 7    1  0.1692604E-013  0.7246158E+02  0.7816164E-02  0.1226708E+00
        -11   -1    0    0    0    0  0.00000000000E+00  0.00000000000E+00  0.45593999997E+02  0.45594000000E+02  0.51100000000E-03 0.  1.
         11   -1    0    0    0    0 -0.00000000000E+00 -0.00000000000E+00 -0.45593999997E+02  0.45594000000E+02  0.51100000000E-03 0. -1.
    9900012    2    1    2    0    0 -0.10266246356E+02 -0.15537969420E+02  0.19633343253E+01  0.72461575098E+02  0.70000006258E+02 0.  0.
         12    1    1    2    0    0  0.10266246356E+02  0.15537969420E+02 -0.19633343253E+01  0.18726424902E+02  0.00000000000E+00 0. -1.
         11    1    3    3    0    0 -0.50109276307E+01 -0.11632738581E+02 -0.83011915763E+00  0.12693269898E+02  0.51100000000E-03 0. -1.
        -11    1    3    3    0    0 -0.58145533706E+00 -0.30828882794E+02  0.82136999986E+01  0.31909606274E+02  0.51100000000E-03 0.  1.
         12    1    3    3    0    0 -0.46738633880E+01  0.26923651955E+02 -0.54202465157E+01  0.27858698926E+02  0.00000000000E+00 0. -1.
</event>
<event>
 7    1  0.1692604E-013  0.7246162E+02  0.7816164E-02  0.1226708E+00
        -11   -1    0    0    0    0  0.00000000000E+00  0.00000000000E+00  0.45593999997E+02  0.45594000000E+02  0.51100000000E-03 0. -1.
         11   -1    0    0    0    0 -0.00000000000E+00 -0.00000000000E+00 -0.45593999997E+02  0.45594000000E+02  0.51100000000E-03 0.  1.
    9900012    2    1    2    0    0 -0.33337653957E+00 -0.18679254715E+02  0.12850961047E+01  0.72461623719E+02  0.70000069595E+02 0.  0.
         12    1    1    2    0    0  0.33337653957E+00  0.18679254715E+02 -0.12850961047E+01  0.18726376281E+02  0.00000000000E+00 0. -1.
         11    1    3    3    0    0  0.57555549546E+01 -0.25769343479E+02 -0.14353768635E+02  0.30053554706E+02  0.51100000000E-03 0. -1.
        -11    1    3    3    0    0 -0.96800903564E+01 -0.74128332599E+01 -0.78998206559E+01  0.14527952812E+02  0.51100000000E-03 0.  1.
         12    1    3    3    0    0  0.35911588622E+01  0.14502922024E+02  0.23538685395E+02  0.27880116201E+02  0.00000000000E+00 0. -1.
</event>
<event>
 7    1  0.1692604E-013  0.7246157E+02  0.7816164E-02  0.1226708E+00
        -11   -1    0    0    0    0  0.00000000000E+00  0.00000000000E+00  0.45593999997E+02  0.45594000000E+02  0.51100000000E-03 0. -1.
         11   -1    0    0    0    0 -0.00000000000E+00 -0.00000000000E+00 -0.45593999997E+02  0.45594000000E+02  0.51100000000E-03 0.  1.
    9900012    2    1    2    0    0  0.18185934087E+02  0.24203152962E+01  0.37540846252E+01  0.72461567448E+02  0.69999996292E+02 0.  0.
         12    1    1    2    0    0 -0.18185934087E+02 -0.24203152962E+01 -0.37540846252E+01  0.18726432552E+02  0.00000000000E+00 0. -1.
         11    1    3    3    0    0 -0.12081424533E+02 -0.21173869534E+01  0.19112857130E+00  0.12267056560E+02  0.51100000000E-03 0. -1.
        -11    1    3    3    0    0  0.17051694957E+02 -0.44075982695E+01 -0.23143811501E+02  0.29083040324E+02  0.51100000000E-03 0.  1.
         12    1    3    3    0    0  0.13215663663E+02  0.89453005192E+01  0.26706767555E+02  0.31111470564E+02  0.00000000000E+00 0. -1.
</event>
<event>
 7    1  0.1692604E-013  0.7246159E+02  0.7816164E-02  0.1226708E+00
        -11   -1    0    0    0    0  0.00000000000E+00  0.00000000000E+00  0.45593999997E+02  0.45594000000E+02  0.51100000000E-03 0.  1.
         11   -1    0    0    0    0 -0.00000000000E+00 -0.00000000000E+00 -0.45593999997E+02  0.45594000000E+02  0.51100000000E-03 0. -1.
    9900012    2    1    2    0    0  0.55699979902E+01 -0.15813297769E+02  0.83422497328E+01  0.72461590986E+02  0.70000026955E+02 0.  0.
         12    1    1    2    0    0 -0.55699979902E+01  0.15813297769E+02 -0.83422497328E+01  0.18726409014E+02  0.00000000000E+00 0. -1.
         11    1    3    3    0    0  0.24521603412E+01  0.19252683232E+02 -0.95046686769E+00  0.19431476771E+02  0.51100000000E-03 0. -1.
        -11    1    3    3    0    0 -0.89736640319E+01  0.48982506054E+01  0.38460454569E+01  0.10922983616E+02  0.51100000000E-03 0.  1.
         12    1    3    3    0    0  0.12091501681E+02 -0.39964231606E+02  0.54466711436E+01  0.42107130600E+02  0.00000000000E+00 0. -1.
</event>
<event>
 7    1  0.1692604E-013  0.7246162E+02  0.7816164E-02  0.1226708E+00
        -11   -1    0    0    0    0  0.00000000000E+00  0.00000000000E+00  0.45593999997E+02  0.45594000000E+02  0.51100000000E-03 0. -1.
         11   -1    0    0    0    0 -0.00000000000E+00 -0.00000000000E+00 -0.45593999997E+02  0.45594000000E+02  0.51100000000E-03 0.  1.
    9900012    2    1    2    0    0 -0.96251506430E+01 -0.12715526720E+02 -0.98157576042E+01  0.72461621759E+02  0.70000067043E+02 0.  0.
         12    1    1    2    0    0  0.96251506430E+01  0.12715526720E+02  0.98157576042E+01  0.18726378241E+02  0.00000000000E+00 0. -1.
         11    1    3    3    0    0  0.15625038233E+02  0.55821962933E+01 -0.14618991795E+01  0.16656526790E+02  0.51100000000E-03 0. -1.
        -11    1    3    3    0    0 -0.12498679088E+02 -0.31338871284E+02 -0.14266150345E+02  0.36631473875E+02  0.51100000000E-03 0.  1.
         12    1    3    3    0    0 -0.12751509788E+02  0.13041148271E+02  0.59122919205E+01  0.19173621094E+02  0.00000000000E+00 0. -1.
</event>
<event>
 7    1  0.1692604E-013  0.7246187E+02  0.7816164E-02  0.1226707E+00
        -11   -1    0    0    0    0  0.00000000000E+00  0.00000000000E+00  0.45593999997E+02  0.45594000000E+02  0.51100000000E-03 0. -1.
         11   -1    0    0    0    0 -0.00000000000E+00 -0.00000000000E+00 -0.45593999997E+02  0.45594000000E+02  0.51100000000E-03 0.  1.
    9900012    2    1    2    0    0  0.13366841875E+02 -0.80823093276E+01 -0.10328204634E+02  0.72461868612E+02  0.70000388614E+02 0.  0.
         12    1    1    2    0    0 -0.13366841875E+02  0.80823093276E+01  0.10328204634E+02  0.18726131388E+02  0.00000000000E+00 0. -1.
         11    1    3    3    0    0  0.44785369357E+01 -0.27045265160E+01  0.70104493504E+00  0.52785624011E+01  0.51100000000E-03 0. -1.
        -11    1    3    3    0    0  0.18564920719E+02  0.26015753289E+02  0.15699390752E+01  0.31999068884E+02  0.51100000000E-03 0.  1.
         12    1    3    3    0    0 -0.96766157798E+01 -0.31393536100E+02 -0.12599188644E+02  0.35184237327E+02  0.00000000000E+00 0. -1.
</event>
<event>
 7    1  0.1692604E-013  0.7246155E+02  0.7816164E-02  0.1226708E+00
        -11   -1    0    0    0    0  0.00000000000E+00  0.00000000000E+00  0.45593999997E+02  0.45594000000E+02  0.51100000000E-03 0. -1.
         11   -1    0    0    0    0 -0.00000000000E+00 -0.00000000000E+00 -0.45593999997E+02  0.45594000000E+02  0.51100000000E-03 0.  1.
    9900012    2    1    2    0    0  0.16067218626E+02 -0.93360175402E+01  0.23158708284E+01  0.72461548238E+02  0.69999971268E+02 0.  0.
         12    1    1    2    0    0 -0.16067218626E+02  0.93360175402E+01 -0.23158708284E+01  0.18726451762E+02  0.00000000000E+00 0. -1.
         11    1    3    3    0    0  0.93026445887E+01 -0.10680336666E+02 -0.14680710433E+02  0.20399314859E+02  0.51100000000E-03 0. -1.
        -11    1    3    3    0    0  0.81669655574E+01  0.24406120584E+02  0.57722846668E+01  0.26375695610E+02  0.51100000000E-03 0.  1.
         12    1    3    3    0    0 -0.14023915198E+01 -0.23061801459E+02  0.11224296595E+02  0.25686537769E+02  0.00000000000E+00 0. -1.
</event>
<event>
 7    1  0.1692604E-013  0.7246162E+02  0.7816164E-02  0.1226708E+00
        -11   -1    0    0    0    0  0.00000000000E+00  0.00000000000E+00  0.45593999997E+02  0.45594000000E+02  0.51100000000E-03 0. -1.
         11   -1    0    0    0    0 -0.00000000000E+00 -0.00000000000E+00 -0.45593999997E+02  0.45594000000E+02  0.51100000000E-03 0.  1.
    9900012    2    1    2    0    0  0.16023652797E+02  0.42798410538E+00 -0.96817654825E+01  0.72461622822E+02  0.70000068427E+02 0.  0.
         12    1    1    2    0    0 -0.16023652797E+02 -0.42798410538E+00  0.96817654825E+01  0.18726377178E+02  0.00000000000E+00 0. -1.
         11    1    3    3    0    0  0.71690341961E+00  0.26254039765E+02 -0.22708005326E+02  0.34719476676E+02  0.51100000000E-03 0. -1.
        -11    1    3    3    0    0  0.23791359229E+01  0.26924481418E+01 -0.51132182107E+00  0.36291893037E+01  0.51100000000E-03 0.  1.
        -12    1    3    3    0    0  0.12927613454E+02 -0.28518503802E+02  0.13537561665E+02  0.34112956843E+02  0.00000000000E+00 0.  1.
</event>
<event>
 7    1  0.1692604E-013  0.7246162E+02  0.7816164E-02  0.1226708E+00
        -11   -1    0    0    0    0  0.00000000000E+00  0.00000000000E+00  0.45593999997E+02  0.45594000000E+02  0.51100000000E-03 0.  1.
         11   -1    0    0    0    0 -0.00000000000E+00 -0.00000000000E+00 -0.45593999997E+02  0.45594000000E+02  0.51100000000E-03 0. -1.
    9900012    2    1    2    0    0  0.92847920197E+01 -0.43598249657E+01  0.15667228449E+02  0.72461615302E+02  0.70000058631E+02 0.  0.
         12    1    1    2    0    0 -0.92847920197E+01  0.43598249657E+01 -0.15667228449E+02  0.18726384698E+02  0.00000000000E+00 0. -1.
         11    1    3    3    0    0  0.26907485600E+02  0.27976718343E+01  0.83989960204E+01  0.28326363752E+02  0.51100000000E-03 0.  1.
        -11    1    3    3    0    0  0.89814875610E+01 -0.73945683383E+01 -0.73670870286E+01  0.13770284357E+02  0.51100000000E-03 0. -1.
        -12    1    3    3    0    0 -0.26604181141E+02  0.23707153836E+00  0.14635319457E+02  0.30364967194E+02  0.00000000000E+00 0.  1.
</event>
<event>
 7    1  0.1692604E-013  0.7246159E+02  0.7816164E-02  0.1226708E+00
        -11   -1    0    0    0    0  0.00000000000E+00  0.00000000000E+00  0.45593999997E+02  0.45594000000E+02  0.51100000000E-03 0.  1.
         11   -1    0    0    0    0 -0.00000000000E+00 -0.00000000000E+00 -0.45593999997E+02  0.45594000000E+02  0.51100000000E-03 0. -1.
    9900012    2    1    2    0    0 -0.11769935211E+02 -0.13511608351E+02  0.54390865363E+01  0.72461585569E+02  0.70000019898E+02 0.  0.
         12    1    1    2    0    0  0.11769935211E+02  0.13511608351E+02 -0.54390865363E+01  0.18726414431E+02  0.00000000000E+00 0. -1.
         11    1    3    3    0    0  0.63569986724E+00 -0.16068814766E+02 -0.19207564465E+02  0.25050777538E+02  0.51100000000E-03 0. -1.
        -11    1    3    3    0    0 -0.49618033703E+00 -0.18178520122E+01 -0.10175891254E+02  0.10348890952E+02  0.51100000000E-03 0.  1.
        -12    1    3    3    0    0 -0.11909454741E+02  0.43750584276E+01  0.34822542255E+02  0.37061917079E+02  0.00000000000E+00 0.  1.
</event>
<event>
 7    1  0.1692604E-013  0.7246155E+02  0.7816164E-02  0.1226708E+00
        -11   -1    0    0    0    0  0.00000000000E+00  0.00000000000E+00  0.45593999997E+02  0.45594000000E+02  0.51100000000E-03 0.  1.
         11   -1    0    0    0    0 -0.00000000000E+00 -0.00000000000E+00 -0.45593999997E+02  0.45594000000E+02  0.51100000000E-03 0. -1.
    9900012    2    1    2    0    0  0.95476303306E+01  0.64714566512E+01  0.14752729520E+02  0.72461547469E+02  0.69999970265E+02 0.  0.
         12    1    1    2    0    0 -0.95476303306E+01 -0.64714566512E+01 -0.14752729520E+02  0.18726452531E+02  0.00000000000E+00 0. -1.
         11    1    3    3    0    0 -0.33387028457E+01 -0.10442220176E+02 -0.26893020254E+01  0.11288013313E+02  0.51100000000E-03 0. -1.
        -11    1    3    3    0    0 -0.17500976018E+02 -0.47379431824E+01 -0.33822956405E+01  0.18443757514E+02  0.51100000000E-03 0.  1.
         12    1    3    3    0    0  0.30387309194E+02  0.21651620010E+02  0.20824327186E+02  0.42729776642E+02  0.00000000000E+00 0. -1.
</event>
<event>
 7    1  0.1692604E-013  0.7246158E+02  0.7816164E-02  0.1226708E+00
        -11   -1    0    0    0    0  0.00000000000E+00  0.00000000000E+00  0.45593999997E+02  0.45594000000E+02  0.51100000000E-03 0.  1.
         11   -1    0    0    0    0 -0.00000000000E+00 -0.00000000000E+00 -0.45593999997E+02  0.45594000000E+02  0.51100000000E-03 0. -1.
    9900012    2    1    2    0    0 -0.15944199314E+02 -0.80211971057E+01 -0.56675883712E+01  0.72461584093E+02  0.70000017975E+02 0.  0.
         12    1    1    2    0    0  0.15944199314E+02  0.80211971057E+01  0.56675883712E+01  0.18726415907E+02  0.00000000000E+00 0. -1.
         11    1    3    3    0    0  0.13469853264E+01  0.95398654800E+01  0.99546094484E+01  0.13853434678E+02  0.51100000000E-03 0. -1.
        -11    1    3    3    0    0  0.57299427676E+01  0.21988252406E+01  0.14567834890E+02  0.15807874310E+02  0.51100000000E-03 0.  1.
         12    1    3    3    0    0 -0.23021127408E+02 -0.19759887826E+02 -0.30190032710E+02  0.42800275105E+02  0.00000000000E+00 0. -1.
</event>
<event>
 7    1  0.1692604E-013  0.7246151E+02  0.7816164E-02  0.1226708E+00
        -11   -1    0    0    0    0  0.00000000000E+00  0.00000000000E+00  0.45593999997E+02  0.45594000000E+02  0.51100000000E-03 0. -1.
         11   -1    0    0    0    0 -0.00000000000E+00 -0.00000000000E+00 -0.45593999997E+02  0.45594000000E+02  0.51100000000E-03 0.  1.
    9900012    2    1    2    0    0 -0.13804175886E+02 -0.11255468472E+02 -0.57827972589E+01  0.72461505759E+02  0.69999915931E+02 0.  0.
         12    1    1    2    0    0  0.13804175886E+02  0.11255468472E+02  0.57827972589E+01  0.18726494241E+02  0.00000000000E+00 0. -1.
         11    1    3    3    0    0 -0.34365254535E+02  0.12878692385E+02  0.15742305500E+01  0.36732950316E+02  0.51100000000E-03 0. -1.
        -11    1    3    3    0    0  0.59123562112E+01  0.30994510899E+00  0.10589880699E+01  0.60144391204E+01  0.51100000000E-03 0.  1.
        -12    1    3    3    0    0  0.14648722438E+02 -0.24444105966E+02 -0.84160158788E+01  0.29714116323E+02  0.00000000000E+00 0.  1.
</event>
<event>
 7    1  0.1692604E-013  0.7246160E+02  0.7816164E-02  0.1226708E+00
        -11   -1    0    0    0    0  0.00000000000E+00  0.00000000000E+00  0.45593999997E+02  0.45594000000E+02  0.51100000000E-03 0.  1.
         11   -1    0    0    0    0 -0.00000000000E+00 -0.00000000000E+00 -0.45593999997E+02  0.45594000000E+02  0.51100000000E-03 0. -1.
    9900012    2    1    2    0    0 -0.22450196507E+01  0.87501735030E+00  0.18570742216E+02  0.72461595245E+02  0.70000032503E+02 0.  0.
         12    1    1    2    0    0  0.22450196507E+01 -0.87501735030E+00 -0.18570742216E+02  0.18726404755E+02  0.00000000000E+00 0. -1.
         11    1    3    3    0    0  0.44083391816E+01 -0.77907811131E+01 -0.10905180659E+02  0.14108603410E+02  0.51100000000E-03 0. -1.
        -11    1    3    3    0    0  0.54128713432E+00 -0.46586874640E+00 -0.13659647732E+02  0.13678304057E+02  0.51100000000E-03 0.  1.
        -12    1    3    3    0    0 -0.71946459666E+01  0.91316672098E+01  0.43135570607E+02  0.44674687779E+02  0.00000000000E+00 0.  1.
</event>
<event>
 7    1  0.1692604E-013  0.7246163E+02  0.7816164E-02  0.1226708E+00
        -11   -1    0    0    0    0  0.00000000000E+00  0.00000000000E+00  0.45593999997E+02  0.45594000000E+02  0.51100000000E-03 0.  1.
         11   -1    0    0    0    0 -0.00000000000E+00 -0.00000000000E+00 -0.45593999997E+02  0.45594000000E+02  0.51100000000E-03 0. -1.
    9900012    2    1    2    0    0 -0.13578594159E+02 -0.11193175159E+02  0.64040333293E+01  0.72461627357E+02  0.70000074335E+02 0.  0.
         12    1    1    2    0    0  0.13578594159E+02  0.11193175159E+02 -0.64040333293E+01  0.18726372643E+02  0.00000000000E+00 0. -1.
         11    1    3    3    0    0 -0.23122799122E+02  0.56961374164E+00 -0.21347099922E+02  0.31475180292E+02  0.51100000000E-03 0. -1.
        -11    1    3    3    0    0 -0.40461167151E+01 -0.12656338378E+02  0.44791356012E+01  0.14022004764E+02  0.51100000000E-03 0.  1.
         12    1    3    3    0    0  0.13590321678E+02  0.89354947756E+00  0.23271997650E+02  0.26964442301E+02  0.00000000000E+00 0. -1.
</event>
<event>
 7    1  0.1692604E-013  0.7246163E+02  0.7816164E-02  0.1226708E+00
        -11   -1    0    0    0    0  0.00000000000E+00  0.00000000000E+00  0.45593999997E+02  0.45594000000E+02  0.51100000000E-03 0.  1.
         11   -1    0    0    0    0 -0.00000000000E+00 -0.00000000000E+00 -0.45593999997E+02  0.45594000000E+02  0.51100000000E-03 0. -1.
    9900012    2    1    2    0    0  0.10535536872E+02 -0.15338273501E+02  0.21016162695E+01  0.72461629232E+02  0.70000076777E+02 0.  0.
         12    1    1    2    0    0 -0.10535536872E+02  0.15338273501E+02 -0.21016162695E+01  0.18726370768E+02  0.00000000000E+00 0. -1.
         11    1    3    3    0    0  0.24732751468E+02 -0.12731557666E+02 -0.12486428128E+02  0.30491186324E+02  0.51100000000E-03 0. -1.
        -11    1    3    3    0    0  0.30085296831E+01 -0.16623942640E+02  0.87359514481E+01  0.19019031724E+02  0.51100000000E-03 0.  1.
         12    1    3    3    0    0 -0.17205744278E+02  0.14017226805E+02  0.58520929493E+01  0.22951411184E+02  0.00000000000E+00 0. -1.
</event>
<event>
 7    1  0.1692604E-013  0.7246150E+02  0.7816164E-02  0.1226708E+00
        -11   -1    0    0    0    0  0.00000000000E+00  0.00000000000E+00  0.45593999997E+02  0.45594000000E+02  0.51100000000E-03 0. -1.
         11   -1    0    0    0    0 -0.00000000000E+00 -0.00000000000E+00 -0.45593999997E+02  0.45594000000E+02  0.51100000000E-03 0.  1.
    9900012    2    1    2    0    0 -0.15948626679E+01 -0.15117459482E+02  0.10936200429E+02  0.72461504120E+02  0.69999913795E+02 0.  0.
         12    1    1    2    0    0  0.15948626679E+01  0.15117459482E+02 -0.10936200429E+02  0.18726495880E+02  0.00000000000E+00 0. -1.
         11    1    3    3    0    0  0.12418466600E+02 -0.80974436297E+01 -0.38835712632E+01  0.15325437417E+02  0.51100000000E-03 0. -1.
        -11    1    3    3    0    0  0.18129849412E+02 -0.11617226111E+01 -0.51007181055E+01  0.18869508859E+02  0.51100000000E-03 0.  1.
         12    1    3    3    0    0 -0.32143178680E+02 -0.58582932412E+01  0.19920489798E+02  0.38266557843E+02  0.00000000000E+00 0. -1.
</event>
<event>
 7    1  0.1692604E-013  0.7246156E+02  0.7816164E-02  0.1226708E+00
        -11   -1    0    0    0    0  0.00000000000E+00  0.00000000000E+00  0.45593999997E+02  0.45594000000E+02  0.51100000000E-03 0.  1.
         11   -1    0    0    0    0 -0.00000000000E+00 -0.00000000000E+00 -0.45593999997E+02  0.45594000000E+02  0.51100000000E-03 0. -1.
    9900012    2    1    2    0    0  0.16941556142E+02  0.14698914348E+01  0.78423539161E+01  0.72461563599E+02  0.69999991278E+02 0.  0.
         12    1    1    2    0    0 -0.16941556142E+02 -0.14698914348E+01 -0.78423539161E+01  0.18726436401E+02  0.00000000000E+00 0. -1.
         11    1    3    3    0    0 -0.84265918987E+01  0.35127332468E+01  0.13876134151E+02  0.16610052533E+02  0.51100000000E-03 0. -1.
        -11    1    3    3    0    0 -0.14883034570E+02  0.16919609457E-01 -0.43782504549E+01  0.15513674020E+02  0.51100000000E-03 0.  1.
         12    1    3    3    0    0  0.40251182611E+02 -0.20597614215E+01 -0.16555297803E+01  0.40337837046E+02  0.00000000000E+00 0. -1.
</event>
<event>
 7    1  0.1692604E-013  0.7246151E+02  0.7816164E-02  0.1226708E+00
        -11   -1    0    0    0    0  0.00000000000E+00  0.00000000000E+00  0.45593999997E+02  0.45594000000E+02  0.51100000000E-03 0.  1.
         11   -1    0    0    0    0 -0.00000000000E+00 -0.00000000000E+00 -0.45593999997E+02  0.45594000000E+02  0.51100000000E-03 0. -1.
    9900012    2    1    2    0    0 -0.12012009857E+02 -0.12195623026E+02  0.75934134060E+01  0.72461507297E+02  0.69999917935E+02 0.  0.
         12    1    1    2    0    0  0.12012009857E+02  0.12195623026E+02 -0.75934134060E+01  0.18726492703E+02  0.00000000000E+00 0. -1.
         11    1    3    3    0    0  0.47243480840E+01 -0.22178757001E+02  0.17804933885E+01  0.22746139978E+02  0.51100000000E-03 0. -1.
        -11    1    3    3    0    0  0.12972818265E+02  0.16476426026E+00  0.12167837820E+02  0.17787001953E+02  0.51100000000E-03 0.  1.
        -12    1    3    3    0    0 -0.29709176206E+02  0.98183697153E+01 -0.63549178023E+01  0.31928365367E+02  0.00000000000E+00 0.  1.
</event>
<event>
 7    1  0.1692604E-013  0.7246150E+02  0.7816164E-02  0.1226708E+00
        -11   -1    0    0    0    0  0.00000000000E+00  0.00000000000E+00  0.45593999997E+02  0.45594000000E+02  0.51100000000E-03 0. -1.
         11   -1    0    0    0    0 -0.00000000000E+00 -0.00000000000E+00 -0.45593999997E+02  0.45594000000E+02  0.51100000000E-03 0.  1.
    9900012    2    1    2    0    0  0.15211375618E+01 -0.16812745018E+02 -0.81055363179E+01  0.72461495427E+02  0.69999902472E+02 0.  0.
         12    1    1    2    0    0 -0.15211375618E+01  0.16812745018E+02  0.81055363179E+01  0.18726504573E+02  0.00000000000E+00 0. -1.
         11    1    3    3    0    0  0.20804833397E+02  0.20029843450E+01  0.18010201899E+01  0.20978482141E+02  0.51100000000E-03 0. -1.
        -11    1    3    3    0    0 -0.38014629016E+01 -0.16756967266E+02 -0.24621561213E+02  0.30024462510E+02  0.51100000000E-03 0.  1.
         12    1    3    3    0    0 -0.15482232933E+02 -0.20587620964E+01  0.14715004705E+02  0.21458550777E+02  0.00000000000E+00 0. -1.
</event>
<event>
 7    1  0.1692604E-013  0.7246159E+02  0.7816164E-02  0.1226708E+00
        -11   -1    0    0    0    0  0.00000000000E+00  0.00000000000E+00  0.45593999997E+02  0.45594000000E+02  0.51100000000E-03 0.  1.
         11   -1    0    0    0    0 -0.00000000000E+00 -0.00000000000E+00 -0.45593999997E+02  0.45594000000E+02  0.51100000000E-03 0. -1.
    9900012    2    1    2    0    0 -0.18596072347E+02  0.67200641739E+00 -0.21007002742E+01  0.72461589746E+02  0.70000025339E+02 0.  0.
         12    1    1    2    0    0  0.18596072347E+02 -0.67200641739E+00  0.21007002742E+01  0.18726410254E+02  0.00000000000E+00 0. -1.
         11    1    3    3    0    0 -0.21217262447E+02 -0.62200777466E+01  0.18550715729E+01  0.22187899489E+02  0.51100000000E-03 0. -1.
        -11    1    3    3    0    0  0.93489693764E+01 -0.20088736161E+02 -0.37071484795E+01  0.22465607026E+02  0.51100000000E-03 0.  1.
         12    1    3    3    0    0 -0.67277792760E+01  0.26980820325E+02 -0.24862336762E+00  0.27808083231E+02  0.00000000000E+00 0. -1.
</event>
<event>
 7    1  0.1692604E-013  0.7246156E+02  0.7816164E-02  0.1226708E+00
        -11   -1    0    0    0    0  0.00000000000E+00  0.00000000000E+00  0.45593999997E+02  0.45594000000E+02  0.51100000000E-03 0.  1.
         11   -1    0    0    0    0 -0.00000000000E+00 -0.00000000000E+00 -0.45593999997E+02  0.45594000000E+02  0.51100000000E-03 0. -1.
    9900012    2    1    2    0    0 -0.44798937080E+01  0.15145836576E+02  0.10060495829E+02  0.72461564419E+02  0.69999992346E+02 0.  0.
         12    1    1    2    0    0  0.44798937080E+01 -0.15145836576E+02 -0.10060495829E+02  0.18726435581E+02  0.00000000000E+00 0. -1.
         11    1    3    3    0    0 -0.20169371339E+02 -0.75317635564E+01 -0.82476280196E+01  0.23055462925E+02  0.51100000000E-03 0. -1.
        -11    1    3    3    0    0  0.14976742901E+01 -0.15353693218E+01  0.21093869318E+02  0.21202634514E+02  0.51100000000E-03 0.  1.
        -12    1    3    3    0    0  0.14191803341E+02  0.24212969455E+02 -0.27857454695E+01  0.28203466980E+02  0.00000000000E+00 0.  1.
</event>
<event>
 7    1  0.1692604E-013  0.7246156E+02  0.7816164E-02  0.1226708E+00
        -11   -1    0    0    0    0  0.00000000000E+00  0.00000000000E+00  0.45593999997E+02  0.45594000000E+02  0.51100000000E-03 0.  1.
         11   -1    0    0    0    0 -0.00000000000E+00 -0.00000000000E+00 -0.45593999997E+02  0.45594000000E+02  0.51100000000E-03 0. -1.
    9900012    2    1    2    0    0  0.50211845891E+01 -0.15261673467E+02  0.96202246900E+01  0.72461556270E+02  0.69999981730E+02 0.  0.
         12    1    1    2    0    0 -0.50211845891E+01  0.15261673467E+02 -0.96202246900E+01  0.18726443730E+02  0.00000000000E+00 0. -1.
         11    1    3    3    0    0 -0.12025978088E+02  0.81006099338E+01  0.65892103226E-01  0.14499943873E+02  0.51100000000E-03 0. -1.
        -11    1    3    3    0    0  0.28992064175E+01 -0.29108884686E+02 -0.11939369181E+02  0.31595586752E+02  0.51100000000E-03 0.  1.
         12    1    3    3    0    0  0.14147956260E+02  0.57466012850E+01  0.21493701767E+02  0.26366025645E+02  0.00000000000E+00 0. -1.
</event>
<event>
 7    1  0.1692604E-013  0.7246170E+02  0.7816164E-02  0.1226708E+00
        -11   -1    0    0    0    0  0.00000000000E+00  0.00000000000E+00  0.45593999997E+02  0.45594000000E+02  0.51100000000E-03 0.  1.
         11   -1    0    0    0    0 -0.00000000000E+00 -0.00000000000E+00 -0.45593999997E+02  0.45594000000E+02  0.51100000000E-03 0. -1.
    9900012    2    1    2    0    0 -0.24764852385E+01  0.15173402053E+02  0.10691542116E+02  0.72461703468E+02  0.70000173483E+02 0.  0.
         12    1    1    2    0    0  0.24764852385E+01 -0.15173402053E+02 -0.10691542116E+02  0.18726296532E+02  0.00000000000E+00 0. -1.
         11    1    3    3    0    0 -0.15286716810E+01  0.21918409718E+02  0.34425019528E+01  0.22239701923E+02  0.51100000000E-03 0. -1.
        -11    1    3    3    0    0 -0.42721569544E+01  0.20904706163E+02  0.67134053642E+01  0.22368010118E+02  0.51100000000E-03 0.  1.
        -12    1    3    3    0    0  0.33243433969E+01 -0.27649713828E+02  0.53563479912E+00  0.27853991427E+02  0.00000000000E+00 0.  1.
</event>
<event>
 7    1  0.1692604E-013  0.7246154E+02  0.7816164E-02  0.1226708E+00
        -11   -1    0    0    0    0  0.00000000000E+00  0.00000000000E+00  0.45593999997E+02  0.45594000000E+02  0.51100000000E-03 0.  1.
         11   -1    0    0    0    0 -0.00000000000E+00 -0.00000000000E+00 -0.45593999997E+02  0.45594000000E+02  0.51100000000E-03 0. -1.
    9900012    2    1    2    0    0  0.24527953869E+01  0.13720980603E+02 -0.12505948902E+02  0.72461540862E+02  0.69999961658E+02 0.  0.
         12    1    1    2    0    0 -0.24527953869E+01 -0.13720980603E+02  0.12505948902E+02  0.18726459138E+02  0.00000000000E+00 0. -1.
         11    1    3    3    0    0  0.12669881970E+02  0.62011845489E+01 -0.29163036801E+02  0.32395421199E+02  0.51100000000E-03 0. -1.
        -11    1    3    3    0    0  0.65865834806E+01 -0.10131052779E+01 -0.71027300507E+01  0.97395194279E+01  0.51100000000E-03 0.  1.
        -12    1    3    3    0    0 -0.16803670064E+02  0.85329013322E+01  0.23759817950E+02  0.30326600234E+02  0.00000000000E+00 0.  1.
</event>
<event>
 7    1  0.1692604E-013  0.7246158E+02  0.7816164E-02  0.1226708E+00
        -11   -1    0    0    0    0  0.00000000000E+00  0.00000000000E+00  0.45593999997E+02  0.45594000000E+02  0.51100000000E-03 0. -1.
         11   -1    0    0    0    0 -0.00000000000E+00 -0.00000000000E+00 -0.45593999997E+02  0.45594000000E+02  0.51100000000E-03 0.  1.
    9900012    2    1    2    0    0  0.18123688646E+02 -0.39759927551E+01 -0.25302908207E+01  0.72461575350E+02  0.70000006586E+02 0.  0.
         12    1    1    2    0    0 -0.18123688646E+02  0.39759927551E+01  0.25302908207E+01  0.18726424650E+02  0.00000000000E+00 0. -1.
         11    1    3    3    0    0  0.28328436152E+02 -0.17412535913E+02  0.19760618109E+02  0.38680469621E+02  0.51100000000E-03 0. -1.
        -11    1    3    3    0    0 -0.28744035543E+01 -0.10223436174E+01  0.26458378293E+01  0.40382967134E+01  0.51100000000E-03 0.  1.
        -12    1    3    3    0    0 -0.73303439517E+01  0.14458886775E+02 -0.24936746759E+02  0.29742809016E+02  0.00000000000E+00 0.  1.
</event>
<event>
 7    1  0.1692604E-013  0.7246157E+02  0.7816164E-02  0.1226708E+00
        -11   -1    0    0    0    0  0.00000000000E+00  0.00000000000E+00  0.45593999997E+02  0.45594000000E+02  0.51100000000E-03 0.  1.
         11   -1    0    0    0    0 -0.00000000000E+00 -0.00000000000E+00 -0.45593999997E+02  0.45594000000E+02  0.51100000000E-03 0. -1.
    9900012    2    1    2    0    0 -0.42776808933E+01 -0.15267665136E+02  0.99638866508E+01  0.72461569755E+02  0.69999999297E+02 0.  0.
         12    1    1    2    0    0  0.42776808933E+01  0.15267665136E+02 -0.99638866508E+01  0.18726430245E+02  0.00000000000E+00 0. -1.
         11    1    3    3    0    0 -0.23683756414E+01 -0.98319295647E+01 -0.22093685905E+02  0.24298292106E+02  0.51100000000E-03 0. -1.
        -11    1    3    3    0    0  0.91550755051E+00 -0.16761100568E+02  0.32730964625E+01  0.17102216436E+02  0.51100000000E-03 0.  1.
        -12    1    3    3    0    0 -0.28248128024E+01  0.11325364996E+02  0.28784476093E+02  0.31061061212E+02  0.00000000000E+00 0.  1.
</event>
<event>
 7    1  0.1692604E-013  0.7246151E+02  0.7816164E-02  0.1226708E+00
        -11   -1    0    0    0    0  0.00000000000E+00  0.00000000000E+00  0.45593999997E+02  0.45594000000E+02  0.51100000000E-03 0.  1.
         11   -1    0    0    0    0 -0.00000000000E+00 -0.00000000000E+00 -0.45593999997E+02  0.45594000000E+02  0.51100000000E-03 0. -1.
    9900012    2    1    2    0    0  0.18338446251E+02 -0.23455788968E+01 -0.29800929755E+01  0.72461513265E+02  0.69999925709E+02 0.  0.
         12    1    1    2    0    0 -0.18338446251E+02  0.23455788968E+01  0.29800929755E+01  0.18726486735E+02  0.00000000000E+00 0. -1.
         11    1    3    3    0    0  0.24746547042E+02  0.22954811604E+02 -0.19223348150E+02  0.38843945224E+02  0.51100000000E-03 0. -1.
        -11    1    3    3    0    0 -0.32209118073E+00 -0.66324813299E+01 -0.18755932665E+01  0.69001015705E+01  0.51100000000E-03 0.  1.
        -12    1    3    3    0    0 -0.60860096095E+01 -0.18667909170E+02  0.18118848441E+02  0.26717466470E+02  0.00000000000E+00 0.  1.
</event>
<event>
 7    1  0.1692604E-013  0.7246159E+02  0.7816164E-02  0.1226708E+00
        -11   -1    0    0    0    0  0.00000000000E+00  0.00000000000E+00  0.45593999997E+02  0.45594000000E+02  0.51100000000E-03 0.  1.
         11   -1    0    0    0    0 -0.00000000000E+00 -0.00000000000E+00 -0.45593999997E+02  0.45594000000E+02  0.51100000000E-03 0. -1.
    9900012    2    1    2    0    0 -0.98553958908E+00  0.28361190905E+00  0.18698303161E+02  0.72461594442E+02  0.70000031457E+02 0.  0.
         12    1    1    2    0    0  0.98553958908E+00 -0.28361190905E+00 -0.18698303161E+02  0.18726405558E+02  0.00000000000E+00 0. -1.
         11    1    3    3    0    0 -0.16041250466E+02 -0.30547169127E+01  0.16950330420E+02  0.23536497478E+02  0.51100000000E-03 0.  1.
        -11    1    3    3    0    0 -0.14156378585E+02  0.11230818403E+02  0.42468155197E+01  0.18562590847E+02  0.51100000000E-03 0. -1.
        -12    1    3    3    0    0  0.29212089462E+02 -0.78924895811E+01 -0.24988427779E+01  0.30362506117E+02  0.00000000000E+00 0.  1.
</event>
<event>
 7    1  0.1692604E-013  0.7246157E+02  0.7816164E-02  0.1226708E+00
        -11   -1    0    0    0    0  0.00000000000E+00  0.00000000000E+00  0.45593999997E+02  0.45594000000E+02  0.51100000000E-03 0.  1.
         11   -1    0    0    0    0 -0.00000000000E+00 -0.00000000000E+00 -0.45593999997E+02  0.45594000000E+02  0.51100000000E-03 0. -1.
    9900012    2    1    2    0    0 -0.17627060501E+02 -0.14490708985E+01  0.61535478383E+01  0.72461568964E+02  0.69999998266E+02 0.  0.
         12    1    1    2    0    0  0.17627060501E+02  0.14490708985E+01 -0.61535478383E+01  0.18726431036E+02  0.00000000000E+00 0. -1.
         11    1    3    3    0    0  0.25062202113E+01  0.87011362722E+01 -0.14931285963E+02  0.17462365617E+02  0.51100000000E-03 0. -1.
        -11    1    3    3    0    0 -0.15660443001E+02 -0.11686491421E+02 -0.11097171628E+02  0.22471554800E+02  0.51100000000E-03 0.  1.
        -12    1    3    3    0    0 -0.44728377112E+01  0.15362842505E+01  0.32182005430E+02  0.32527648546E+02  0.00000000000E+00 0.  1.
</event>
<event>
 7    1  0.1692604E-013  0.7246155E+02  0.7816164E-02  0.1226708E+00
        -11   -1    0    0    0    0  0.00000000000E+00  0.00000000000E+00  0.45593999997E+02  0.45594000000E+02  0.51100000000E-03 0. -1.
         11   -1    0    0    0    0 -0.00000000000E+00 -0.00000000000E+00 -0.45593999997E+02  0.45594000000E+02  0.51100000000E-03 0.  1.
    9900012    2    1    2    0    0  0.94385319247E+01  0.16161182896E+02 -0.64057810852E+00  0.72461546577E+02  0.69999969103E+02 0.  0.
         12    1    1    2    0    0 -0.94385319247E+01 -0.16161182896E+02  0.64057810852E+00  0.18726453423E+02  0.00000000000E+00 0. -1.
         11    1    3    3    0    0  0.29517906621E+02  0.13214471813E+02  0.69005795306E+01  0.33068823304E+02  0.51100000000E-03 0. -1.
        -11    1    3    3    0    0 -0.18523491524E+01  0.17372554865E+01 -0.18110886896E+02  0.18288069292E+02  0.51100000000E-03 0.  1.
        -12    1    3    3    0    0 -0.18227025544E+02  0.12094555965E+01  0.10569729257E+02  0.21104653980E+02  0.00000000000E+00 0.  1.
</event>
<event>
 7    1  0.1692604E-013  0.7246155E+02  0.7816164E-02  0.1226708E+00
        -11   -1    0    0    0    0  0.00000000000E+00  0.00000000000E+00  0.45593999997E+02  0.45594000000E+02  0.51100000000E-03 0.  1.
         11   -1    0    0    0    0 -0.00000000000E+00 -0.00000000000E+00 -0.45593999997E+02  0.45594000000E+02  0.51100000000E-03 0. -1.
    9900012    2    1    2    0    0 -0.60298817258E+01  0.15416817529E+02  0.87545444941E+01  0.72461553844E+02  0.69999978570E+02 0.  0.
         12    1    1    2    0    0  0.60298817258E+01 -0.15416817529E+02 -0.87545444941E+01  0.18726446156E+02  0.00000000000E+00 0. -1.
         11    1    3    3    0    0  0.20785913834E+02 -0.54261469371E+01  0.17613583097E+02  0.27780129487E+02  0.51100000000E-03 0. -1.
        -11    1    3    3    0    0 -0.75052032748E+01 -0.17150085395E+00  0.84500382195E+01  0.11303125006E+02  0.51100000000E-03 0.  1.
         12    1    3    3    0    0 -0.19310592285E+02  0.21014465320E+02 -0.17309076823E+02  0.33378299351E+02  0.00000000000E+00 0. -1.
</event>
<event>
 7    1  0.1692604E-013  0.7246155E+02  0.7816164E-02  0.1226708E+00
        -11   -1    0    0    0    0  0.00000000000E+00  0.00000000000E+00  0.45593999997E+02  0.45594000000E+02  0.51100000000E-03 0.  1.
         11   -1    0    0    0    0 -0.00000000000E+00 -0.00000000000E+00 -0.45593999997E+02  0.45594000000E+02  0.51100000000E-03 0. -1.
    9900012    2    1    2    0    0  0.15914039101E+02 -0.45638649277E+01  0.87518302789E+01  0.72461547137E+02  0.69999969833E+02 0.  0.
         12    1    1    2    0    0 -0.15914039101E+02  0.45638649277E+01 -0.87518302789E+01  0.18726452863E+02  0.00000000000E+00 0. -1.
         11    1    3    3    0    0 -0.97055229455E+01 -0.91964116627E+01 -0.21947652541E+01  0.13549470761E+02  0.51100000000E-03 0. -1.
        -11    1    3    3    0    0  0.20556829130E+02 -0.69479426609E+01  0.29402946034E+02  0.36542993403E+02  0.51100000000E-03 0.  1.
         12    1    3    3    0    0  0.50627329171E+01  0.11580489396E+02 -0.18456350501E+02  0.22369082973E+02  0.00000000000E+00 0. -1.
</event>
<event>
 7    1  0.1692604E-013  0.7246155E+02  0.7816164E-02  0.1226708E+00
        -11   -1    0    0    0    0  0.00000000000E+00  0.00000000000E+00  0.45593999997E+02  0.45594000000E+02  0.51100000000E-03 0.  1.
         11   -1    0    0    0    0 -0.00000000000E+00 -0.00000000000E+00 -0.45593999997E+02  0.45594000000E+02  0.51100000000E-03 0. -1.
    9900012    2    1    2    0    0  0.32451838458E+01  0.25274934506E+01  0.18269112423E+02  0.72461550522E+02  0.69999974242E+02 0.  0.
         12    1    1    2    0    0 -0.32451838458E+01 -0.25274934506E+01 -0.18269112423E+02  0.18726449478E+02  0.00000000000E+00 0. -1.
         11    1    3    3    0    0  0.41917827477E+01  0.57188274371E+01 -0.31486941879E+01  0.77582411157E+01  0.51100000000E-03 0. -1.
        -11    1    3    3    0    0  0.28227439769E+02 -0.74210003445E+01  0.16967052723E+01  0.29235909616E+02  0.51100000000E-03 0.  1.
         12    1    3    3    0    0 -0.29174038671E+02  0.42296663580E+01  0.19721101339E+02  0.35467399790E+02  0.00000000000E+00 0. -1.
</event>
<event>
 7    1  0.1692604E-013  0.7246157E+02  0.7816164E-02  0.1226708E+00
        -11   -1    0    0    0    0  0.00000000000E+00  0.00000000000E+00  0.45593999997E+02  0.45594000000E+02  0.51100000000E-03 0. -1.
         11   -1    0    0    0    0 -0.00000000000E+00 -0.00000000000E+00 -0.45593999997E+02  0.45594000000E+02  0.51100000000E-03 0.  1.
    9900012    2    1    2    0    0 -0.30932262074E+00 -0.24385586360E+01 -0.18564403441E+02  0.72461566174E+02  0.69999994632E+02 0.  0.
         12    1    1    2    0    0  0.30932262074E+00  0.24385586360E+01  0.18564403441E+02  0.18726433826E+02  0.00000000000E+00 0. -1.
         11    1    3    3    0    0 -0.77989371066E+01 -0.22651937240E+02 -0.11300070642E+02  0.26488210161E+02  0.51100000000E-03 0. -1.
        -11    1    3    3    0    0 -0.17143827426E+01 -0.11824012206E+02 -0.48391475558E+00  0.11957447327E+02  0.51100000000E-03 0.  1.
        -12    1    3    3    0    0  0.92039972285E+01  0.32037390810E+02 -0.67804180436E+01  0.34015908686E+02  0.00000000000E+00 0.  1.
</event>
<event>
 7    1  0.1692604E-013  0.7246109E+02  0.7816164E-02  0.1226709E+00
        -11   -1    0    0    0    0  0.00000000000E+00  0.00000000000E+00  0.45593999997E+02  0.45594000000E+02  0.51100000000E-03 0.  1.
         11   -1    0    0    0    0 -0.00000000000E+00 -0.00000000000E+00 -0.45593999997E+02  0.45594000000E+02  0.51100000000E-03 0. -1.
    9900012    2    1    2    0    0  0.28229999257E+01 -0.10053478153E+02  0.15545272252E+02  0.72461087790E+02  0.69999371445E+02 0.  0.
         12    1    1    2    0    0 -0.28229999257E+01  0.10053478153E+02 -0.15545272252E+02  0.18726912210E+02  0.00000000000E+00 0. -1.
         11    1    3    3    0    0 -0.46005193890E+01  0.75239292944E+01 -0.50638296376E+01  0.10169398288E+02  0.51100000000E-03 0. -1.
        -11    1    3    3    0    0  0.93451398789E+01 -0.18582056793E+02 -0.15611271954E+02  0.26006466240E+02  0.51100000000E-03 0.  1.
        -12    1    3    3    0    0 -0.19216205642E+01  0.10046493451E+01  0.36220373843E+02  0.36285223262E+02  0.00000000000E+00 0.  1.
</event>
<event>
 7    1  0.1692604E-013  0.7246157E+02  0.7816164E-02  0.1226708E+00
        -11   -1    0    0    0    0  0.00000000000E+00  0.00000000000E+00  0.45593999997E+02  0.45594000000E+02  0.51100000000E-03 0. -1.
         11   -1    0    0    0    0 -0.00000000000E+00 -0.00000000000E+00 -0.45593999997E+02  0.45594000000E+02  0.51100000000E-03 0.  1.
    9900012    2    1    2    0    0 -0.93896796619E+00  0.14820443062E+02 -0.11408422982E+02  0.72461566588E+02  0.69999995172E+02 0.  0.
         12    1    1    2    0    0  0.93896796619E+00 -0.14820443062E+02  0.11408422982E+02  0.18726433412E+02  0.00000000000E+00 0. -1.
         11    1    3    3    0    0  0.70181392991E+01 -0.17105131547E+01 -0.43923975120E+01  0.84541877575E+01  0.51100000000E-03 0. -1.
        -11    1    3    3    0    0  0.23993222085E+02  0.11645100668E+02 -0.15157191075E+02  0.30676106616E+02  0.51100000000E-03 0.  1.
         12    1    3    3    0    0 -0.31950329350E+02  0.48858555485E+01  0.81411656058E+01  0.33331272215E+02  0.00000000000E+00 0. -1.
</event>
<event>
 7    1  0.1692604E-013  0.7246158E+02  0.7816164E-02  0.1226708E+00
        -11   -1    0    0    0    0  0.00000000000E+00  0.00000000000E+00  0.45593999997E+02  0.45594000000E+02  0.51100000000E-03 0. -1.
         11   -1    0    0    0    0 -0.00000000000E+00 -0.00000000000E+00 -0.45593999997E+02  0.45594000000E+02  0.51100000000E-03 0.  1.
    9900012    2    1    2    0    0  0.59523058394E+01  0.14967257143E+02 -0.95514507287E+01  0.72461576363E+02  0.70000007906E+02 0.  0.
         12    1    1    2    0    0 -0.59523058394E+01 -0.14967257143E+02  0.95514507287E+01  0.18726423637E+02  0.00000000000E+00 0. -1.
         11    1    3    3    0    0 -0.13661829284E+02  0.85582479512E+01  0.11651206906E+02  0.19890696569E+02  0.51100000000E-03 0. -1.
        -11    1    3    3    0    0  0.27259929163E+00  0.61326422367E+01 -0.30498143665E+02  0.31109811611E+02  0.51100000000E-03 0.  1.
         12    1    3    3    0    0  0.19341535832E+02  0.27636695523E+00  0.92954860305E+01  0.21461068183E+02  0.00000000000E+00 0. -1.
</event>
<event>
 7    1  0.1692604E-013  0.7246158E+02  0.7816164E-02  0.1226708E+00
        -11   -1    0    0    0    0  0.00000000000E+00  0.00000000000E+00  0.45593999997E+02  0.45594000000E+02  0.51100000000E-03 0. -1.
         11   -1    0    0    0    0 -0.00000000000E+00 -0.00000000000E+00 -0.45593999997E+02  0.45594000000E+02  0.51100000000E-03 0.  1.
    9900012    2    1    2    0    0  0.61901331838E+01  0.99960624259E+00 -0.17645452630E+02  0.72461575888E+02  0.70000007287E+02 0.  0.
         12    1    1    2    0    0 -0.61901331838E+01 -0.99960624259E+00  0.17645452630E+02  0.18726424112E+02  0.00000000000E+00 0. -1.
         11    1    3    3    0    0 -0.23879207010E+02  0.70462295424E+01 -0.63894565354E+01  0.25703910856E+02  0.51100000000E-03 0.  1.
        -11    1    3    3    0    0  0.74938500371E+00  0.70236728463E+01  0.69027706329E+01  0.98763252684E+01  0.51100000000E-03 0. -1.
        -12    1    3    3    0    0  0.29319955190E+02 -0.13070296146E+02 -0.18158766728E+02  0.36881339764E+02  0.00000000000E+00 0.  1.
</event>
<event>
 7    1  0.1692604E-013  0.7246159E+02  0.7816164E-02  0.1226708E+00
        -11   -1    0    0    0    0  0.00000000000E+00  0.00000000000E+00  0.45593999997E+02  0.45594000000E+02  0.51100000000E-03 0.  1.
         11   -1    0    0    0    0 -0.00000000000E+00 -0.00000000000E+00 -0.45593999997E+02  0.45594000000E+02  0.51100000000E-03 0. -1.
    9900012    2    1    2    0    0 -0.10049140523E+02  0.11411417908E+02  0.10930350615E+02  0.72461594887E+02  0.70000032036E+02 0.  0.
         12    1    1    2    0    0  0.10049140523E+02 -0.11411417908E+02 -0.10930350615E+02  0.18726405113E+02  0.00000000000E+00 0. -1.
         11    1    3    3    0    0 -0.29195753871E+02  0.40090327981E+01 -0.10943476529E+02  0.31436031347E+02  0.51100000000E-03 0. -1.
        -11    1    3    3    0    0 -0.72484062002E+01  0.30175681154E+00  0.32431856121E+01  0.79466158075E+01  0.51100000000E-03 0.  1.
        -12    1    3    3    0    0  0.26395019548E+02  0.71006282980E+01  0.18630641531E+02  0.33078947732E+02  0.00000000000E+00 0.  1.
</event>
<event>
 7    1  0.1692604E-013  0.7246158E+02  0.7816164E-02  0.1226708E+00
        -11   -1    0    0    0    0  0.00000000000E+00  0.00000000000E+00  0.45593999997E+02  0.45594000000E+02  0.51100000000E-03 0.  1.
         11   -1    0    0    0    0 -0.00000000000E+00 -0.00000000000E+00 -0.45593999997E+02  0.45594000000E+02  0.51100000000E-03 0. -1.
    9900012    2    1    2    0    0 -0.42552969706E+01  0.60676589992E+01  0.17197527400E+02  0.72461575175E+02  0.70000006358E+02 0.  0.
         12    1    1    2    0    0  0.42552969706E+01 -0.60676589992E+01 -0.17197527400E+02  0.18726424825E+02  0.00000000000E+00 0. -1.
         11    1    3    3    0    0  0.14937818778E+01 -0.37804499995E+00 -0.15852966771E+02  0.15927675851E+02  0.51100000000E-03 0. -1.
        -11    1    3    3    0    0 -0.14593454301E+02  0.20939103349E+02  0.89365341394E+01  0.27042126399E+02  0.51100000000E-03 0.  1.
        -12    1    3    3    0    0  0.88443754526E+01 -0.14493399349E+02  0.24113960032E+02  0.29491772925E+02  0.00000000000E+00 0.  1.
</event>
<event>
 7    1  0.1692604E-013  0.7246126E+02  0.7816164E-02  0.1226709E+00
        -11   -1    0    0    0    0  0.00000000000E+00  0.00000000000E+00  0.45593999997E+02  0.45594000000E+02  0.51100000000E-03 0.  1.
         11   -1    0    0    0    0 -0.00000000000E+00 -0.00000000000E+00 -0.45593999997E+02  0.45594000000E+02  0.51100000000E-03 0. -1.
    9900012    2    1    2    0    0  0.12203519504E+02 -0.13912677280E+02  0.28639776982E+01  0.72461258542E+02  0.69999593884E+02 0.  0.
         12    1    1    2    0    0 -0.12203519504E+02  0.13912677280E+02 -0.28639776982E+01  0.18726741458E+02  0.00000000000E+00 0. -1.
         11    1    3    3    0    0  0.31657622817E+01  0.12522323100E+02  0.16604971002E+02  0.21037007603E+02  0.51100000000E-03 0. -1.
        -11    1    3    3    0    0 -0.15301975821E+02 -0.95410068417E+01  0.15198903942E+01  0.18096721876E+02  0.51100000000E-03 0.  1.
         12    1    3    3    0    0  0.24339733043E+02 -0.16893993538E+02 -0.15260883698E+02  0.33327529064E+02  0.00000000000E+00 0. -1.
</event>
<event>
 7    1  0.1692604E-013  0.7246154E+02  0.7816164E-02  0.1226708E+00
        -11   -1    0    0    0    0  0.00000000000E+00  0.00000000000E+00  0.45593999997E+02  0.45594000000E+02  0.51100000000E-03 0.  1.
         11   -1    0    0    0    0 -0.00000000000E+00 -0.00000000000E+00 -0.45593999997E+02  0.45594000000E+02  0.51100000000E-03 0. -1.
    9900012    2    1    2    0    0  0.44587192642E+01  0.18000601496E+02  0.26035621902E+01  0.72461538301E+02  0.69999958322E+02 0.  0.
         12    1    1    2    0    0 -0.44587192642E+01 -0.18000601496E+02 -0.26035621902E+01  0.18726461699E+02  0.00000000000E+00 0. -1.
         11    1    3    3    0    0  0.76954035088E+01  0.45217855769E+01 -0.19047845539E+02  0.21035355949E+02  0.51100000000E-03 0. -1.
        -11    1    3    3    0    0  0.12077153927E+02  0.17816316699E+02 -0.33553663382E+01  0.21783876405E+02  0.51100000000E-03 0.  1.
        -12    1    3    3    0    0 -0.15313838172E+02 -0.43375007800E+01  0.25006774067E+02  0.29642305946E+02  0.00000000000E+00 0.  1.
</event>
<event>
 7    1  0.1692604E-013  0.7246163E+02  0.7816164E-02  0.1226708E+00
        -11   -1    0    0    0    0  0.00000000000E+00  0.00000000000E+00  0.45593999997E+02  0.45594000000E+02  0.51100000000E-03 0.  1.
         11   -1    0    0    0    0 -0.00000000000E+00 -0.00000000000E+00 -0.45593999997E+02  0.45594000000E+02  0.51100000000E-03 0. -1.
    9900012    2    1    2    0    0  0.24155377999E+01 -0.18564630896E+02  0.44334647961E+00  0.72461630911E+02  0.70000078965E+02 0.  0.
         12    1    1    2    0    0 -0.24155377999E+01  0.18564630896E+02 -0.44334647961E+00  0.18726369089E+02  0.00000000000E+00 0. -1.
         11    1    3    3    0    0 -0.67603501554E+01 -0.78476869146E+01  0.59435346584E+01  0.11942115752E+02  0.51100000000E-03 0. -1.
        -11    1    3    3    0    0  0.97229434182E+01  0.17327732721E+02  0.15729197755E+02  0.25341539264E+02  0.51100000000E-03 0.  1.
         12    1    3    3    0    0 -0.54705546282E+00 -0.28044676702E+02 -0.21229385933E+02  0.35177975896E+02  0.00000000000E+00 0. -1.
</event>
<event>
 7    1  0.1692604E-013  0.7246166E+02  0.7816164E-02  0.1226708E+00
        -11   -1    0    0    0    0  0.00000000000E+00  0.00000000000E+00  0.45593999997E+02  0.45594000000E+02  0.51100000000E-03 0.  1.
         11   -1    0    0    0    0 -0.00000000000E+00 -0.00000000000E+00 -0.45593999997E+02  0.45594000000E+02  0.51100000000E-03 0. -1.
    9900012    2    1    2    0    0  0.10248195150E+02  0.59321609140E+00  0.15662000891E+02  0.72461663437E+02  0.70000121335E+02 0.  0.
         12    1    1    2    0    0 -0.10248195150E+02 -0.59321609140E+00 -0.15662000891E+02  0.18726336563E+02  0.00000000000E+00 0. -1.
         11    1    3    3    0    0  0.19664843915E+02 -0.49939566268E+01  0.22846891291E+02  0.30555296283E+02  0.51100000000E-03 0. -1.
        -11    1    3    3    0    0  0.11802763343E+02 -0.14976416927E+00  0.88037400775E+01  0.14725267110E+02  0.51100000000E-03 0.  1.
         12    1    3    3    0    0 -0.21219412109E+02  0.57369368875E+01 -0.15988630477E+02  0.27181100044E+02  0.00000000000E+00 0. -1.
</event>
<event>
 7    1  0.1692604E-013  0.7246152E+02  0.7816164E-02  0.1226708E+00
        -11   -1    0    0    0    0  0.00000000000E+00  0.00000000000E+00  0.45593999997E+02  0.45594000000E+02  0.51100000000E-03 0.  1.
         11   -1    0    0    0    0 -0.00000000000E+00 -0.00000000000E+00 -0.45593999997E+02  0.45594000000E+02  0.51100000000E-03 0. -1.
    9900012    2    1    2    0    0 -0.48690323984E+01  0.17166676143E+02 -0.56814553344E+01  0.72461516588E+02  0.69999930037E+02 0.  0.
         12    1    1    2    0    0  0.48690323984E+01 -0.17166676143E+02  0.56814553344E+01  0.18726483412E+02  0.00000000000E+00 0. -1.
         11    1    3    3    0    0  0.34505748792E+01 -0.46172356434E+00 -0.16920605309E+01  0.38707524782E+01  0.51100000000E-03 0. -1.
        -11    1    3    3    0    0  0.28762045633E+02  0.47710591666E+01 -0.32578120464E+01  0.29336523553E+02  0.51100000000E-03 0.  1.
         12    1    3    3    0    0 -0.37081652911E+02  0.12857340540E+02 -0.73158275719E+00  0.39254240557E+02  0.00000000000E+00 0. -1.
</event>
<event>
 7    1  0.1692604E-013  0.7246121E+02  0.7816164E-02  0.1226709E+00
        -11   -1    0    0    0    0  0.00000000000E+00  0.00000000000E+00  0.45593999997E+02  0.45594000000E+02  0.51100000000E-03 0.  1.
         11   -1    0    0    0    0 -0.00000000000E+00 -0.00000000000E+00 -0.45593999997E+02  0.45594000000E+02  0.51100000000E-03 0. -1.
    9900012    2    1    2    0    0 -0.16395695444E+02 -0.46799722262E+01 -0.77441273672E+01  0.72461214963E+02  0.69999537114E+02 0.  0.
         12    1    1    2    0    0  0.16395695444E+02  0.46799722262E+01  0.77441273672E+01  0.18726785037E+02  0.00000000000E+00 0. -1.
         11    1    3    3    0    0 -0.13044735031E+01 -0.12733110500E+02 -0.88342905662E+01  0.15552441744E+02  0.51100000000E-03 0. -1.
        -11    1    3    3    0    0 -0.26110911301E+02 -0.13193711567E+02 -0.94680099289E+01  0.30748933740E+02  0.51100000000E-03 0.  1.
        -12    1    3    3    0    0  0.11019689360E+02  0.21246849841E+02  0.10558173128E+02  0.26159839479E+02  0.00000000000E+00 0.  1.
</event>
<event>
 7    1  0.1692604E-013  0.7246161E+02  0.7816164E-02  0.1226708E+00
        -11   -1    0    0    0    0  0.00000000000E+00  0.00000000000E+00  0.45593999997E+02  0.45594000000E+02  0.51100000000E-03 0.  1.
         11   -1    0    0    0    0 -0.00000000000E+00 -0.00000000000E+00 -0.45593999997E+02  0.45594000000E+02  0.51100000000E-03 0. -1.
    9900012    2    1    2    0    0  0.18228242514E+02  0.13490807821E+01  0.40729264859E+01  0.72461612888E+02  0.70000055486E+02 0.  0.
         12    1    1    2    0    0 -0.18228242514E+02 -0.13490807821E+01 -0.40729264859E+01  0.18726387112E+02  0.00000000000E+00 0. -1.
         11    1    3    3    0    0  0.14341418863E+01 -0.11926665619E+00 -0.20568886363E+01  0.25103343619E+01  0.51100000000E-03 0. -1.
        -11    1    3    3    0    0  0.22433862539E+02 -0.22653960006E+02  0.23575489999E+02  0.39652034265E+02  0.51100000000E-03 0.  1.
         12    1    3    3    0    0 -0.56397619105E+01  0.24122307445E+02 -0.17445674877E+02  0.30299244261E+02  0.00000000000E+00 0. -1.
</event>
<event>
 7    1  0.1692604E-013  0.7246156E+02  0.7816164E-02  0.1226708E+00
        -11   -1    0    0    0    0  0.00000000000E+00  0.00000000000E+00  0.45593999997E+02  0.45594000000E+02  0.51100000000E-03 0.  1.
         11   -1    0    0    0    0 -0.00000000000E+00 -0.00000000000E+00 -0.45593999997E+02  0.45594000000E+02  0.51100000000E-03 0. -1.
    9900012    2    1    2    0    0 -0.14976076845E+02  0.91471077055E+01  0.65365989287E+01  0.72461559265E+02  0.69999985632E+02 0.  0.
         12    1    1    2    0    0  0.14976076845E+02 -0.91471077055E+01 -0.65365989287E+01  0.18726440735E+02  0.00000000000E+00 0. -1.
         11    1    3    3    0    0 -0.11803698657E+02  0.60678591201E+01  0.23510319124E+01  0.13478633744E+02  0.51100000000E-03 0. -1.
        -11    1    3    3    0    0 -0.11767300896E+02  0.29117275949E+02  0.27531638617E+01  0.31525625142E+02  0.51100000000E-03 0.  1.
         12    1    3    3    0    0  0.85949227084E+01 -0.26038027363E+02  0.14324031546E+01  0.27457300380E+02  0.00000000000E+00 0. -1.
</event>
<event>
 7    1  0.1692604E-013  0.7246156E+02  0.7816164E-02  0.1226708E+00
        -11   -1    0    0    0    0  0.00000000000E+00  0.00000000000E+00  0.45593999997E+02  0.45594000000E+02  0.51100000000E-03 0.  1.
         11   -1    0    0    0    0 -0.00000000000E+00 -0.00000000000E+00 -0.45593999997E+02  0.45594000000E+02  0.51100000000E-03 0. -1.
    9900012    2    1    2    0    0  0.30831853579E+01  0.17818941546E+02  0.48640209835E+01  0.72461563876E+02  0.69999991639E+02 0.  0.
         12    1    1    2    0    0 -0.30831853579E+01 -0.17818941546E+02 -0.48640209835E+01  0.18726436124E+02  0.00000000000E+00 0. -1.
         11    1    3    3    0    0 -0.13576150480E+01 -0.14896541650E+02  0.15740844491E+02  0.21714609306E+02  0.51100000000E-03 0. -1.
        -11    1    3    3    0    0  0.10206726725E+02 -0.49673642153E+01 -0.38276230875E+01  0.11979260263E+02  0.51100000000E-03 0.  1.
        -12    1    3    3    0    0 -0.57659263196E+01  0.37682847411E+02 -0.70492004204E+01  0.38767694307E+02  0.00000000000E+00 0.  1.
</event>
<event>
 7    1  0.1692604E-013  0.7246157E+02  0.7816164E-02  0.1226708E+00
        -11   -1    0    0    0    0  0.00000000000E+00  0.00000000000E+00  0.45593999997E+02  0.45594000000E+02  0.51100000000E-03 0. -1.
         11   -1    0    0    0    0 -0.00000000000E+00 -0.00000000000E+00 -0.45593999997E+02  0.45594000000E+02  0.51100000000E-03 0.  1.
    9900012    2    1    2    0    0 -0.14796162381E+01  0.18629300118E+02  0.11996459340E+01  0.72461568480E+02  0.69999997636E+02 0.  0.
         12    1    1    2    0    0  0.14796162381E+01 -0.18629300118E+02 -0.11996459340E+01  0.18726431520E+02  0.00000000000E+00 0. -1.
         11    1    3    3    0    0 -0.27964651104E+00 -0.15232749019E+02  0.97290147531E+01  0.18076741221E+02  0.51100000000E-03 0. -1.
        -11    1    3    3    0    0 -0.69418506245E+00 -0.72460879324E+01 -0.11010030371E+02  0.13198804955E+02  0.51100000000E-03 0.  1.
        -12    1    3    3    0    0 -0.50578466460E+00  0.41108137070E+02  0.24806615515E+01  0.41186022304E+02  0.00000000000E+00 0.  1.
</event>
<event>
 7    1  0.1692604E-013  0.7246157E+02  0.7816164E-02  0.1226708E+00
        -11   -1    0    0    0    0  0.00000000000E+00  0.00000000000E+00  0.45593999997E+02  0.45594000000E+02  0.51100000000E-03 0.  1.
         11   -1    0    0    0    0 -0.00000000000E+00 -0.00000000000E+00 -0.45593999997E+02  0.45594000000E+02  0.51100000000E-03 0. -1.
    9900012    2    1    2    0    0  0.11030628660E+02  0.51341487208E+01  0.14235337641E+02  0.72461572432E+02  0.70000002784E+02 0.  0.
         12    1    1    2    0    0 -0.11030628660E+02 -0.51341487208E+01 -0.14235337641E+02  0.18726427568E+02  0.00000000000E+00 0. -1.
         11    1    3    3    0    0  0.35615344524E+01  0.13331961529E+02 -0.16230727964E+02  0.21304043193E+02  0.51100000000E-03 0. -1.
        -11    1    3    3    0    0  0.11642408885E+02  0.11125845943E+02  0.26477311415E+02  0.30989968581E+02  0.51100000000E-03 0.  1.
         12    1    3    3    0    0 -0.41733146772E+01 -0.19323658751E+02  0.39887541899E+01  0.20167560658E+02  0.00000000000E+00 0. -1.
</event>
<event>
 7    1  0.1692604E-013  0.7246154E+02  0.7816164E-02  0.1226708E+00
        -11   -1    0    0    0    0  0.00000000000E+00  0.00000000000E+00  0.45593999997E+02  0.45594000000E+02  0.51100000000E-03 0. -1.
         11   -1    0    0    0    0 -0.00000000000E+00 -0.00000000000E+00 -0.45593999997E+02  0.45594000000E+02  0.51100000000E-03 0.  1.
    9900012    2    1    2    0    0 -0.17778045005E+02 -0.13524330588E+01 -0.57264524579E+01  0.72461542322E+02  0.69999963561E+02 0.  0.
         12    1    1    2    0    0  0.17778045005E+02  0.13524330588E+01  0.57264524579E+01  0.18726457678E+02  0.00000000000E+00 0. -1.
         11    1    3    3    0    0  0.71542715809E+01  0.24189900658E+01 -0.67639843746E+01  0.10138372634E+02  0.51100000000E-03 0. -1.
        -11    1    3    3    0    0 -0.23829781051E+02  0.10863148302E+02 -0.22538673842E+02  0.34552254265E+02  0.51100000000E-03 0.  1.
         12    1    3    3    0    0 -0.11025355351E+01 -0.14634571426E+02  0.23576205759E+02  0.27770915423E+02  0.00000000000E+00 0. -1.
</event>
<event>
 7    1  0.1692604E-013  0.7246206E+02  0.7816164E-02  0.1226707E+00
        -11   -1    0    0    0    0  0.00000000000E+00  0.00000000000E+00  0.45593999997E+02  0.45594000000E+02  0.51100000000E-03 0.  1.
         11   -1    0    0    0    0 -0.00000000000E+00 -0.00000000000E+00 -0.45593999997E+02  0.45594000000E+02  0.51100000000E-03 0. -1.
    9900012    2    1    2    0    0  0.15203096394E+02  0.89762812295E+01  0.62412482953E+01  0.72462056901E+02  0.70000633892E+02 0.  0.
         12    1    1    2    0    0 -0.15203096394E+02 -0.89762812295E+01 -0.62412482953E+01  0.18725943099E+02  0.00000000000E+00 0. -1.
         11    1    3    3    0    0  0.70825122849E+01  0.26683666792E+02 -0.25886365423E+01  0.27728705219E+02  0.51100000000E-03 0. -1.
        -11    1    3    3    0    0  0.87398303687E+01  0.10595131666E+02 -0.29886794297E+01  0.14056089601E+02  0.51100000000E-03 0.  1.
         12    1    3    3    0    0 -0.61924625983E+00 -0.28302517228E+02  0.11818564267E+02  0.30677262080E+02  0.00000000000E+00 0. -1.
</event>
<event>
 7    1  0.1692604E-013  0.7246158E+02  0.7816164E-02  0.1226708E+00
        -11   -1    0    0    0    0  0.00000000000E+00  0.00000000000E+00  0.45593999997E+02  0.45594000000E+02  0.51100000000E-03 0.  1.
         11   -1    0    0    0    0 -0.00000000000E+00 -0.00000000000E+00 -0.45593999997E+02  0.45594000000E+02  0.51100000000E-03 0. -1.
    9900012    2    1    2    0    0 -0.17367106098E+02 -0.62776466225E+01  0.31070285838E+01  0.72461578880E+02  0.70000011185E+02 0.  0.
         12    1    1    2    0    0  0.17367106098E+02  0.62776466225E+01 -0.31070285838E+01  0.18726421120E+02  0.00000000000E+00 0. -1.
         11    1    3    3    0    0 -0.43296132054E+01 -0.26886248907E+02 -0.21503533833E+02  0.34698961056E+02  0.51100000000E-03 0. -1.
        -11    1    3    3    0    0 -0.20296719398E+01 -0.54981705325E+00 -0.13581018299E+01  0.25032594386E+01  0.51100000000E-03 0.  1.
        -12    1    3    3    0    0 -0.11007820952E+02  0.21158419338E+02  0.25968664247E+02  0.35259358386E+02  0.00000000000E+00 0.  1.
</event>
<event>
 7    1  0.1692604E-013  0.7246119E+02  0.7816164E-02  0.1226709E+00
        -11   -1    0    0    0    0  0.00000000000E+00  0.00000000000E+00  0.45593999997E+02  0.45594000000E+02  0.51100000000E-03 0. -1.
         11   -1    0    0    0    0 -0.00000000000E+00 -0.00000000000E+00 -0.45593999997E+02  0.45594000000E+02  0.51100000000E-03 0.  1.
    9900012    2    1    2    0    0  0.12720497386E+02  0.13517716849E+02 -0.24806333723E+01  0.72461193959E+02  0.69999509752E+02 0.  0.
         12    1    1    2    0    0 -0.12720497386E+02 -0.13517716849E+02  0.24806333723E+01  0.18726806041E+02  0.00000000000E+00 0. -1.
         11    1    3    3    0    0 -0.21821627056E+01  0.22621659641E+02  0.22947836094E+02  0.32297128366E+02  0.51100000000E-03 0. -1.
        -11    1    3    3    0    0  0.90174865613E+01  0.85268898806E+01 -0.86861744876E+01  0.15148351145E+02  0.51100000000E-03 0.  1.
        -12    1    3    3    0    0  0.58851735305E+01 -0.17630832673E+02 -0.16742294979E+02  0.25015714448E+02  0.00000000000E+00 0.  1.
</event>
<event>
 7    1  0.1692604E-013  0.7246154E+02  0.7816164E-02  0.1226708E+00
        -11   -1    0    0    0    0  0.00000000000E+00  0.00000000000E+00  0.45593999997E+02  0.45594000000E+02  0.51100000000E-03 0. -1.
         11   -1    0    0    0    0 -0.00000000000E+00 -0.00000000000E+00 -0.45593999997E+02  0.45594000000E+02  0.51100000000E-03 0.  1.
    9900012    2    1    2    0    0 -0.65523886474E+01  0.20986591503E+01 -0.17416714905E+02  0.72461544774E+02  0.69999966756E+02 0.  0.
         12    1    1    2    0    0  0.65523886474E+01 -0.20986591503E+01  0.17416714905E+02  0.18726455226E+02  0.00000000000E+00 0. -1.
         11    1    3    3    0    0  0.85788541475E+01  0.16442605087E+01 -0.39830760055E+01  0.96002721749E+01  0.51100000000E-03 0. -1.
        -11    1    3    3    0    0 -0.12292093668E+02 -0.47056810800E+01 -0.36633116618E+02  0.38925881295E+02  0.51100000000E-03 0.  1.
        -12    1    3    3    0    0 -0.28391491271E+01  0.51600797216E+01  0.23199477718E+02  0.23935391305E+02  0.00000000000E+00 0.  1.
</event>
<event>
 7    1  0.1692604E-013  0.7246158E+02  0.7816164E-02  0.1226708E+00
        -11   -1    0    0    0    0  0.00000000000E+00  0.00000000000E+00  0.45593999997E+02  0.45594000000E+02  0.51100000000E-03 0. -1.
         11   -1    0    0    0    0 -0.00000000000E+00 -0.00000000000E+00 -0.45593999997E+02  0.45594000000E+02  0.51100000000E-03 0.  1.
    9900012    2    1    2    0    0 -0.25682129917E+01  0.94439172237E+01 -0.15965448332E+02  0.72461579334E+02  0.70000011776E+02 0.  0.
         12    1    1    2    0    0  0.25682129917E+01 -0.94439172237E+01  0.15965448332E+02  0.18726420666E+02  0.00000000000E+00 0. -1.
         11    1    3    3    0    0 -0.12166722345E+00  0.66739908218E+01  0.27203787976E+01  0.72081493787E+01  0.51100000000E-03 0. -1.
        -11    1    3    3    0    0  0.11706419747E+02  0.56365688960E+01 -0.38558262360E+02  0.40688459896E+02  0.51100000000E-03 0.  1.
         12    1    3    3    0    0 -0.14152965515E+02 -0.28666424940E+01  0.19872435230E+02  0.24564970060E+02  0.00000000000E+00 0. -1.
</event>
<event>
 7    1  0.1692604E-013  0.7246168E+02  0.7816164E-02  0.1226708E+00
        -11   -1    0    0    0    0  0.00000000000E+00  0.00000000000E+00  0.45593999997E+02  0.45594000000E+02  0.51100000000E-03 0.  1.
         11   -1    0    0    0    0 -0.00000000000E+00 -0.00000000000E+00 -0.45593999997E+02  0.45594000000E+02  0.51100000000E-03 0. -1.
    9900012    2    1    2    0    0  0.13671352825E+02 -0.10223840579E+02  0.76969026739E+01  0.72461678550E+02  0.70000141023E+02 0.  0.
         12    1    1    2    0    0 -0.13671352825E+02  0.10223840579E+02 -0.76969026739E+01  0.18726321450E+02  0.00000000000E+00 0. -1.
         11    1    3    3    0    0  0.48071555269E+01 -0.30439863239E+02 -0.13089303323E+02  0.33481694701E+02  0.51100000000E-03 0. -1.
        -11    1    3    3    0    0 -0.28765525662E+01 -0.70622981984E+00 -0.36731040996E+01  0.47185812711E+01  0.51100000000E-03 0.  1.
        -12    1    3    3    0    0  0.11740749865E+02  0.20922252480E+02  0.24459310097E+02  0.34261402578E+02  0.00000000000E+00 0.  1.
</event>
<event>
 7    1  0.1692604E-013  0.7246157E+02  0.7816164E-02  0.1226708E+00
        -11   -1    0    0    0    0  0.00000000000E+00  0.00000000000E+00  0.45593999997E+02  0.45594000000E+02  0.51100000000E-03 0.  1.
         11   -1    0    0    0    0 -0.00000000000E+00 -0.00000000000E+00 -0.45593999997E+02  0.45594000000E+02  0.51100000000E-03 0. -1.
    9900012    2    1    2    0    0 -0.12709821444E+02 -0.13669591452E+02  0.15106489174E+01  0.72461565429E+02  0.69999993661E+02 0.  0.
         12    1    1    2    0    0  0.12709821444E+02  0.13669591452E+02 -0.15106489174E+01  0.18726434571E+02  0.00000000000E+00 0. -1.
         11    1    3    3    0    0 -0.62204564750E+01  0.21055575200E+02  0.85135177131E+01  0.23548063824E+02  0.51100000000E-03 0. -1.
        -11    1    3    3    0    0 -0.18043794191E+02 -0.15529487475E+02  0.36850796497E+01  0.24089900422E+02  0.51100000000E-03 0.  1.
         12    1    3    3    0    0  0.11554429222E+02 -0.19195679177E+02 -0.10687948445E+02  0.24823601183E+02  0.00000000000E+00 0. -1.
</event>
<event>
 7    1  0.1692604E-013  0.7246159E+02  0.7816164E-02  0.1226708E+00
        -11   -1    0    0    0    0  0.00000000000E+00  0.00000000000E+00  0.45593999997E+02  0.45594000000E+02  0.51100000000E-03 0. -1.
         11   -1    0    0    0    0 -0.00000000000E+00 -0.00000000000E+00 -0.45593999997E+02  0.45594000000E+02  0.51100000000E-03 0.  1.
    9900012    2    1    2    0    0  0.37082506079E+01  0.18297932366E+02 -0.14536041032E+01  0.72461590405E+02  0.70000026198E+02 0.  0.
         12    1    1    2    0    0 -0.37082506079E+01 -0.18297932366E+02  0.14536041032E+01  0.18726409595E+02  0.00000000000E+00 0. -1.
         11    1    3    3    0    0 -0.44549315014E+01  0.32056600064E+01 -0.39452137697E+01  0.67592442409E+01  0.51100000000E-03 0. -1.
        -11    1    3    3    0    0  0.26259767405E+02  0.18963026749E+02 -0.18832552357E+02  0.37467810133E+02  0.51100000000E-03 0.  1.
         12    1    3    3    0    0 -0.18096585295E+02 -0.38707543895E+01  0.21324162023E+02  0.28234536031E+02  0.00000000000E+00 0. -1.
</event>
<event>
 7    1  0.1692604E-013  0.7246155E+02  0.7816164E-02  0.1226708E+00
        -11   -1    0    0    0    0  0.00000000000E+00  0.00000000000E+00  0.45593999997E+02  0.45594000000E+02  0.51100000000E-03 0.  1.
         11   -1    0    0    0    0 -0.00000000000E+00 -0.00000000000E+00 -0.45593999997E+02  0.45594000000E+02  0.51100000000E-03 0. -1.
    9900012    2    1    2    0    0 -0.10203503413E+02  0.97822810255E+01  0.12283132552E+02  0.72461552146E+02  0.69999976358E+02 0.  0.
         12    1    1    2    0    0  0.10203503413E+02 -0.97822810255E+01 -0.12283132552E+02  0.18726447854E+02  0.00000000000E+00 0. -1.
         11    1    3    3    0    0 -0.24199814119E+02 -0.18144174097E+02  0.21243223057E+02  0.36961014368E+02  0.51100000000E-03 0. -1.
        -11    1    3    3    0    0  0.75862643249E+01  0.96674436526E+01  0.31322791712E+01  0.12681563242E+02  0.51100000000E-03 0.  1.
        -12    1    3    3    0    0  0.64100463809E+01  0.18259011470E+02 -0.12092369676E+02  0.22818974536E+02  0.00000000000E+00 0.  1.
</event>
<event>
 7    1  0.1692604E-013  0.7246159E+02  0.7816164E-02  0.1226708E+00
        -11   -1    0    0    0    0  0.00000000000E+00  0.00000000000E+00  0.45593999997E+02  0.45594000000E+02  0.51100000000E-03 0. -1.
         11   -1    0    0    0    0 -0.00000000000E+00 -0.00000000000E+00 -0.45593999997E+02  0.45594000000E+02  0.51100000000E-03 0.  1.
    9900012    2    1    2    0    0 -0.12227370384E+02  0.11719389350E+02 -0.79891087483E+01  0.72461587320E+02  0.70000022179E+02 0.  0.
         12    1    1    2    0    0  0.12227370384E+02 -0.11719389350E+02  0.79891087483E+01  0.18726412680E+02  0.00000000000E+00 0. -1.
         11    1    3    3    0    0  0.95745725448E+01  0.11867896123E+02  0.86866320423E+01  0.17549272757E+02  0.51100000000E-03 0. -1.
        -11    1    3    3    0    0  0.10879999168E+02  0.47921064739E+01  0.74149722657E+01  0.14011441051E+02  0.51100000000E-03 0.  1.
        -12    1    3    3    0    0 -0.32681942097E+02 -0.49406132464E+01 -0.24090713056E+02  0.40900873512E+02  0.00000000000E+00 0.  1.
</event>
<event>
 7    1  0.1692604E-013  0.7246160E+02  0.7816164E-02  0.1226708E+00
        -11   -1    0    0    0    0  0.00000000000E+00  0.00000000000E+00  0.45593999997E+02  0.45594000000E+02  0.51100000000E-03 0.  1.
         11   -1    0    0    0    0 -0.00000000000E+00 -0.00000000000E+00 -0.45593999997E+02  0.45594000000E+02  0.51100000000E-03 0. -1.
    9900012    2    1    2    0    0  0.77766397338E+01  0.12178953863E+02  0.11911136671E+02  0.72461595659E+02  0.70000033042E+02 0.  0.
         12    1    1    2    0    0 -0.77766397338E+01 -0.12178953863E+02 -0.11911136671E+02  0.18726404341E+02  0.00000000000E+00 0. -1.
         11    1    3    3    0    0 -0.22751932786E+02  0.34125833208E+01 -0.47910827001E+01  0.23500013705E+02  0.51100000000E-03 0. -1.
        -11    1    3    3    0    0  0.84695206463E+00  0.56292969958E+01  0.18207536988E+02  0.19076706107E+02  0.51100000000E-03 0.  1.
        -12    1    3    3    0    0  0.29681620455E+02  0.31370735464E+01 -0.15053176165E+01  0.29884875847E+02  0.00000000000E+00 0.  1.
</event>
<event>
 7    1  0.1692604E-013  0.7246136E+02  0.7816164E-02  0.1226709E+00
        -11   -1    0    0    0    0  0.00000000000E+00  0.00000000000E+00  0.45593999997E+02  0.45594000000E+02  0.51100000000E-03 0. -1.
         11   -1    0    0    0    0 -0.00000000000E+00 -0.00000000000E+00 -0.45593999997E+02  0.45594000000E+02  0.51100000000E-03 0.  1.
    9900012    2    1    2    0    0 -0.32791924772E+01  0.18286077181E+02 -0.23565395743E+01  0.72461361200E+02  0.69999727615E+02 0.  0.
         12    1    1    2    0    0  0.32791924772E+01 -0.18286077181E+02  0.23565395743E+01  0.18726638800E+02  0.00000000000E+00 0. -1.
         11    1    3    3    0    0  0.27674314584E+01  0.18523763964E+02  0.19585200059E+01  0.18831471242E+02  0.51100000000E-03 0. -1.
        -11    1    3    3    0    0  0.14761268375E+02 -0.16412690290E+01 -0.21824654082E+02  0.26398945701E+02  0.51100000000E-03 0.  1.
        -12    1    3    3    0    0 -0.20807892311E+02  0.14035822461E+01  0.17509594502E+02  0.27230944257E+02  0.00000000000E+00 0.  1.
</event>
<event>
 7    1  0.1692604E-013  0.7246161E+02  0.7816164E-02  0.1226708E+00
        -11   -1    0    0    0    0  0.00000000000E+00  0.00000000000E+00  0.45593999997E+02  0.45594000000E+02  0.51100000000E-03 0. -1.
         11   -1    0    0    0    0 -0.00000000000E+00 -0.00000000000E+00 -0.45593999997E+02  0.45594000000E+02  0.51100000000E-03 0.  1.
    9900012    2    1    2    0    0  0.15356619779E+02  0.40273128407E+00 -0.10709329534E+02  0.72461609461E+02  0.70000051022E+02 0.  0.
         12    1    1    2    0    0 -0.15356619779E+02 -0.40273128407E+00  0.10709329534E+02  0.18726390539E+02  0.00000000000E+00 0. -1.
         11    1    3    3    0    0 -0.23852134065E+01 -0.11621394366E+01 -0.15516449184E+00  0.26577974613E+01  0.51100000000E-03 0. -1.
        -11    1    3    3    0    0  0.13073948833E-01 -0.22021307855E+01 -0.37371376881E+02  0.37436203883E+02  0.51100000000E-03 0.  1.
         12    1    3    3    0    0  0.17728759237E+02  0.37670015062E+01  0.26817211839E+02  0.32367608117E+02  0.00000000000E+00 0. -1.
</event>
<event>
 7    1  0.1692604E-013  0.7246158E+02  0.7816164E-02  0.1226708E+00
        -11   -1    0    0    0    0  0.00000000000E+00  0.00000000000E+00  0.45593999997E+02  0.45594000000E+02  0.51100000000E-03 0. -1.
         11   -1    0    0    0    0 -0.00000000000E+00 -0.00000000000E+00 -0.45593999997E+02  0.45594000000E+02  0.51100000000E-03 0.  1.
    9900012    2    1    2    0    0  0.11859541620E+01  0.14755013471E+02 -0.11470046377E+02  0.72461578194E+02  0.70000010290E+02 0.  0.
         12    1    1    2    0    0 -0.11859541620E+01 -0.14755013471E+02  0.11470046377E+02  0.18726421806E+02  0.00000000000E+00 0. -1.
         11    1    3    3    0    0  0.52261432651E+01 -0.67847801672E+01 -0.22802988080E+01  0.88625943301E+01  0.51100000000E-03 0. -1.
        -11    1    3    3    0    0 -0.54570078490E+01  0.35438526475E+02 -0.24071613098E+02  0.43186926851E+02  0.51100000000E-03 0.  1.
         12    1    3    3    0    0  0.14168187459E+01 -0.13898732838E+02  0.14881865530E+02  0.20412057013E+02  0.00000000000E+00 0. -1.
</event>
<event>
 7    1  0.1692604E-013  0.7246153E+02  0.7816164E-02  0.1226708E+00
        -11   -1    0    0    0    0  0.00000000000E+00  0.00000000000E+00  0.45593999997E+02  0.45594000000E+02  0.51100000000E-03 0. -1.
         11   -1    0    0    0    0 -0.00000000000E+00 -0.00000000000E+00 -0.45593999997E+02  0.45594000000E+02  0.51100000000E-03 0.  1.
    9900012    2    1    2    0    0  0.93287372208E+01 -0.13815757191E+02 -0.85311245731E+01  0.72461532864E+02  0.69999951240E+02 0.  0.
         12    1    1    2    0    0 -0.93287372208E+01  0.13815757191E+02  0.85311245731E+01  0.18726467136E+02  0.00000000000E+00 0. -1.
         11    1    3    3    0    0  0.98722864036E+01 -0.47565762990E+00  0.11195637314E+02  0.14934208521E+02  0.51100000000E-03 0. -1.
        -11    1    3    3    0    0 -0.84341920292E+01  0.28812262904E+01  0.15540281050E+02  0.17914725661E+02  0.51100000000E-03 0.  1.
        -12    1    3    3    0    0  0.78906428464E+01 -0.16221325852E+02 -0.35267042937E+02  0.39612598683E+02  0.00000000000E+00 0.  1.
</event>
<event>
 7    1  0.1692604E-013  0.7246152E+02  0.7816164E-02  0.1226708E+00
        -11   -1    0    0    0    0  0.00000000000E+00  0.00000000000E+00  0.45593999997E+02  0.45594000000E+02  0.51100000000E-03 0. -1.
         11   -1    0    0    0    0 -0.00000000000E+00 -0.00000000000E+00 -0.45593999997E+02  0.45594000000E+02  0.51100000000E-03 0.  1.
    9900012    2    1    2    0    0  0.26547032573E+00  0.15679528074E+02 -0.10235370008E+02  0.72461524775E+02  0.69999940703E+02 0.  0.
         12    1    1    2    0    0 -0.26547032573E+00 -0.15679528074E+02  0.10235370008E+02  0.18726475225E+02  0.00000000000E+00 0. -1.
         11    1    3    3    0    0 -0.96839428628E+01  0.18176164856E+02  0.75108130462E+01  0.21921770711E+02  0.51100000000E-03 0. -1.
        -11    1    3    3    0    0  0.13316574839E+02 -0.22970987832E+02 -0.10698601043E+02  0.28626168307E+02  0.51100000000E-03 0.  1.
         12    1    3    3    0    0 -0.33671616505E+01  0.20474351051E+02 -0.70475820118E+01  0.21913585757E+02  0.00000000000E+00 0. -1.
</event>
<event>
 7    1  0.1692604E-013  0.7246161E+02  0.7816164E-02  0.1226708E+00
        -11   -1    0    0    0    0  0.00000000000E+00  0.00000000000E+00  0.45593999997E+02  0.45594000000E+02  0.51100000000E-03 0. -1.
         11   -1    0    0    0    0 -0.00000000000E+00 -0.00000000000E+00 -0.45593999997E+02  0.45594000000E+02  0.51100000000E-03 0.  1.
    9900012    2    1    2    0    0 -0.75798346661E+01  0.10641820036E+02 -0.13415498706E+02  0.72461605986E+02  0.70000046495E+02 0.  0.
         12    1    1    2    0    0  0.75798346661E+01 -0.10641820036E+02  0.13415498706E+02  0.18726394014E+02  0.00000000000E+00 0. -1.
         11    1    3    3    0    0 -0.20483820765E+02 -0.14930433325E+02  0.57808880012E+01  0.25998527242E+02  0.51100000000E-03 0. -1.
        -11    1    3    3    0    0  0.51386623685E+01  0.46315668479E+01  0.84511936067E+01  0.10921535425E+02  0.51100000000E-03 0.  1.
        -12    1    3    3    0    0  0.77653237307E+01  0.20940686513E+02 -0.27647580314E+02  0.35541543319E+02  0.00000000000E+00 0.  1.
</event>
<event>
 7    1  0.1692604E-013  0.7246158E+02  0.7816164E-02  0.1226708E+00
        -11   -1    0    0    0    0  0.00000000000E+00  0.00000000000E+00  0.45593999997E+02  0.45594000000E+02  0.51100000000E-03 0. -1.
         11   -1    0    0    0    0 -0.00000000000E+00 -0.00000000000E+00 -0.45593999997E+02  0.45594000000E+02  0.51100000000E-03 0.  1.
    9900012    2    1    2    0    0  0.70742023129E+01 -0.67939177935E+01 -0.15952340915E+02  0.72461579146E+02  0.70000011531E+02 0.  0.
         12    1    1    2    0    0 -0.70742023129E+01  0.67939177935E+01  0.15952340915E+02  0.18726420854E+02  0.00000000000E+00 0. -1.
         11    1    3    3    0    0  0.84521107232E+01 -0.11111645644E+02  0.47312918788E+01  0.14740826561E+02  0.51100000000E-03 0. -1.
        -11    1    3    3    0    0 -0.26896219832E+01 -0.24558021914E+02 -0.12454429201E+02  0.27666646232E+02  0.51100000000E-03 0.  1.
         12    1    3    3    0    0  0.13117135730E+01  0.28875749764E+02 -0.82292035931E+01  0.30054106353E+02  0.00000000000E+00 0. -1.
</event>
<event>
 7    1  0.1692604E-013  0.7246158E+02  0.7816164E-02  0.1226708E+00
        -11   -1    0    0    0    0  0.00000000000E+00  0.00000000000E+00  0.45593999997E+02  0.45594000000E+02  0.51100000000E-03 0.  1.
         11   -1    0    0    0    0 -0.00000000000E+00 -0.00000000000E+00 -0.45593999997E+02  0.45594000000E+02  0.51100000000E-03 0. -1.
    9900012    2    1    2    0    0 -0.38835241473E+01 -0.70240732431E+01  0.16919202746E+02  0.72461580527E+02  0.70000013330E+02 0.  0.
         12    1    1    2    0    0  0.38835241473E+01  0.70240732431E+01 -0.16919202746E+02  0.18726419473E+02  0.00000000000E+00 0. -1.
         11    1    3    3    0    0  0.18102903189E+01  0.32178270730E+00 -0.47738103200E+01  0.51156583528E+01  0.51100000000E-03 0. -1.
        -11    1    3    3    0    0 -0.28596270793E+02 -0.13852121532E+02 -0.43374415265E+01  0.32069321375E+02  0.51100000000E-03 0.  1.
        -12    1    3    3    0    0  0.22902456327E+02  0.65062655818E+01  0.26030454592E+02  0.35276600799E+02  0.00000000000E+00 0.  1.
</event>
<event>
 7    1  0.1692604E-013  0.7246160E+02  0.7816164E-02  0.1226708E+00
        -11   -1    0    0    0    0  0.00000000000E+00  0.00000000000E+00  0.45593999997E+02  0.45594000000E+02  0.51100000000E-03 0.  1.
         11   -1    0    0    0    0 -0.00000000000E+00 -0.00000000000E+00 -0.45593999997E+02  0.45594000000E+02  0.51100000000E-03 0. -1.
    9900012    2    1    2    0    0  0.14113525674E+02 -0.83920003799E+01  0.90033861962E+01  0.72461595104E+02  0.70000032319E+02 0.  0.
         12    1    1    2    0    0 -0.14113525674E+02  0.83920003799E+01 -0.90033861962E+01  0.18726404896E+02  0.00000000000E+00 0. -1.
         11    1    3    3    0    0 -0.70472934766E+01 -0.49247406551E+01 -0.61609767365E+01  0.10577100287E+02  0.51100000000E-03 0. -1.
        -11    1    3    3    0    0  0.15049087574E+02 -0.20387915375E+02  0.29493675919E+02  0.38884689141E+02  0.51100000000E-03 0.  1.
         12    1    3    3    0    0  0.61117315774E+01  0.16920655650E+02 -0.14329312986E+02  0.22999805676E+02  0.00000000000E+00 0. -1.
</event>
<event>
 7    1  0.1692604E-013  0.7246156E+02  0.7816164E-02  0.1226708E+00
        -11   -1    0    0    0    0  0.00000000000E+00  0.00000000000E+00  0.45593999997E+02  0.45594000000E+02  0.51100000000E-03 0. -1.
         11   -1    0    0    0    0 -0.00000000000E+00 -0.00000000000E+00 -0.45593999997E+02  0.45594000000E+02  0.51100000000E-03 0.  1.
    9900012    2    1    2    0    0 -0.31795282035E+01  0.16087739607E+02 -0.90418381884E+01  0.72461558718E+02  0.69999984919E+02 0.  0.
         12    1    1    2    0    0  0.31795282035E+01 -0.16087739607E+02  0.90418381884E+01  0.18726441282E+02  0.00000000000E+00 0. -1.
         11    1    3    3    0    0  0.22938180556E+02  0.11736359048E+02 -0.16491206403E+02  0.30591863948E+02  0.51100000000E-03 0. -1.
        -11    1    3    3    0    0 -0.30027946025E+01 -0.12198584727E+02  0.34914771419E+00  0.12567583266E+02  0.51100000000E-03 0.  1.
        -12    1    3    3    0    0 -0.23114914157E+02  0.16549965285E+02  0.71002205001E+01  0.29302111504E+02  0.00000000000E+00 0.  1.
</event>
<event>
 7    1  0.1692604E-013  0.7246156E+02  0.7816164E-02  0.1226708E+00
        -11   -1    0    0    0    0  0.00000000000E+00  0.00000000000E+00  0.45593999997E+02  0.45594000000E+02  0.51100000000E-03 0. -1.
         11   -1    0    0    0    0 -0.00000000000E+00 -0.00000000000E+00 -0.45593999997E+02  0.45594000000E+02  0.51100000000E-03 0.  1.
    9900012    2    1    2    0    0  0.14621207035E+02 -0.86956782336E+00  0.11668070722E+02  0.72461555657E+02  0.69999980932E+02 0.  0.
         12    1    1    2    0    0 -0.14621207035E+02  0.86956782336E+00 -0.11668070722E+02  0.18726444343E+02  0.00000000000E+00 0. -1.
         11    1    3    3    0    0 -0.12493833555E+02  0.30247736037E+01  0.11459426751E+02  0.17221021863E+02  0.51100000000E-03 0. -1.
        -11    1    3    3    0    0  0.13370584702E+01 -0.19730612284E+02  0.11584008293E+02  0.22918857626E+02  0.51100000000E-03 0.  1.
        -12    1    3    3    0    0  0.25777982120E+02  0.15836270857E+02 -0.11375364323E+02  0.32321676169E+02  0.00000000000E+00 0.  1.
</event>
<event>
 7    1  0.1692604E-013  0.7246173E+02  0.7816164E-02  0.1226708E+00
        -11   -1    0    0    0    0  0.00000000000E+00  0.00000000000E+00  0.45593999997E+02  0.45594000000E+02  0.51100000000E-03 0.  1.
         11   -1    0    0    0    0 -0.00000000000E+00 -0.00000000000E+00 -0.45593999997E+02  0.45594000000E+02  0.51100000000E-03 0. -1.
    9900012    2    1    2    0    0  0.13001761040E+02  0.11886879637E+02  0.63505484425E+01  0.72461730666E+02  0.70000208914E+02 0.  0.
         12    1    1    2    0    0 -0.13001761040E+02 -0.11886879637E+02 -0.63505484425E+01  0.18726269334E+02  0.00000000000E+00 0. -1.
         11    1    3    3    0    0  0.25099649782E+02 -0.67090176810E+00 -0.15661396002E+02  0.29592597949E+02  0.51100000000E-03 0. -1.
        -11    1    3    3    0    0  0.19234266872E+01  0.87967072772E+01 -0.63428196709E+01  0.11014217665E+02  0.51100000000E-03 0.  1.
        -12    1    3    3    0    0 -0.14021315429E+02  0.37610741277E+01  0.28354764115E+02  0.31854915052E+02  0.00000000000E+00 0.  1.
</event>
<event>
 7    1  0.1692604E-013  0.7246157E+02  0.7816164E-02  0.1226708E+00
        -11   -1    0    0    0    0  0.00000000000E+00  0.00000000000E+00  0.45593999997E+02  0.45594000000E+02  0.51100000000E-03 0.  1.
         11   -1    0    0    0    0 -0.00000000000E+00 -0.00000000000E+00 -0.45593999997E+02  0.45594000000E+02  0.51100000000E-03 0. -1.
    9900012    2    1    2    0    0  0.57805654326E+01 -0.17199652822E+02 -0.46299294255E+01  0.72461568402E+02  0.69999997535E+02 0.  0.
         12    1    1    2    0    0 -0.57805654326E+01  0.17199652822E+02  0.46299294255E+01  0.18726431598E+02  0.00000000000E+00 0. -1.
         11    1    3    3    0    0 -0.51102044707E+01 -0.19449329289E+02  0.14993597554E+02  0.25083830796E+02  0.51100000000E-03 0. -1.
        -11    1    3    3    0    0 -0.68884772406E+01 -0.49804208577E+01  0.93419559595E+01  0.12630433564E+02  0.51100000000E-03 0.  1.
        -12    1    3    3    0    0  0.17779247144E+02  0.72300973252E+01 -0.28965482939E+02  0.34747304042E+02  0.00000000000E+00 0.  1.
</event>
<event>
 7    1  0.1692604E-013  0.7246145E+02  0.7816164E-02  0.1226708E+00
        -11   -1    0    0    0    0  0.00000000000E+00  0.00000000000E+00  0.45593999997E+02  0.45594000000E+02  0.51100000000E-03 0.  1.
         11   -1    0    0    0    0 -0.00000000000E+00 -0.00000000000E+00 -0.45593999997E+02  0.45594000000E+02  0.51100000000E-03 0. -1.
    9900012    2    1    2    0    0 -0.82696335355E+01 -0.96864674452E+01  0.13728401296E+02  0.72461454870E+02  0.69999849638E+02 0.  0.
         12    1    1    2    0    0  0.82696335355E+01  0.96864674452E+01 -0.13728401296E+02  0.18726545130E+02  0.00000000000E+00 0. -1.
         11    1    3    3    0    0 -0.78821100080E+01 -0.19056497898E+01 -0.19983362467E+01  0.83517966519E+01  0.51100000000E-03 0. -1.
        -11    1    3    3    0    0 -0.16670397773E+02 -0.18948262635E+02  0.30399377577E+02  0.39510264187E+02  0.51100000000E-03 0.  1.
         12    1    3    3    0    0  0.16282874246E+02  0.11167444979E+02 -0.14672640035E+02  0.24599394030E+02  0.00000000000E+00 0. -1.
</event>
<event>
 7    1  0.1692604E-013  0.7246157E+02  0.7816164E-02  0.1226708E+00
        -11   -1    0    0    0    0  0.00000000000E+00  0.00000000000E+00  0.45593999997E+02  0.45594000000E+02  0.51100000000E-03 0.  1.
         11   -1    0    0    0    0 -0.00000000000E+00 -0.00000000000E+00 -0.45593999997E+02  0.45594000000E+02  0.51100000000E-03 0. -1.
    9900012    2    1    2    0    0  0.99846099149E+01  0.74138314082E+01 -0.14000784824E+02  0.72461566624E+02  0.69999995218E+02 0.  0.
         12    1    1    2    0    0 -0.99846099149E+01 -0.74138314082E+01  0.14000784824E+02  0.18726433376E+02  0.00000000000E+00 0. -1.
         11    1    3    3    0    0  0.14936645931E+02 -0.15442495585E+01  0.72602032715E+01  0.16679288060E+02  0.51100000000E-03 0. -1.
        -11    1    3    3    0    0 -0.13336972355E+02 -0.18202597039E+02 -0.13582029389E+02  0.26337822483E+02  0.51100000000E-03 0.  1.
         12    1    3    3    0    0  0.83849363381E+01  0.27160678006E+02 -0.76789587069E+01  0.29444456082E+02  0.00000000000E+00 0. -1.
</event>
<event>
 7    1  0.1692604E-013  0.7246149E+02  0.7816164E-02  0.1226708E+00
        -11   -1    0    0    0    0  0.00000000000E+00  0.00000000000E+00  0.45593999997E+02  0.45594000000E+02  0.51100000000E-03 0. -1.
         11   -1    0    0    0    0 -0.00000000000E+00 -0.00000000000E+00 -0.45593999997E+02  0.45594000000E+02  0.51100000000E-03 0.  1.
    9900012    2    1    2    0    0  0.74700325772E+00  0.84167294068E+01 -0.16711762087E+02  0.72461485646E+02  0.69999889730E+02 0.  0.
         12    1    1    2    0    0 -0.74700325772E+00 -0.84167294068E+01  0.16711762087E+02  0.18726514354E+02  0.00000000000E+00 0. -1.
         11    1    3    3    0    0 -0.42919826819E+01 -0.19590448272E+02 -0.45434795962E+01  0.20563316511E+02  0.51100000000E-03 0. -1.
        -11    1    3    3    0    0 -0.17596154312E+02  0.13833311573E+02  0.39015289074E+00  0.22386097811E+02  0.51100000000E-03 0.  1.
         12    1    3    3    0    0  0.22635140252E+02  0.14173866105E+02 -0.12558435382E+02  0.29512071324E+02  0.00000000000E+00 0. -1.
</event>
<event>
 7    1  0.1692604E-013  0.7246170E+02  0.7816164E-02  0.1226708E+00
        -11   -1    0    0    0    0  0.00000000000E+00  0.00000000000E+00  0.45593999997E+02  0.45594000000E+02  0.51100000000E-03 0. -1.
         11   -1    0    0    0    0 -0.00000000000E+00 -0.00000000000E+00 -0.45593999997E+02  0.45594000000E+02  0.51100000000E-03 0.  1.
    9900012    2    1    2    0    0 -0.41698538965E+01 -0.69582046924E+01  0.16878089207E+02  0.72461703267E+02  0.70000173221E+02 0.  0.
         12    1    1    2    0    0  0.41698538965E+01  0.69582046924E+01 -0.16878089207E+02  0.18726296733E+02  0.00000000000E+00 0. -1.
         11    1    3    3    0    0  0.10818951944E+02  0.53830316313E+01  0.35641069102E+02  0.37633928279E+02  0.51100000000E-03 0. -1.
        -11    1    3    3    0    0  0.20608939689E+01 -0.74896168263E+01  0.14934457448E+01  0.79102480751E+01  0.51100000000E-03 0.  1.
        -12    1    3    3    0    0 -0.17049699810E+02 -0.48516194974E+01 -0.20256425640E+02  0.26917526912E+02  0.00000000000E+00 0.  1.
</event>
<event>
 7    1  0.1692604E-013  0.7246163E+02  0.7816164E-02  0.1226708E+00
        -11   -1    0    0    0    0  0.00000000000E+00  0.00000000000E+00  0.45593999997E+02  0.45594000000E+02  0.51100000000E-03 0. -1.
         11   -1    0    0    0    0 -0.00000000000E+00 -0.00000000000E+00 -0.45593999997E+02  0.45594000000E+02  0.51100000000E-03 0.  1.
    9900012    2    1    2    0    0  0.12600479376E+02  0.11241184647E+01 -0.13807281678E+02  0.72461634892E+02  0.70000084151E+02 0.  0.
         12    1    1    2    0    0 -0.12600479376E+02 -0.11241184647E+01  0.13807281678E+02  0.18726365108E+02  0.00000000000E+00 0. -1.
         11    1    3    3    0    0 -0.10399036862E+02 -0.12068879860E+02 -0.78864352965E+00  0.15950541922E+02  0.51100000000E-03 0. -1.
        -11    1    3    3    0    0  0.79405323214E+01 -0.18097544595E+02 -0.10870843714E+01  0.19792799868E+02  0.51100000000E-03 0.  1.
        -12    1    3    3    0    0  0.15058983916E+02  0.31290542920E+02 -0.11931553777E+02  0.36718293102E+02  0.00000000000E+00 0.  1.
</event>
<event>
 7    1  0.1692604E-013  0.7246154E+02  0.7816164E-02  0.1226708E+00
        -11   -1    0    0    0    0  0.00000000000E+00  0.00000000000E+00  0.45593999997E+02  0.45594000000E+02  0.51100000000E-03 0.  1.
         11   -1    0    0    0    0 -0.00000000000E+00 -0.00000000000E+00 -0.45593999997E+02  0.45594000000E+02  0.51100000000E-03 0. -1.
    9900012    2    1    2    0    0 -0.10102610778E+02 -0.13051981494E+02 -0.88466613660E+01  0.72461537901E+02  0.69999957801E+02 0.  0.
         12    1    1    2    0    0  0.10102610778E+02  0.13051981494E+02  0.88466613660E+01  0.18726462099E+02  0.00000000000E+00 0. -1.
         11    1    3    3    0    0 -0.13602699024E+02 -0.11602458845E+02 -0.14181106157E+02  0.22820040405E+02  0.51100000000E-03 0. -1.
        -11    1    3    3    0    0 -0.14003468211E+02 -0.13201700180E+02  0.16884498466E+02  0.25602115114E+02  0.51100000000E-03 0.  1.
         12    1    3    3    0    0  0.17503556458E+02  0.11752177531E+02 -0.11550053675E+02  0.24039382382E+02  0.00000000000E+00 0. -1.
</event>
<event>
 7    1  0.1692604E-013  0.7246159E+02  0.7816164E-02  0.1226708E+00
        -11   -1    0    0    0    0  0.00000000000E+00  0.00000000000E+00  0.45593999997E+02  0.45594000000E+02  0.51100000000E-03 0. -1.
         11   -1    0    0    0    0 -0.00000000000E+00 -0.00000000000E+00 -0.45593999997E+02  0.45594000000E+02  0.51100000000E-03 0.  1.
    9900012    2    1    2    0    0 -0.28574791327E+01  0.60860188393E+01 -0.17477802004E+02  0.72461591503E+02  0.70000027628E+02 0.  0.
         12    1    1    2    0    0  0.28574791327E+01 -0.60860188393E+01  0.17477802004E+02  0.18726408497E+02  0.00000000000E+00 0. -1.
         11    1    3    3    0    0 -0.62867560257E+01 -0.14474779490E+02 -0.41608115625E+01  0.16320382830E+02  0.51100000000E-03 0. -1.
        -11    1    3    3    0    0 -0.13398946900E+02 -0.11829532101E+02 -0.64369161605E+01  0.18997460295E+02  0.51100000000E-03 0.  1.
         12    1    3    3    0    0  0.16828223793E+02  0.32390330430E+02 -0.68800742814E+01  0.37143748377E+02  0.00000000000E+00 0. -1.
</event>
<event>
 7    1  0.1692604E-013  0.7246139E+02  0.7816164E-02  0.1226708E+00
        -11   -1    0    0    0    0  0.00000000000E+00  0.00000000000E+00  0.45593999997E+02  0.45594000000E+02  0.51100000000E-03 0. -1.
         11   -1    0    0    0    0 -0.00000000000E+00 -0.00000000000E+00 -0.45593999997E+02  0.45594000000E+02  0.51100000000E-03 0.  1.
    9900012    2    1    2    0    0  0.16144254943E+02 -0.93415643371E+01 -0.16685243996E+01  0.72461394178E+02  0.69999770576E+02 0.  0.
         12    1    1    2    0    0 -0.16144254943E+02  0.93415643371E+01  0.16685243996E+01  0.18726605822E+02  0.00000000000E+00 0. -1.
         11    1    3    3    0    0 -0.25621144456E+01 -0.71341193397E+01  0.21970379549E+02  0.23241292283E+02  0.51100000000E-03 0. -1.
        -11    1    3    3    0    0 -0.89315282115E+01  0.79834663674E+01 -0.13543430827E+02  0.18081273469E+02  0.51100000000E-03 0.  1.
         12    1    3    3    0    0  0.27637897600E+02 -0.10190911365E+02 -0.10095473122E+02  0.31138828426E+02  0.00000000000E+00 0. -1.
</event>
<event>
 7    1  0.1692604E-013  0.7246162E+02  0.7816164E-02  0.1226708E+00
        -11   -1    0    0    0    0  0.00000000000E+00  0.00000000000E+00  0.45593999997E+02  0.45594000000E+02  0.51100000000E-03 0.  1.
         11   -1    0    0    0    0 -0.00000000000E+00 -0.00000000000E+00 -0.45593999997E+02  0.45594000000E+02  0.51100000000E-03 0. -1.
    9900012    2    1    2    0    0 -0.62592327256E+01  0.15337865618E+02  0.87320764032E+01  0.72461620896E+02  0.70000065918E+02 0.  0.
         12    1    1    2    0    0  0.62592327256E+01 -0.15337865618E+02 -0.87320764032E+01  0.18726379104E+02  0.00000000000E+00 0. -1.
         11    1    3    3    0    0  0.59627781727E+01  0.13900925156E+02  0.27256308204E+01  0.15369434191E+02  0.51100000000E-03 0. -1.
        -11    1    3    3    0    0  0.15902809082E+01  0.40580789424E+00  0.29647295776E+02  0.29692689681E+02  0.51100000000E-03 0.  1.
         12    1    3    3    0    0 -0.13812291807E+02  0.10311325676E+01 -0.23640850193E+02  0.27399497024E+02  0.00000000000E+00 0. -1.
</event>
<event>
 7    1  0.1692604E-013  0.7246156E+02  0.7816164E-02  0.1226708E+00
        -11   -1    0    0    0    0  0.00000000000E+00  0.00000000000E+00  0.45593999997E+02  0.45594000000E+02  0.51100000000E-03 0.  1.
         11   -1    0    0    0    0 -0.00000000000E+00 -0.00000000000E+00 -0.45593999997E+02  0.45594000000E+02  0.51100000000E-03 0. -1.
    9900012    2    1    2    0    0  0.17822050483E+02 -0.56674886305E+01 -0.96617749146E+00  0.72461563881E+02  0.69999991645E+02 0.  0.
         12    1    1    2    0    0 -0.17822050483E+02  0.56674886305E+01  0.96617749146E+00  0.18726436119E+02  0.00000000000E+00 0. -1.
         11    1    3    3    0    0  0.31480675348E+01  0.36061142800E+01 -0.26872797368E+02  0.27295817043E+02  0.51100000000E-03 0. -1.
        -11    1    3    3    0    0 -0.95619034229E+01 -0.40164407765E+00  0.15812596280E+01  0.97000874896E+01  0.51100000000E-03 0.  1.
        -12    1    3    3    0    0  0.24235886371E+02 -0.88719588329E+01  0.24325360249E+02  0.35465659348E+02  0.00000000000E+00 0.  1.
</event>
<event>
 7    1  0.1692604E-013  0.7246157E+02  0.7816164E-02  0.1226708E+00
        -11   -1    0    0    0    0  0.00000000000E+00  0.00000000000E+00  0.45593999997E+02  0.45594000000E+02  0.51100000000E-03 0. -1.
         11   -1    0    0    0    0 -0.00000000000E+00 -0.00000000000E+00 -0.45593999997E+02  0.45594000000E+02  0.51100000000E-03 0.  1.
    9900012    2    1    2    0    0 -0.52544501008E+01 -0.15058702709E+02 -0.98135268017E+01  0.72461572647E+02  0.70000003065E+02 0.  0.
         12    1    1    2    0    0  0.52544501008E+01  0.15058702709E+02  0.98135268017E+01  0.18726427353E+02  0.00000000000E+00 0. -1.
         11    1    3    3    0    0 -0.93693734751E+01 -0.22532356878E+02  0.11085437568E+02  0.26802596743E+02  0.51100000000E-03 0. -1.
        -11    1    3    3    0    0 -0.14209301818E+02  0.11366748225E+02 -0.84435709982E+00  0.18215931558E+02  0.51100000000E-03 0.  1.
         12    1    3    3    0    0  0.18324225192E+02 -0.38930940549E+01 -0.20054607270E+02  0.27443044346E+02  0.00000000000E+00 0. -1.
</event>
<event>
 7    1  0.1692604E-013  0.7246151E+02  0.7816164E-02  0.1226708E+00
        -11   -1    0    0    0    0  0.00000000000E+00  0.00000000000E+00  0.45593999997E+02  0.45594000000E+02  0.51100000000E-03 0. -1.
         11   -1    0    0    0    0 -0.00000000000E+00 -0.00000000000E+00 -0.45593999997E+02  0.45594000000E+02  0.51100000000E-03 0.  1.
    9900012    2    1    2    0    0  0.14298556935E+02  0.84612366383E+01 -0.86394587656E+01  0.72461507973E+02  0.69999918815E+02 0.  0.
         12    1    1    2    0    0 -0.14298556935E+02 -0.84612366383E+01  0.86394587656E+01  0.18726492027E+02  0.00000000000E+00 0. -1.
         11    1    3    3    0    0 -0.13684830575E+00  0.77141931246E+00 -0.12706403143E+02  0.12730534015E+02  0.51100000000E-03 0. -1.
        -11    1    3    3    0    0  0.26548115315E+02 -0.15977621478E+02  0.98676994910E+01  0.32518584046E+02  0.51100000000E-03 0.  1.
         12    1    3    3    0    0 -0.12112710074E+02  0.23667438803E+02 -0.58007551140E+01  0.27212389912E+02  0.00000000000E+00 0. -1.
</event>
<event>
 7    1  0.1692604E-013  0.7246159E+02  0.7816164E-02  0.1226708E+00
        -11   -1    0    0    0    0  0.00000000000E+00  0.00000000000E+00  0.45593999997E+02  0.45594000000E+02  0.51100000000E-03 0.  1.
         11   -1    0    0    0    0 -0.00000000000E+00 -0.00000000000E+00 -0.45593999997E+02  0.45594000000E+02  0.51100000000E-03 0. -1.
    9900012    2    1    2    0    0  0.11260515962E+02  0.12216332685E+02  0.86394739765E+01  0.72461587781E+02  0.70000022779E+02 0.  0.
         12    1    1    2    0    0 -0.11260515962E+02 -0.12216332685E+02 -0.86394739765E+01  0.18726412219E+02  0.00000000000E+00 0. -1.
         11    1    3    3    0    0  0.16110857409E+02  0.23711051210E+02 -0.12107267023E+02  0.31118476682E+02  0.51100000000E-03 0. -1.
        -11    1    3    3    0    0 -0.87252928955E+00 -0.74364752834E+01 -0.86279338019E+01  0.11423822213E+02  0.51100000000E-03 0.  1.
         12    1    3    3    0    0 -0.39778121577E+01 -0.40582432415E+01  0.29374674801E+02  0.29919288886E+02  0.00000000000E+00 0. -1.
</event>
<event>
 7    1  0.1692604E-013  0.7246155E+02  0.7816164E-02  0.1226708E+00
        -11   -1    0    0    0    0  0.00000000000E+00  0.00000000000E+00  0.45593999997E+02  0.45594000000E+02  0.51100000000E-03 0. -1.
         11   -1    0    0    0    0 -0.00000000000E+00 -0.00000000000E+00 -0.45593999997E+02  0.45594000000E+02  0.51100000000E-03 0.  1.
    9900012    2    1    2    0    0  0.89013291771E+01 -0.13181318648E+02 -0.98842841385E+01  0.72461550915E+02  0.69999974754E+02 0.  0.
         12    1    1    2    0    0 -0.89013291771E+01  0.13181318648E+02  0.98842841385E+01  0.18726449085E+02  0.00000000000E+00 0. -1.
         11    1    3    3    0    0  0.10140040613E+02  0.64368996449E+01  0.49908987082E+01  0.13006274288E+02  0.51100000000E-03 0. -1.
        -11    1    3    3    0    0 -0.15942271953E+02  0.39694505310E+01  0.12345910802E+02  0.20550768510E+02  0.51100000000E-03 0.  1.
        -12    1    3    3    0    0  0.14703560517E+02 -0.23587668824E+02 -0.27221093648E+02  0.38904508117E+02  0.00000000000E+00 0.  1.
</event>
<event>
 7    1  0.1692604E-013  0.7246160E+02  0.7816164E-02  0.1226708E+00
        -11   -1    0    0    0    0  0.00000000000E+00  0.00000000000E+00  0.45593999997E+02  0.45594000000E+02  0.51100000000E-03 0.  1.
         11   -1    0    0    0    0 -0.00000000000E+00 -0.00000000000E+00 -0.45593999997E+02  0.45594000000E+02  0.51100000000E-03 0. -1.
    9900012    2    1    2    0    0  0.63856054103E+01 -0.84417221051E+01  0.15447956026E+02  0.72461602217E+02  0.70000041585E+02 0.  0.
         12    1    1    2    0    0 -0.63856054103E+01  0.84417221051E+01 -0.15447956026E+02  0.18726397783E+02  0.00000000000E+00 0. -1.
         11    1    3    3    0    0  0.13663499078E+02  0.23319412734E+02  0.36798502858E+01  0.27276867776E+02  0.51100000000E-03 0. -1.
        -11    1    3    3    0    0  0.52573785396E+01 -0.12055936613E+02 -0.72931147224E+01  0.15039120963E+02  0.51100000000E-03 0.  1.
        -12    1    3    3    0    0 -0.12535272207E+02 -0.19705198225E+02  0.19061220463E+02  0.30145613477E+02  0.00000000000E+00 0.  1.
</event>
<event>
 7    1  0.1692604E-013  0.7246151E+02  0.7816164E-02  0.1226708E+00
        -11   -1    0    0    0    0  0.00000000000E+00  0.00000000000E+00  0.45593999997E+02  0.45594000000E+02  0.51100000000E-03 0.  1.
         11   -1    0    0    0    0 -0.00000000000E+00 -0.00000000000E+00 -0.45593999997E+02  0.45594000000E+02  0.51100000000E-03 0. -1.
    9900012    2    1    2    0    0  0.38503647327E+00  0.31031527892E+01  0.18463578237E+02  0.72461507225E+02  0.69999917841E+02 0.  0.
         12    1    1    2    0    0 -0.38503647327E+00 -0.31031527892E+01 -0.18463578237E+02  0.18726492775E+02  0.00000000000E+00 0. -1.
         11    1    3    3    0    0  0.56527328644E+01  0.52337413470E+00 -0.19186345509E+02  0.20008577250E+02  0.51100000000E-03 0. -1.
        -11    1    3    3    0    0 -0.40081779534E+01 -0.79139963993E+01 -0.38190701502E+01  0.96582672664E+01  0.51100000000E-03 0.  1.
        -12    1    3    3    0    0 -0.12595184377E+01  0.10493775054E+02  0.41468993896E+02  0.42794662709E+02  0.00000000000E+00 0.  1.
</event>
<event>
 7    1  0.1692604E-013  0.7246160E+02  0.7816164E-02  0.1226708E+00
        -11   -1    0    0    0    0  0.00000000000E+00  0.00000000000E+00  0.45593999997E+02  0.45594000000E+02  0.51100000000E-03 0. -1.
         11   -1    0    0    0    0 -0.00000000000E+00 -0.00000000000E+00 -0.45593999997E+02  0.45594000000E+02  0.51100000000E-03 0.  1.
    9900012    2    1    2    0    0  0.10953273845E+02 -0.11880381970E+02 -0.94636349356E+01  0.72461599655E+02  0.70000038248E+02 0.  0.
         12    1    1    2    0    0 -0.10953273845E+02  0.11880381970E+02  0.94636349356E+01  0.18726400345E+02  0.00000000000E+00 0. -1.
         11    1    3    3    0    0 -0.15809080102E+02  0.84361000980E+01 -0.42975073876E+00  0.17924270821E+02  0.51100000000E-03 0. -1.
        -11    1    3    3    0    0 -0.52131954577E+01 -0.21081995962E+02 -0.51352897359E+01  0.22315894818E+02  0.51100000000E-03 0.  1.
        -12    1    3    3    0    0  0.31975549405E+02  0.76551389352E+00 -0.38985944609E+01  0.32221434016E+02  0.00000000000E+00 0.  1.
</event>
<event>
 7    1  0.1692604E-013  0.7246157E+02  0.7816164E-02  0.1226708E+00
        -11   -1    0    0    0    0  0.00000000000E+00  0.00000000000E+00  0.45593999997E+02  0.45594000000E+02  0.51100000000E-03 0.  1.
         11   -1    0    0    0    0 -0.00000000000E+00 -0.00000000000E+00 -0.45593999997E+02  0.45594000000E+02  0.51100000000E-03 0. -1.
    9900012    2    1    2    0    0 -0.14560399056E+02  0.11730667640E+02 -0.10321759369E+01  0.72461570252E+02  0.69999999945E+02 0.  0.
         12    1    1    2    0    0  0.14560399056E+02 -0.11730667640E+02  0.10321759369E+01  0.18726429748E+02  0.00000000000E+00 0. -1.
         11    1    3    3    0    0  0.43875901125E+01 -0.13266787831E+02 -0.18793017267E+02  0.23418712702E+02  0.51100000000E-03 0. -1.
        -11    1    3    3    0    0  0.69148008427E+01  0.17452931306E+02  0.72135005170E+01  0.20111038557E+02  0.51100000000E-03 0.  1.
        -12    1    3    3    0    0 -0.25862790011E+02  0.75445241645E+01  0.10547340813E+02  0.28931818993E+02  0.00000000000E+00 0.  1.
</event>
<event>
 7    1  0.1692604E-013  0.7246173E+02  0.7816164E-02  0.1226708E+00
        -11   -1    0    0    0    0  0.00000000000E+00  0.00000000000E+00  0.45593999997E+02  0.45594000000E+02  0.51100000000E-03 0.  1.
         11   -1    0    0    0    0 -0.00000000000E+00 -0.00000000000E+00 -0.45593999997E+02  0.45594000000E+02  0.51100000000E-03 0. -1.
    9900012    2    1    2    0    0 -0.12438807199E+02  0.66536167129E+01  0.12315795088E+02  0.72461725716E+02  0.70000202465E+02 0.  0.
         12    1    1    2    0    0  0.12438807199E+02 -0.66536167129E+01 -0.12315795088E+02  0.18726274284E+02  0.00000000000E+00 0. -1.
         11    1    3    3    0    0 -0.22880542807E+02 -0.90513146067E+01 -0.37292727195E+01  0.24886803944E+02  0.51100000000E-03 0.  1.
        -11    1    3    3    0    0 -0.29830644089E+01  0.22199894212E+02 -0.38323969556E+01  0.22724903585E+02  0.51100000000E-03 0. -1.
        -12    1    3    3    0    0  0.13424800017E+02 -0.64949628921E+01  0.19877464763E+02  0.24850018187E+02  0.00000000000E+00 0.  1.
</event>
<event>
 7    1  0.1692604E-013  0.7246153E+02  0.7816164E-02  0.1226708E+00
        -11   -1    0    0    0    0  0.00000000000E+00  0.00000000000E+00  0.45593999997E+02  0.45594000000E+02  0.51100000000E-03 0. -1.
         11   -1    0    0    0    0 -0.00000000000E+00 -0.00000000000E+00 -0.45593999997E+02  0.45594000000E+02  0.51100000000E-03 0.  1.
    9900012    2    1    2    0    0  0.12906541678E+02 -0.16732087161E+01  0.13464851345E+02  0.72461530306E+02  0.69999947907E+02 0.  0.
         12    1    1    2    0    0 -0.12906541678E+02  0.16732087161E+01 -0.13464851345E+02  0.18726469694E+02  0.00000000000E+00 0. -1.
         11    1    3    3    0    0 -0.10590142108E+02  0.65882294556E+00  0.28007377127E+01  0.10974027954E+02  0.51100000000E-03 0. -1.
        -11    1    3    3    0    0 -0.14641542424E+02  0.12851417062E+02  0.26157940574E+01  0.19656450948E+02  0.51100000000E-03 0.  1.
        -12    1    3    3    0    0  0.38138226210E+02 -0.15183448723E+02  0.80483195746E+01  0.41831051404E+02  0.00000000000E+00 0.  1.
</event>
<event>
 7    1  0.1692604E-013  0.7246159E+02  0.7816164E-02  0.1226708E+00
        -11   -1    0    0    0    0  0.00000000000E+00  0.00000000000E+00  0.45593999997E+02  0.45594000000E+02  0.51100000000E-03 0.  1.
         11   -1    0    0    0    0 -0.00000000000E+00 -0.00000000000E+00 -0.45593999997E+02  0.45594000000E+02  0.51100000000E-03 0. -1.
    9900012    2    1    2    0    0  0.14373422065E+02  0.11539113167E+02  0.33063641109E+01  0.72461589822E+02  0.70000025438E+02 0.  0.
         12    1    1    2    0    0 -0.14373422065E+02 -0.11539113167E+02 -0.33063641109E+01  0.18726410178E+02  0.00000000000E+00 0. -1.
         11    1    3    3    0    0  0.20168412842E+02  0.53408297541E+01 -0.59314147104E+00  0.20872018496E+02  0.51100000000E-03 0. -1.
        -11    1    3    3    0    0  0.21737401789E+02 -0.10130097541E+01 -0.38347270140E+01  0.22096288304E+02  0.51100000000E-03 0.  1.
         12    1    3    3    0    0 -0.27532392566E+02  0.72112931668E+01  0.77342325959E+01  0.29493283022E+02  0.00000000000E+00 0. -1.
</event>
<event>
 7    1  0.1692604E-013  0.7246115E+02  0.7816164E-02  0.1226709E+00
        -11   -1    0    0    0    0  0.00000000000E+00  0.00000000000E+00  0.45593999997E+02  0.45594000000E+02  0.51100000000E-03 0.  1.
         11   -1    0    0    0    0 -0.00000000000E+00 -0.00000000000E+00 -0.45593999997E+02  0.45594000000E+02  0.51100000000E-03 0. -1.
    9900012    2    1    2    0    0  0.14956792912E+02  0.86350401111E+01  0.72405290134E+01  0.72461152098E+02  0.69999455220E+02 0.  0.
         12    1    1    2    0    0 -0.14956792912E+02 -0.86350401111E+01 -0.72405290134E+01  0.18726847902E+02  0.00000000000E+00 0. -1.
         11    1    3    3    0    0  0.16178372753E+02  0.29809823977E+02 -0.90852060806E+01  0.35112765774E+02  0.51100000000E-03 0. -1.
        -11    1    3    3    0    0 -0.11971719855E+01  0.59659096160E+01  0.52430509469E+01  0.80321156492E+01  0.51100000000E-03 0.  1.
        -12    1    3    3    0    0 -0.24407855518E-01 -0.27140693482E+02  0.11082684147E+02  0.29316270676E+02  0.00000000000E+00 0.  1.
</event>
<event>
 7    1  0.1692604E-013  0.7246157E+02  0.7816164E-02  0.1226708E+00
        -11   -1    0    0    0    0  0.00000000000E+00  0.00000000000E+00  0.45593999997E+02  0.45594000000E+02  0.51100000000E-03 0.  1.
         11   -1    0    0    0    0 -0.00000000000E+00 -0.00000000000E+00 -0.45593999997E+02  0.45594000000E+02  0.51100000000E-03 0. -1.
    9900012    2    1    2    0    0 -0.53751018673E+01 -0.88208244685E+01  0.15619872537E+02  0.72461572619E+02  0.70000003029E+02 0.  0.
         12    1    1    2    0    0  0.53751018673E+01  0.88208244685E+01 -0.15619872537E+02  0.18726427381E+02  0.00000000000E+00 0. -1.
         11    1    3    3    0    0  0.41894268297E+01  0.25228221386E+02  0.25959591411E+01  0.25705125084E+02  0.51100000000E-03 0. -1.
        -11    1    3    3    0    0  0.86034054262E+01 -0.42589543172E+01  0.54918532975E+01  0.11059734613E+02  0.51100000000E-03 0.  1.
        -12    1    3    3    0    0 -0.18167934123E+02 -0.29790091538E+02  0.75320600981E+01  0.35696712922E+02  0.00000000000E+00 0.  1.
</event>
<event>
 7    1  0.1692604E-013  0.7246174E+02  0.7816164E-02  0.1226708E+00
        -11   -1    0    0    0    0  0.00000000000E+00  0.00000000000E+00  0.45593999997E+02  0.45594000000E+02  0.51100000000E-03 0.  1.
         11   -1    0    0    0    0 -0.00000000000E+00 -0.00000000000E+00 -0.45593999997E+02  0.45594000000E+02  0.51100000000E-03 0. -1.
    9900012    2    1    2    0    0 -0.82080836741E+01  0.79173965947E+01  0.14853118902E+02  0.72461736423E+02  0.70000216413E+02 0.  0.
         12    1    1    2    0    0  0.82080836741E+01 -0.79173965947E+01 -0.14853118902E+02  0.18726263577E+02  0.00000000000E+00 0. -1.
         11    1    3    3    0    0 -0.49499991783E+01 -0.44329761618E+01 -0.78356070463E+01  0.10273777667E+02  0.51100000000E-03 0. -1.
        -11    1    3    3    0    0 -0.96347340868E+01 -0.63358845818E+01  0.36378239442E+02  0.38162125721E+02  0.51100000000E-03 0.  1.
         12    1    3    3    0    0  0.63766495909E+01  0.18686257338E+02 -0.13689513493E+02  0.24025833034E+02  0.00000000000E+00 0. -1.
</event>
<event>
 7    1  0.1692604E-013  0.7246158E+02  0.7816164E-02  0.1226708E+00
        -11   -1    0    0    0    0  0.00000000000E+00  0.00000000000E+00  0.45593999997E+02  0.45594000000E+02  0.51100000000E-03 0.  1.
         11   -1    0    0    0    0 -0.00000000000E+00 -0.00000000000E+00 -0.45593999997E+02  0.45594000000E+02  0.51100000000E-03 0. -1.
    9900012    2    1    2    0    0  0.64637115826E+01  0.10963691850E+02  0.13736696753E+02  0.72461576314E+02  0.70000007841E+02 0.  0.
         12    1    1    2    0    0 -0.64637115826E+01 -0.10963691850E+02 -0.13736696753E+02  0.18726423686E+02  0.00000000000E+00 0. -1.
         11    1    3    3    0    0 -0.21385837595E+02  0.85707073960E+01 -0.14800385694E+02  0.27383617217E+02  0.51100000000E-03 0. -1.
        -11    1    3    3    0    0  0.11200341796E+02  0.99193250865E+01  0.19822208029E+02  0.24834665247E+02  0.51100000000E-03 0.  1.
        -12    1    3    3    0    0  0.16649207382E+02 -0.75263406330E+01  0.87148744181E+01  0.20243293850E+02  0.00000000000E+00 0.  1.
</event>
<event>
 7    1  0.1692604E-013  0.7246158E+02  0.7816164E-02  0.1226708E+00
        -11   -1    0    0    0    0  0.00000000000E+00  0.00000000000E+00  0.45593999997E+02  0.45594000000E+02  0.51100000000E-03 0.  1.
         11   -1    0    0    0    0 -0.00000000000E+00 -0.00000000000E+00 -0.45593999997E+02  0.45594000000E+02  0.51100000000E-03 0. -1.
    9900012    2    1    2    0    0  0.12665771535E+02 -0.20406178634E+01  0.13641585750E+02  0.72461581452E+02  0.70000014535E+02 0.  0.
         12    1    1    2    0    0 -0.12665771535E+02  0.20406178634E+01 -0.13641585750E+02  0.18726418548E+02  0.00000000000E+00 0. -1.
         11    1    3    3    0    0  0.11089917046E+02 -0.10249946060E+02  0.29582777055E+01  0.15388276758E+02  0.51100000000E-03 0. -1.
        -11    1    3    3    0    0 -0.13328627385E+02 -0.19815107735E+02  0.10560875301E+01  0.23904102653E+02  0.51100000000E-03 0.  1.
         12    1    3    3    0    0  0.14904481874E+02  0.28024435932E+02  0.96272205149E+01  0.33169202041E+02  0.00000000000E+00 0. -1.
</event>
<event>
 7    1  0.1692604E-013  0.7246163E+02  0.7816164E-02  0.1226708E+00
        -11   -1    0    0    0    0  0.00000000000E+00  0.00000000000E+00  0.45593999997E+02  0.45594000000E+02  0.51100000000E-03 0. -1.
         11   -1    0    0    0    0 -0.00000000000E+00 -0.00000000000E+00 -0.45593999997E+02  0.45594000000E+02  0.51100000000E-03 0.  1.
    9900012    2    1    2    0    0  0.31486897250E+01  0.15306061959E+02 -0.10319266058E+02  0.72461627376E+02  0.70000074360E+02 0.  0.
         12    1    1    2    0    0 -0.31486897250E+01 -0.15306061959E+02  0.10319266058E+02  0.18726372624E+02  0.00000000000E+00 0. -1.
         11    1    3    3    0    0 -0.76435160325E+01  0.44192318669E+01 -0.12192834471E+02  0.15053842045E+02  0.51100000000E-03 0. -1.
        -11    1    3    3    0    0 -0.33691218644E+01 -0.11293823181E+02 -0.19982662699E+02  0.23199315356E+02  0.51100000000E-03 0.  1.
         12    1    3    3    0    0  0.14161327622E+02  0.22180653273E+02  0.21856231112E+02  0.34208469975E+02  0.00000000000E+00 0. -1.
</event>
<event>
 7    1  0.1692604E-013  0.7246153E+02  0.7816164E-02  0.1226708E+00
        -11   -1    0    0    0    0  0.00000000000E+00  0.00000000000E+00  0.45593999997E+02  0.45594000000E+02  0.51100000000E-03 0. -1.
         11   -1    0    0    0    0 -0.00000000000E+00 -0.00000000000E+00 -0.45593999997E+02  0.45594000000E+02  0.51100000000E-03 0.  1.
    9900012    2    1    2    0    0 -0.11392084714E+02 -0.12481185726E+02 -0.80697677069E+01  0.72461528306E+02  0.69999945303E+02 0.  0.
         12    1    1    2    0    0  0.11392084714E+02  0.12481185726E+02  0.80697677069E+01  0.18726471694E+02  0.00000000000E+00 0. -1.
         11    1    3    3    0    0  0.61520414846E+01  0.13967650446E+02  0.93668418920E+01  0.17907557084E+02  0.51100000000E-03 0. -1.
        -11    1    3    3    0    0  0.65778430782E+01 -0.50827796626E+01 -0.20562103081E+02  0.22178880766E+02  0.51100000000E-03 0.  1.
        -12    1    3    3    0    0 -0.24121969277E+02 -0.21366056510E+02  0.31254934819E+01  0.32375090457E+02  0.00000000000E+00 0.  1.
</event>
<event>
 7    1  0.1692604E-013  0.7246156E+02  0.7816164E-02  0.1226708E+00
        -11   -1    0    0    0    0  0.00000000000E+00  0.00000000000E+00  0.45593999997E+02  0.45594000000E+02  0.51100000000E-03 0. -1.
         11   -1    0    0    0    0 -0.00000000000E+00 -0.00000000000E+00 -0.45593999997E+02  0.45594000000E+02  0.51100000000E-03 0.  1.
    9900012    2    1    2    0    0 -0.13780452540E+02 -0.76152266907E+01 -0.10138389132E+02  0.72461561899E+02  0.69999989064E+02 0.  0.
         12    1    1    2    0    0  0.13780452540E+02  0.76152266907E+01  0.10138389132E+02  0.18726438101E+02  0.00000000000E+00 0. -1.
         11    1    3    3    0    0 -0.19042443305E+01  0.66113855433E+01  0.50492793996E+01  0.85341542047E+01  0.51100000000E-03 0. -1.
        -11    1    3    3    0    0 -0.27170896084E+02 -0.46081922277E+01 -0.29873672071E+02  0.40643933285E+02  0.51100000000E-03 0.  1.
         12    1    3    3    0    0  0.15294687875E+02 -0.96184200063E+01  0.14686003540E+02  0.23283474410E+02  0.00000000000E+00 0. -1.
</event>
<event>
 7    1  0.1692604E-013  0.7246193E+02  0.7816164E-02  0.1226707E+00
        -11   -1    0    0    0    0  0.00000000000E+00  0.00000000000E+00  0.45593999997E+02  0.45594000000E+02  0.51100000000E-03 0.  1.
         11   -1    0    0    0    0 -0.00000000000E+00 -0.00000000000E+00 -0.45593999997E+02  0.45594000000E+02  0.51100000000E-03 0. -1.
    9900012    2    1    2    0    0 -0.18698446057E+02 -0.93587058887E+00 -0.39762520402E+00  0.72461926079E+02  0.70000463474E+02 0.  0.
         12    1    1    2    0    0  0.18698446057E+02  0.93587058887E+00  0.39762520402E+00  0.18726073921E+02  0.00000000000E+00 0. -1.
         11    1    3    3    0    0  0.79554886776E+01  0.16321624699E+02  0.10526245437E+01  0.18187722552E+02  0.51100000000E-03 0.  1.
        -11    1    3    3    0    0 -0.10102689950E+02 -0.27377506919E+02 -0.12725094763E+02  0.31835833055E+02  0.51100000000E-03 0. -1.
         12    1    3    3    0    0 -0.16551244784E+02  0.10120011631E+02  0.11274845015E+02  0.22438370472E+02  0.00000000000E+00 0. -1.
</event>
<event>
 7    1  0.1692604E-013  0.7246166E+02  0.7816164E-02  0.1226708E+00
        -11   -1    0    0    0    0  0.00000000000E+00  0.00000000000E+00  0.45593999997E+02  0.45594000000E+02  0.51100000000E-03 0. -1.
         11   -1    0    0    0    0 -0.00000000000E+00 -0.00000000000E+00 -0.45593999997E+02  0.45594000000E+02  0.51100000000E-03 0.  1.
    9900012    2    1    2    0    0  0.48811873669E+01 -0.17995151232E+02 -0.17390489033E+01  0.72461661621E+02  0.70000118970E+02 0.  0.
         12    1    1    2    0    0 -0.48811873669E+01  0.17995151232E+02  0.17390489033E+01  0.18726338379E+02  0.00000000000E+00 0. -1.
         11    1    3    3    0    0 -0.17555608216E+02  0.10574804860E+02 -0.14856536937E+02  0.25312893309E+02  0.51100000000E-03 0. -1.
        -11    1    3    3    0    0  0.70110533341E+01 -0.64968142318E+00 -0.65980914744E+01  0.96494438270E+01  0.51100000000E-03 0.  1.
        -12    1    3    3    0    0  0.15425742249E+02 -0.27920274669E+02  0.19715579508E+02  0.37499324485E+02  0.00000000000E+00 0.  1.
</event>
<event>
 7    1  0.1692604E-013  0.7246163E+02  0.7816164E-02  0.1226708E+00
        -11   -1    0    0    0    0  0.00000000000E+00  0.00000000000E+00  0.45593999997E+02  0.45594000000E+02  0.51100000000E-03 0.  1.
         11   -1    0    0    0    0 -0.00000000000E+00 -0.00000000000E+00 -0.45593999997E+02  0.45594000000E+02  0.51100000000E-03 0. -1.
    9900012    2    1    2    0    0 -0.17748237601E+02  0.52430985329E+01 -0.28612597593E+01  0.72461632825E+02  0.70000081458E+02 0.  0.
         12    1    1    2    0    0  0.17748237601E+02 -0.52430985329E+01  0.28612597593E+01  0.18726367175E+02  0.00000000000E+00 0. -1.
         11    1    3    3    0    0  0.21789340911E+02 -0.14338601002E+02  0.49173471442E+01  0.26543382588E+02  0.51100000000E-03 0. -1.
        -11    1    3    3    0    0 -0.23505088920E+01  0.41221404664E+01 -0.23051591218E+01  0.52754803492E+01  0.51100000000E-03 0.  1.
        -12    1    3    3    0    0 -0.37187069620E+02  0.15459559068E+02 -0.54734477817E+01  0.40642769888E+02  0.00000000000E+00 0.  1.
</event>
<event>
 7    1  0.1692604E-013  0.7246153E+02  0.7816164E-02  0.1226708E+00
        -11   -1    0    0    0    0  0.00000000000E+00  0.00000000000E+00  0.45593999997E+02  0.45594000000E+02  0.51100000000E-03 0.  1.
         11   -1    0    0    0    0 -0.00000000000E+00 -0.00000000000E+00 -0.45593999997E+02  0.45594000000E+02  0.51100000000E-03 0. -1.
    9900012    2    1    2    0    0 -0.17655815123E+02  0.31547328619E+01  0.53852023728E+01  0.72461533390E+02  0.69999951925E+02 0.  0.
         12    1    1    2    0    0  0.17655815123E+02 -0.31547328619E+01 -0.53852023728E+01  0.18726466610E+02  0.00000000000E+00 0. -1.
         11    1    3    3    0    0 -0.17093634845E+02 -0.53222827745E+01 -0.17654493357E+02  0.25143591272E+02  0.51100000000E-03 0. -1.
        -11    1    3    3    0    0  0.75112433223E+01 -0.16457342875E+01 -0.95438017217E+01  0.12256074786E+02  0.51100000000E-03 0.  1.
        -12    1    3    3    0    0 -0.80734236010E+01  0.10122749924E+02  0.32583497451E+02  0.35061867332E+02  0.00000000000E+00 0.  1.
</event>
<event>
 7    1  0.1692604E-013  0.7246150E+02  0.7816164E-02  0.1226708E+00
        -11   -1    0    0    0    0  0.00000000000E+00  0.00000000000E+00  0.45593999997E+02  0.45594000000E+02  0.51100000000E-03 0.  1.
         11   -1    0    0    0    0 -0.00000000000E+00 -0.00000000000E+00 -0.45593999997E+02  0.45594000000E+02  0.51100000000E-03 0. -1.
    9900012    2    1    2    0    0  0.13347164562E+02  0.83362867304E+01 -0.10150933938E+02  0.72461496372E+02  0.69999903702E+02 0.  0.
         12    1    1    2    0    0 -0.13347164562E+02 -0.83362867304E+01  0.10150933938E+02  0.18726503628E+02  0.00000000000E+00 0. -1.
         11    1    3    3    0    0  0.24049325050E+02  0.22163085833E+02 -0.17935930359E+02  0.37299731998E+02  0.51100000000E-03 0. -1.
        -11    1    3    3    0    0  0.27773749752E+01  0.67372387620E+01 -0.35274570039E+01  0.80961195066E+01  0.51100000000E-03 0.  1.
        -12    1    3    3    0    0 -0.13479535462E+02 -0.20564037865E+02  0.11312453425E+02  0.27065644867E+02  0.00000000000E+00 0.  1.
</event>
<event>
 7    1  0.1692604E-013  0.7246153E+02  0.7816164E-02  0.1226708E+00
        -11   -1    0    0    0    0  0.00000000000E+00  0.00000000000E+00  0.45593999997E+02  0.45594000000E+02  0.51100000000E-03 0.  1.
         11   -1    0    0    0    0 -0.00000000000E+00 -0.00000000000E+00 -0.45593999997E+02  0.45594000000E+02  0.51100000000E-03 0. -1.
    9900012    2    1    2    0    0  0.15406251821E+02  0.10645104527E+02 -0.98521305607E-01  0.72461533382E+02  0.69999951915E+02 0.  0.
         12    1    1    2    0    0 -0.15406251821E+02 -0.10645104527E+02  0.98521305607E-01  0.18726466618E+02  0.00000000000E+00 0. -1.
         11    1    3    3    0    0  0.65411297923E+01  0.78880209850E+01  0.50371122190E+01  0.11418395412E+02  0.51100000000E-03 0. -1.
        -11    1    3    3    0    0 -0.33596706911E+01  0.30334332629E+02 -0.46635429909E+01  0.30874062847E+02  0.51100000000E-03 0.  1.
         12    1    3    3    0    0  0.12224792719E+02 -0.27577249087E+02 -0.47209053368E+00  0.30169075122E+02  0.00000000000E+00 0. -1.
</event>
<event>
 7    1  0.1692604E-013  0.7246161E+02  0.7816164E-02  0.1226708E+00
        -11   -1    0    0    0    0  0.00000000000E+00  0.00000000000E+00  0.45593999997E+02  0.45594000000E+02  0.51100000000E-03 0. -1.
         11   -1    0    0    0    0 -0.00000000000E+00 -0.00000000000E+00 -0.45593999997E+02  0.45594000000E+02  0.51100000000E-03 0.  1.
    9900012    2    1    2    0    0 -0.93852493363E+01 -0.16120598770E+02  0.16496133444E+01  0.72461605954E+02  0.70000046453E+02 0.  0.
         12    1    1    2    0    0  0.93852493363E+01  0.16120598770E+02 -0.16496133444E+01  0.18726394046E+02  0.00000000000E+00 0. -1.
         11    1    3    3    0    0 -0.17270226688E+02 -0.11249081670E+02  0.99080900370E+01  0.22868598923E+02  0.51100000000E-03 0. -1.
        -11    1    3    3    0    0 -0.18799393416E+02 -0.24558910323E+01  0.51296626742E+01  0.19640825669E+02  0.51100000000E-03 0.  1.
        -12    1    3    3    0    0  0.26684370768E+02 -0.24156260674E+01 -0.13388139367E+02  0.29952181361E+02  0.00000000000E+00 0.  1.
</event>
<event>
 7    1  0.1692604E-013  0.7246153E+02  0.7816164E-02  0.1226708E+00
        -11   -1    0    0    0    0  0.00000000000E+00  0.00000000000E+00  0.45593999997E+02  0.45594000000E+02  0.51100000000E-03 0. -1.
         11   -1    0    0    0    0 -0.00000000000E+00 -0.00000000000E+00 -0.45593999997E+02  0.45594000000E+02  0.51100000000E-03 0.  1.
    9900012    2    1    2    0    0  0.10097799152E+02  0.95296233174E+01 -0.12565881007E+02  0.72461531198E+02  0.69999949070E+02 0.  0.
         12    1    1    2    0    0 -0.10097799152E+02 -0.95296233174E+01  0.12565881007E+02  0.18726468802E+02  0.00000000000E+00 0. -1.
         11    1    3    3    0    0 -0.18933498316E+02  0.44254745334E+01 -0.30300982369E+02  0.36002940382E+02  0.51100000000E-03 0.  1.
        -11    1    3    3    0    0  0.12240631656E+02 -0.16628174616E+01  0.20832954299E+01  0.12527495574E+02  0.51100000000E-03 0. -1.
        -12    1    3    3    0    0  0.16790665813E+02  0.67669662456E+01  0.15651805932E+02  0.23931095243E+02  0.00000000000E+00 0.  1.
</event>
<event>
 7    1  0.1692604E-013  0.7246157E+02  0.7816164E-02  0.1226708E+00
        -11   -1    0    0    0    0  0.00000000000E+00  0.00000000000E+00  0.45593999997E+02  0.45594000000E+02  0.51100000000E-03 0.  1.
         11   -1    0    0    0    0 -0.00000000000E+00 -0.00000000000E+00 -0.45593999997E+02  0.45594000000E+02  0.51100000000E-03 0. -1.
    9900012    2    1    2    0    0  0.10832529071E+02 -0.31143823296E+01  0.14954472623E+02  0.72461566415E+02  0.69999994947E+02 0.  0.
         12    1    1    2    0    0 -0.10832529071E+02  0.31143823296E+01 -0.14954472623E+02  0.18726433585E+02  0.00000000000E+00 0. -1.
         11    1    3    3    0    0  0.17169931277E+02  0.40314187204E+01 -0.40668931931E+01  0.18099682247E+02  0.51100000000E-03 0. -1.
        -11    1    3    3    0    0  0.13415576767E+02  0.13735985710E+02  0.16833192728E+02  0.25534513528E+02  0.51100000000E-03 0.  1.
         12    1    3    3    0    0 -0.19752978973E+02 -0.20881786760E+02  0.21881730881E+01  0.28827370640E+02  0.00000000000E+00 0. -1.
</event>
<event>
 7    1  0.1692604E-013  0.7246159E+02  0.7816164E-02  0.1226708E+00
        -11   -1    0    0    0    0  0.00000000000E+00  0.00000000000E+00  0.45593999997E+02  0.45594000000E+02  0.51100000000E-03 0. -1.
         11   -1    0    0    0    0 -0.00000000000E+00 -0.00000000000E+00 -0.45593999997E+02  0.45594000000E+02  0.51100000000E-03 0.  1.
    9900012    2    1    2    0    0  0.59600762415E+01  0.54299351893E+01 -0.16901823646E+02  0.72461592242E+02  0.70000028591E+02 0.  0.
         12    1    1    2    0    0 -0.59600762415E+01 -0.54299351893E+01  0.16901823646E+02  0.18726407758E+02  0.00000000000E+00 0. -1.
         11    1    3    3    0    0  0.57039060908E+01 -0.67600246876E+01 -0.81325817657E+01  0.12015463574E+02  0.51100000000E-03 0. -1.
        -11    1    3    3    0    0  0.62643573306E+01 -0.96767806771E+01 -0.28274747126E+02  0.30534301733E+02  0.51100000000E-03 0.  1.
         12    1    3    3    0    0 -0.60081871799E+01  0.21866740554E+02  0.19505505246E+02  0.29911826934E+02  0.00000000000E+00 0. -1.
</event>
<event>
 7    1  0.1692604E-013  0.7246156E+02  0.7816164E-02  0.1226708E+00
        -11   -1    0    0    0    0  0.00000000000E+00  0.00000000000E+00  0.45593999997E+02  0.45594000000E+02  0.51100000000E-03 0.  1.
         11   -1    0    0    0    0 -0.00000000000E+00 -0.00000000000E+00 -0.45593999997E+02  0.45594000000E+02  0.51100000000E-03 0. -1.
    9900012    2    1    2    0    0 -0.97646156014E+01 -0.12615361616E+02 -0.98073611299E+01  0.72461564170E+02  0.69999992022E+02 0.  0.
         12    1    1    2    0    0  0.97646156014E+01  0.12615361616E+02  0.98073611299E+01  0.18726435830E+02  0.00000000000E+00 0. -1.
         11    1    3    3    0    0 -0.32037666617E+01  0.17219276432E+01 -0.25386343668E+02  0.25645576630E+02  0.51100000000E-03 0. -1.
        -11    1    3    3    0    0 -0.16968444995E+02 -0.32809143551E+01 -0.77819482991E+01  0.18953924241E+02  0.51100000000E-03 0.  1.
        -12    1    3    3    0    0  0.10407596055E+02 -0.11056374904E+02  0.23360930837E+02  0.27862063298E+02  0.00000000000E+00 0.  1.
</event>
<event>
 7    1  0.1692604E-013  0.7246157E+02  0.7816164E-02  0.1226708E+00
        -11   -1    0    0    0    0  0.00000000000E+00  0.00000000000E+00  0.45593999997E+02  0.45594000000E+02  0.51100000000E-03 0.  1.
         11   -1    0    0    0    0 -0.00000000000E+00 -0.00000000000E+00 -0.45593999997E+02  0.45594000000E+02  0.51100000000E-03 0. -1.
    9900012    2    1    2    0    0  0.45041187033E-01  0.33929720215E+01  0.18416434452E+02  0.72461565589E+02  0.69999993870E+02 0.  0.
         12    1    1    2    0    0 -0.45041187033E-01 -0.33929720215E+01 -0.18416434452E+02  0.18726434411E+02  0.00000000000E+00 0. -1.
         11    1    3    3    0    0 -0.21808439891E+02 -0.59765726229E+01  0.27813414654E+01  0.22782961427E+02  0.51100000000E-03 0. -1.
        -11    1    3    3    0    0  0.13941214013E+02 -0.69457128845E+01 -0.98294269448E+01  0.18417872026E+02  0.51100000000E-03 0.  1.
        -12    1    3    3    0    0  0.79122670649E+01  0.16315257529E+02  0.25464519931E+02  0.31260732136E+02  0.00000000000E+00 0.  1.
</event>
<event>
 7    1  0.1692604E-013  0.7246157E+02  0.7816164E-02  0.1226708E+00
        -11   -1    0    0    0    0  0.00000000000E+00  0.00000000000E+00  0.45593999997E+02  0.45594000000E+02  0.51100000000E-03 0.  1.
         11   -1    0    0    0    0 -0.00000000000E+00 -0.00000000000E+00 -0.45593999997E+02  0.45594000000E+02  0.51100000000E-03 0. -1.
    9900012    2    1    2    0    0 -0.77053578175E+01 -0.11279510757E+02  0.12809350282E+02  0.72461565297E+02  0.69999993491E+02 0.  0.
         12    1    1    2    0    0  0.77053578175E+01  0.11279510757E+02 -0.12809350282E+02  0.18726434703E+02  0.00000000000E+00 0. -1.
         11    1    3    3    0    0  0.26840903516E+01  0.24853962885E+01  0.22405481061E+02  0.22702139052E+02  0.51100000000E-03 0. -1.
        -11    1    3    3    0    0 -0.23868995313E+02 -0.64869619612E+01  0.84037267677E+01  0.26123404001E+02  0.51100000000E-03 0.  1.
         12    1    3    3    0    0  0.13479547144E+02 -0.72779450847E+01 -0.17999857546E+02  0.23636022245E+02  0.00000000000E+00 0. -1.
</event>
<event>
 7    1  0.1692604E-013  0.7246153E+02  0.7816164E-02  0.1226708E+00
        -11   -1    0    0    0    0  0.00000000000E+00  0.00000000000E+00  0.45593999997E+02  0.45594000000E+02  0.51100000000E-03 0.  1.
         11   -1    0    0    0    0 -0.00000000000E+00 -0.00000000000E+00 -0.45593999997E+02  0.45594000000E+02  0.51100000000E-03 0. -1.
    9900012    2    1    2    0    0 -0.24439823197E+01  0.69864693421E+00  0.18553151303E+02  0.72461532624E+02  0.69999950927E+02 0.  0.
         12    1    1    2    0    0  0.24439823197E+01 -0.69864693421E+00 -0.18553151303E+02  0.18726467376E+02  0.00000000000E+00 0. -1.
         11    1    3    3    0    0  0.17527693059E+02 -0.73920830021E+01  0.43947861328E+01  0.19523756311E+02  0.51100000000E-03 0. -1.
        -11    1    3    3    0    0  0.31958287967E+01 -0.15923570741E+02 -0.10341642999E+01  0.16273995296E+02  0.51100000000E-03 0.  1.
        -12    1    3    3    0    0 -0.23167504175E+02  0.24014300677E+02  0.15192529470E+02  0.36663781017E+02  0.00000000000E+00 0.  1.
</event>
<event>
 7    1  0.1692604E-013  0.7246156E+02  0.7816164E-02  0.1226708E+00
        -11   -1    0    0    0    0  0.00000000000E+00  0.00000000000E+00  0.45593999997E+02  0.45594000000E+02  0.51100000000E-03 0.  1.
         11   -1    0    0    0    0 -0.00000000000E+00 -0.00000000000E+00 -0.45593999997E+02  0.45594000000E+02  0.51100000000E-03 0. -1.
    9900012    2    1    2    0    0 -0.12162533616E+02 -0.36337849571E+01  0.13767640050E+02  0.72461560679E+02  0.69999987475E+02 0.  0.
         12    1    1    2    0    0  0.12162533616E+02  0.36337849571E+01 -0.13767640050E+02  0.18726439321E+02  0.00000000000E+00 0. -1.
         11    1    3    3    0    0  0.25237887541E+02  0.96265987444E+01  0.24084494542E+01  0.27118683595E+02  0.51100000000E-03 0. -1.
        -11    1    3    3    0    0 -0.11330894078E+02 -0.10768958886E+02 -0.23100880628E+01  0.15801776585E+02  0.51100000000E-03 0.  1.
        -12    1    3    3    0    0 -0.26069527078E+02 -0.24914248154E+01  0.13669278659E+02  0.29541100500E+02  0.00000000000E+00 0.  1.
</event>
<event>
 7    1  0.1692604E-013  0.7246156E+02  0.7816164E-02  0.1226708E+00
        -11   -1    0    0    0    0  0.00000000000E+00  0.00000000000E+00  0.45593999997E+02  0.45594000000E+02  0.51100000000E-03 0. -1.
         11   -1    0    0    0    0 -0.00000000000E+00 -0.00000000000E+00 -0.45593999997E+02  0.45594000000E+02  0.51100000000E-03 0.  1.
    9900012    2    1    2    0    0  0.83012642191E+01 -0.11853066803E+02 -0.11885846790E+02  0.72461560558E+02  0.69999987316E+02 0.  0.
         12    1    1    2    0    0 -0.83012642191E+01  0.11853066803E+02  0.11885846790E+02  0.18726439442E+02  0.00000000000E+00 0. -1.
         11    1    3    3    0    0 -0.63592997463E+01  0.93539413295E+00 -0.23267135738E+02  0.24138667344E+02  0.51100000000E-03 0. -1.
        -11    1    3    3    0    0 -0.20919768009E+00  0.15159187764E+02  0.54778993839E+01  0.16119929257E+02  0.51100000000E-03 0.  1.
         12    1    3    3    0    0  0.14869761645E+02 -0.27947648700E+02  0.59033895637E+01  0.32202963956E+02  0.00000000000E+00 0. -1.
</event>
<event>
 7    1  0.1692604E-013  0.7246141E+02  0.7816164E-02  0.1226708E+00
        -11   -1    0    0    0    0  0.00000000000E+00  0.00000000000E+00  0.45593999997E+02  0.45594000000E+02  0.51100000000E-03 0. -1.
         11   -1    0    0    0    0 -0.00000000000E+00 -0.00000000000E+00 -0.45593999997E+02  0.45594000000E+02  0.51100000000E-03 0.  1.
    9900012    2    1    2    0    0  0.13543892899E+02  0.12791718379E+02 -0.19026955579E+01  0.72461405426E+02  0.69999785228E+02 0.  0.
         12    1    1    2    0    0 -0.13543892899E+02 -0.12791718379E+02  0.19026955579E+01  0.18726594574E+02  0.00000000000E+00 0. -1.
         11    1    3    3    0    0  0.20043959019E+01  0.83610101147E+01 -0.54331201090E+01  0.10170687659E+02  0.51100000000E-03 0.  1.
        -11    1    3    3    0    0  0.21058314384E+02  0.23900566159E+02 -0.13629469496E+02  0.34647541131E+02  0.51100000000E-03 0. -1.
         12    1    3    3    0    0 -0.95188173867E+01 -0.19469857895E+02  0.17159894047E+02  0.27643176637E+02  0.00000000000E+00 0. -1.
</event>
<event>
 7    1  0.1692604E-013  0.7246157E+02  0.7816164E-02  0.1226708E+00
        -11   -1    0    0    0    0  0.00000000000E+00  0.00000000000E+00  0.45593999997E+02  0.45594000000E+02  0.51100000000E-03 0. -1.
         11   -1    0    0    0    0 -0.00000000000E+00 -0.00000000000E+00 -0.45593999997E+02  0.45594000000E+02  0.51100000000E-03 0.  1.
    9900012    2    1    2    0    0  0.18620304799E+02 -0.52210392106E+00  0.19211343328E+01  0.72461572139E+02  0.70000002402E+02 0.  0.
         12    1    1    2    0    0 -0.18620304799E+02  0.52210392106E+00 -0.19211343328E+01  0.18726427861E+02  0.00000000000E+00 0. -1.
         11    1    3    3    0    0  0.34019143520E+02 -0.98250571347E+01  0.44026327964E+01  0.35682167105E+02  0.51100000000E-03 0. -1.
        -11    1    3    3    0    0 -0.79294755360E+01 -0.11754050839E+02 -0.27119460539E+01  0.14435683048E+02  0.51100000000E-03 0.  1.
         12    1    3    3    0    0 -0.74693631848E+01  0.21057004053E+02  0.23044759030E+00  0.22343721985E+02  0.00000000000E+00 0. -1.
</event>
<event>
 7    1  0.1692604E-013  0.7246155E+02  0.7816164E-02  0.1226708E+00
        -11   -1    0    0    0    0  0.00000000000E+00  0.00000000000E+00  0.45593999997E+02  0.45594000000E+02  0.51100000000E-03 0. -1.
         11   -1    0    0    0    0 -0.00000000000E+00 -0.00000000000E+00 -0.45593999997E+02  0.45594000000E+02  0.51100000000E-03 0.  1.
    9900012    2    1    2    0    0  0.18184488221E+02  0.41194035988E+01 -0.17420698292E+01  0.72461550653E+02  0.69999974413E+02 0.  0.
         12    1    1    2    0    0 -0.18184488221E+02 -0.41194035988E+01  0.17420698292E+01  0.18726449347E+02  0.00000000000E+00 0. -1.
         11    1    3    3    0    0 -0.46023292392E+01 -0.15872693460E+02  0.90956282918E+01  0.18864100466E+02  0.51100000000E-03 0. -1.
        -11    1    3    3    0    0  0.31107846672E+02  0.88826452048E+00 -0.10203080149E+02  0.32750419588E+02  0.51100000000E-03 0.  1.
         12    1    3    3    0    0 -0.83210292118E+01  0.19103832539E+02 -0.63461797181E+00  0.20847030599E+02  0.00000000000E+00 0. -1.
</event>
<event>
 7    1  0.1692604E-013  0.7246152E+02  0.7816164E-02  0.1226708E+00
        -11   -1    0    0    0    0  0.00000000000E+00  0.00000000000E+00  0.45593999997E+02  0.45594000000E+02  0.51100000000E-03 0.  1.
         11   -1    0    0    0    0 -0.00000000000E+00 -0.00000000000E+00 -0.45593999997E+02  0.45594000000E+02  0.51100000000E-03 0. -1.
    9900012    2    1    2    0    0  0.17354920832E+02 -0.41818949576E+01  0.56568082964E+01  0.72461521351E+02  0.69999936242E+02 0.  0.
         12    1    1    2    0    0 -0.17354920832E+02  0.41818949576E+01 -0.56568082964E+01  0.18726478649E+02  0.00000000000E+00 0. -1.
         11    1    3    3    0    0 -0.12764040344E+02  0.79709871369E+01 -0.15621646156E+02  0.21690855002E+02  0.51100000000E-03 0. -1.
        -11    1    3    3    0    0 -0.11595849874E+01  0.16186779447E-02 -0.68723194653E+01  0.69694630394E+01  0.51100000000E-03 0.  1.
        -12    1    3    3    0    0  0.31278546163E+02 -0.12154500772E+02  0.28150773918E+02  0.43801203309E+02  0.00000000000E+00 0.  1.
</event>
<event>
 7    1  0.1692604E-013  0.7246147E+02  0.7816164E-02  0.1226708E+00
        -11   -1    0    0    0    0  0.00000000000E+00  0.00000000000E+00  0.45593999997E+02  0.45594000000E+02  0.51100000000E-03 0.  1.
         11   -1    0    0    0    0 -0.00000000000E+00 -0.00000000000E+00 -0.45593999997E+02  0.45594000000E+02  0.51100000000E-03 0. -1.
    9900012    2    1    2    0    0 -0.18204451952E+02  0.35650838138E+00  0.43764992113E+01  0.72461470304E+02  0.69999869744E+02 0.  0.
         12    1    1    2    0    0  0.18204451952E+02 -0.35650838138E+00 -0.43764992113E+01  0.18726529696E+02  0.00000000000E+00 0. -1.
         11    1    3    3    0    0 -0.46242689721E+01  0.89389984634E+01  0.28941673953E+02  0.30641639129E+02  0.51100000000E-03 0. -1.
        -11    1    3    3    0    0 -0.15956080283E+01 -0.15493273126E+02 -0.24973790812E+01  0.15774168113E+02  0.51100000000E-03 0.  1.
         12    1    3    3    0    0 -0.11984574952E+02  0.69107830436E+01 -0.22067795660E+02  0.26045663062E+02  0.00000000000E+00 0. -1.
</event>
<event>
 7    1  0.1692604E-013  0.7246159E+02  0.7816164E-02  0.1226708E+00
        -11   -1    0    0    0    0  0.00000000000E+00  0.00000000000E+00  0.45593999997E+02  0.45594000000E+02  0.51100000000E-03 0. -1.
         11   -1    0    0    0    0 -0.00000000000E+00 -0.00000000000E+00 -0.45593999997E+02  0.45594000000E+02  0.51100000000E-03 0.  1.
    9900012    2    1    2    0    0  0.67694891386E+00 -0.81640255338E+01 -0.16839505906E+02  0.72461587318E+02  0.70000022177E+02 0.  0.
         12    1    1    2    0    0 -0.67694891386E+00  0.81640255338E+01  0.16839505906E+02  0.18726412682E+02  0.00000000000E+00 0. -1.
         11    1    3    3    0    0 -0.14094159494E+01  0.18203372003E+02 -0.14514188644E+02  0.23324040770E+02  0.51100000000E-03 0. -1.
        -11    1    3    3    0    0  0.16118984130E+02 -0.37309645173E+01  0.10480951671E+02  0.19585507239E+02  0.51100000000E-03 0.  1.
        -12    1    3    3    0    0 -0.14032619267E+02 -0.22636433019E+02 -0.12806268934E+02  0.29552039309E+02  0.00000000000E+00 0.  1.
</event>
<event>
 7    1  0.1692604E-013  0.7246159E+02  0.7816164E-02  0.1226708E+00
        -11   -1    0    0    0    0  0.00000000000E+00  0.00000000000E+00  0.45593999997E+02  0.45594000000E+02  0.51100000000E-03 0. -1.
         11   -1    0    0    0    0 -0.00000000000E+00 -0.00000000000E+00 -0.45593999997E+02  0.45594000000E+02  0.51100000000E-03 0.  1.
    9900012    2    1    2    0    0 -0.17595899317E+02 -0.63637636463E+01 -0.75191909726E+00  0.72461587027E+02  0.70000021797E+02 0.  0.
         12    1    1    2    0    0  0.17595899317E+02  0.63637636463E+01  0.75191909726E+00  0.18726412973E+02  0.00000000000E+00 0. -1.
         11    1    3    3    0    0  0.14536530783E+02 -0.51788075623E+01 -0.10319979428E+02  0.18564286968E+02  0.51100000000E-03 0. -1.
        -11    1    3    3    0    0 -0.18236368509E+01 -0.15466247526E+02 -0.63315058549E+01  0.16811259041E+02  0.51100000000E-03 0.  1.
         12    1    3    3    0    0 -0.30308793249E+02  0.14281291442E+02  0.15899566186E+02  0.37086041018E+02  0.00000000000E+00 0. -1.
</event>
<event>
 7    1  0.1692604E-013  0.7246158E+02  0.7816164E-02  0.1226708E+00
        -11   -1    0    0    0    0  0.00000000000E+00  0.00000000000E+00  0.45593999997E+02  0.45594000000E+02  0.51100000000E-03 0.  1.
         11   -1    0    0    0    0 -0.00000000000E+00 -0.00000000000E+00 -0.45593999997E+02  0.45594000000E+02  0.51100000000E-03 0. -1.
    9900012    2    1    2    0    0 -0.55416811445E+01 -0.43077168080E+01  0.17361220344E+02  0.72461584810E+02  0.70000018910E+02 0.  0.
         12    1    1    2    0    0  0.55416811445E+01  0.43077168080E+01 -0.17361220344E+02  0.18726415190E+02  0.00000000000E+00 0. -1.
         11    1    3    3    0    0 -0.12146038264E+02  0.46085293212E+01 -0.21722158642E+02  0.25310412173E+02  0.51100000000E-03 0. -1.
        -11    1    3    3    0    0  0.29381440633E+01 -0.11747943202E+01 -0.29064663804E+01  0.42965543535E+01  0.51100000000E-03 0.  1.
        -12    1    3    3    0    0  0.36662130566E+01 -0.77414518090E+01  0.41989845367E+02  0.42854618284E+02  0.00000000000E+00 0.  1.
</event>
<event>
 7    1  0.1692604E-013  0.7246154E+02  0.7816164E-02  0.1226708E+00
        -11   -1    0    0    0    0  0.00000000000E+00  0.00000000000E+00  0.45593999997E+02  0.45594000000E+02  0.51100000000E-03 0.  1.
         11   -1    0    0    0    0 -0.00000000000E+00 -0.00000000000E+00 -0.45593999997E+02  0.45594000000E+02  0.51100000000E-03 0. -1.
    9900012    2    1    2    0    0  0.30098083063E+01  0.10468634436E+02  0.15232494681E+02  0.72461544190E+02  0.69999965995E+02 0.  0.
         12    1    1    2    0    0 -0.30098083063E+01 -0.10468634436E+02 -0.15232494681E+02  0.18726455810E+02  0.00000000000E+00 0. -1.
         11    1    3    3    0    0 -0.22966480569E+02 -0.42243342039E+01  0.13900805164E+02  0.27176030130E+02  0.51100000000E-03 0.  1.
        -11    1    3    3    0    0  0.77613373525E+01  0.12011458058E+02  0.16208133529E+02  0.21615204717E+02  0.51100000000E-03 0. -1.
         12    1    3    3    0    0  0.18214951522E+02  0.26815105816E+01 -0.14876444012E+02  0.23670309343E+02  0.00000000000E+00 0. -1.
</event>
<event>
 7    1  0.1692604E-013  0.7246154E+02  0.7816164E-02  0.1226708E+00
        -11   -1    0    0    0    0  0.00000000000E+00  0.00000000000E+00  0.45593999997E+02  0.45594000000E+02  0.51100000000E-03 0. -1.
         11   -1    0    0    0    0 -0.00000000000E+00 -0.00000000000E+00 -0.45593999997E+02  0.45594000000E+02  0.51100000000E-03 0.  1.
    9900012    2    1    2    0    0  0.90735976365E+01 -0.11931667661E+02 -0.11224325425E+02  0.72461538816E+02  0.69999958993E+02 0.  0.
         12    1    1    2    0    0 -0.90735976365E+01  0.11931667661E+02  0.11224325425E+02  0.18726461184E+02  0.00000000000E+00 0. -1.
         11    1    3    3    0    0 -0.11655408023E+02 -0.16703191153E+02  0.14546035357E+02  0.25028629123E+02  0.51100000000E-03 0. -1.
        -11    1    3    3    0    0 -0.16050383921E+01 -0.11042390264E+02 -0.13296546656E+02  0.17358245425E+02  0.51100000000E-03 0.  1.
        -12    1    3    3    0    0  0.22334044051E+02  0.15813913757E+02 -0.12473814126E+02  0.30074664268E+02  0.00000000000E+00 0.  1.
</event>
<event>
 7    1  0.1692604E-013  0.7246158E+02  0.7816164E-02  0.1226708E+00
        -11   -1    0    0    0    0  0.00000000000E+00  0.00000000000E+00  0.45593999997E+02  0.45594000000E+02  0.51100000000E-03 0. -1.
         11   -1    0    0    0    0 -0.00000000000E+00 -0.00000000000E+00 -0.45593999997E+02  0.45594000000E+02  0.51100000000E-03 0.  1.
    9900012    2    1    2    0    0 -0.44092741698E+01  0.16698411665E+02 -0.72388067546E+01  0.72461575513E+02  0.70000006798E+02 0.  0.
         12    1    1    2    0    0  0.44092741698E+01 -0.16698411665E+02  0.72388067546E+01  0.18726424487E+02  0.00000000000E+00 0. -1.
         11    1    3    3    0    0 -0.72673068706E+01 -0.18470399809E+02 -0.10324088147E+02  0.22373113654E+02  0.51100000000E-03 0. -1.
        -11    1    3    3    0    0 -0.72792039586E+01 -0.33761335154E+01 -0.49539011862E+01  0.94300702547E+01  0.51100000000E-03 0.  1.
         12    1    3    3    0    0  0.10137236659E+02  0.38544944989E+02  0.80391825786E+01  0.40658391604E+02  0.00000000000E+00 0. -1.
</event>
<event>
 7    1  0.1692604E-013  0.7246158E+02  0.7816164E-02  0.1226708E+00
        -11   -1    0    0    0    0  0.00000000000E+00  0.00000000000E+00  0.45593999997E+02  0.45594000000E+02  0.51100000000E-03 0.  1.
         11   -1    0    0    0    0 -0.00000000000E+00 -0.00000000000E+00 -0.45593999997E+02  0.45594000000E+02  0.51100000000E-03 0. -1.
    9900012    2    1    2    0    0  0.65088079221E+01 -0.13522462538E+01  0.17506726992E+02  0.72461584420E+02  0.70000018402E+02 0.  0.
         12    1    1    2    0    0 -0.65088079221E+01  0.13522462538E+01 -0.17506726992E+02  0.18726415580E+02  0.00000000000E+00 0. -1.
         11    1    3    3    0    0  0.38085071689E+01 -0.14437694946E+01 -0.15931198438E+02  0.16443609127E+02  0.51100000000E-03 0. -1.
        -11    1    3    3    0    0 -0.33183942144E+01 -0.14779922032E+01 -0.10774379401E+02  0.11370288161E+02  0.51100000000E-03 0.  1.
        -12    1    3    3    0    0  0.60186949677E+01  0.15695154440E+01  0.44212304831E+02  0.44647687132E+02  0.00000000000E+00 0.  1.
</event>
<event>
 7    1  0.1692604E-013  0.7246161E+02  0.7816164E-02  0.1226708E+00
        -11   -1    0    0    0    0  0.00000000000E+00  0.00000000000E+00  0.45593999997E+02  0.45594000000E+02  0.51100000000E-03 0.  1.
         11   -1    0    0    0    0 -0.00000000000E+00 -0.00000000000E+00 -0.45593999997E+02  0.45594000000E+02  0.51100000000E-03 0. -1.
    9900012    2    1    2    0    0  0.28440901756E+01  0.74091396186E+01 -0.16961526114E+02  0.72461613084E+02  0.70000055741E+02 0.  0.
         12    1    1    2    0    0 -0.28440901756E+01 -0.74091396186E+01  0.16961526114E+02  0.18726386916E+02  0.00000000000E+00 0. -1.
         11    1    3    3    0    0 -0.79835669835E+01 -0.13019685986E+02 -0.12364244156E+02  0.19650040681E+02  0.51100000000E-03 0. -1.
        -11    1    3    3    0    0  0.54700678739E+01 -0.48422438351E+01 -0.20984353184E+02  0.22219632011E+02  0.51100000000E-03 0.  1.
        -12    1    3    3    0    0  0.53575892851E+01  0.25271069439E+02  0.16387071226E+02  0.30591940392E+02  0.00000000000E+00 0.  1.
</event>
<event>
 7    1  0.1692604E-013  0.7246163E+02  0.7816164E-02  0.1226708E+00
        -11   -1    0    0    0    0  0.00000000000E+00  0.00000000000E+00  0.45593999997E+02  0.45594000000E+02  0.51100000000E-03 0.  1.
         11   -1    0    0    0    0 -0.00000000000E+00 -0.00000000000E+00 -0.45593999997E+02  0.45594000000E+02  0.51100000000E-03 0. -1.
    9900012    2    1    2    0    0  0.16146824796E+02  0.29346228984E+01  0.90191539078E+01  0.72461625557E+02  0.70000071990E+02 0.  0.
         12    1    1    2    0    0 -0.16146824796E+02 -0.29346228984E+01 -0.90191539078E+01  0.18726374443E+02  0.00000000000E+00 0. -1.
         11    1    3    3    0    0  0.34010792283E+01  0.12964809500E+01  0.71805946736E+01  0.80504125918E+01  0.51100000000E-03 0. -1.
        -11    1    3    3    0    0  0.23080610721E+02 -0.28853035571E+00  0.27958084700E+02  0.36255376724E+02  0.51100000000E-03 0.  1.
         12    1    3    3    0    0 -0.10334865153E+02  0.19266723042E+01 -0.26119525466E+02  0.28155836242E+02  0.00000000000E+00 0. -1.
</event>
<event>
 7    1  0.1692604E-013  0.7246158E+02  0.7816164E-02  0.1226708E+00
        -11   -1    0    0    0    0  0.00000000000E+00  0.00000000000E+00  0.45593999997E+02  0.45594000000E+02  0.51100000000E-03 0.  1.
         11   -1    0    0    0    0 -0.00000000000E+00 -0.00000000000E+00 -0.45593999997E+02  0.45594000000E+02  0.51100000000E-03 0. -1.
    9900012    2    1    2    0    0 -0.15351739314E+02  0.10487365479E+02 -0.22400864125E+01  0.72461582249E+02  0.70000015573E+02 0.  0.
         12    1    1    2    0    0  0.15351739314E+02 -0.10487365479E+02  0.22400864125E+01  0.18726417751E+02  0.00000000000E+00 0. -1.
         11    1    3    3    0    0 -0.26231551980E+01  0.63606009139E+01 -0.45020729760E+01  0.82223383852E+01  0.51100000000E-03 0. -1.
        -11    1    3    3    0    0  0.37714760582E+01  0.29367071725E+02  0.12854007558E+02  0.32278079929E+02  0.51100000000E-03 0.  1.
         12    1    3    3    0    0 -0.16500060174E+02 -0.25240307160E+02 -0.10592020995E+02  0.31961163934E+02  0.00000000000E+00 0. -1.
</event>
<event>
 7    1  0.1692604E-013  0.7246166E+02  0.7816164E-02  0.1226708E+00
        -11   -1    0    0    0    0  0.00000000000E+00  0.00000000000E+00  0.45593999997E+02  0.45594000000E+02  0.51100000000E-03 0.  1.
         11   -1    0    0    0    0 -0.00000000000E+00 -0.00000000000E+00 -0.45593999997E+02  0.45594000000E+02  0.51100000000E-03 0. -1.
    9900012    2    1    2    0    0 -0.94469583111E+01 -0.21063494288E+01  0.16031038204E+02  0.72461657187E+02  0.70000113194E+02 0.  0.
         12    1    1    2    0    0  0.94469583111E+01  0.21063494288E+01 -0.16031038204E+02  0.18726342813E+02  0.00000000000E+00 0. -1.
         11    1    3    3    0    0  0.22007299037E+02 -0.12472342398E+02 -0.29064865656E+01  0.25462289768E+02  0.51100000000E-03 0. -1.
        -11    1    3    3    0    0  0.28128152413E+01 -0.11486596331E+01  0.90137187336E+01  0.95120173573E+01  0.51100000000E-03 0.  1.
        -12    1    3    3    0    0 -0.34267072590E+02  0.11514652603E+02  0.99238060358E+01  0.37487350062E+02  0.00000000000E+00 0.  1.
</event>
<event>
 7    1  0.1692604E-013  0.7246153E+02  0.7816164E-02  0.1226708E+00
        -11   -1    0    0    0    0  0.00000000000E+00  0.00000000000E+00  0.45593999997E+02  0.45594000000E+02  0.51100000000E-03 0.  1.
         11   -1    0    0    0    0 -0.00000000000E+00 -0.00000000000E+00 -0.45593999997E+02  0.45594000000E+02  0.51100000000E-03 0. -1.
    9900012    2    1    2    0    0  0.24216944635E+01 -0.18148605863E+02  0.39298980226E+01  0.72461532172E+02  0.69999950339E+02 0.  0.
         12    1    1    2    0    0 -0.24216944635E+01  0.18148605863E+02 -0.39298980226E+01  0.18726467828E+02  0.00000000000E+00 0. -1.
         11    1    3    3    0    0  0.38010446831E+01  0.20197774438E+01  0.42213670707E+01  0.60288789847E+01  0.51100000000E-03 0. -1.
        -11    1    3    3    0    0  0.22892389560E+02  0.61377202338E+01  0.14410518453E+02  0.27737991128E+02  0.51100000000E-03 0.  1.
         12    1    3    3    0    0 -0.24271739780E+02 -0.26306103540E+02 -0.14701987501E+02  0.38694662060E+02  0.00000000000E+00 0. -1.
</event>
<event>
 7    1  0.1692604E-013  0.7246155E+02  0.7816164E-02  0.1226708E+00
        -11   -1    0    0    0    0  0.00000000000E+00  0.00000000000E+00  0.45593999997E+02  0.45594000000E+02  0.51100000000E-03 0.  1.
         11   -1    0    0    0    0 -0.00000000000E+00 -0.00000000000E+00 -0.45593999997E+02  0.45594000000E+02  0.51100000000E-03 0. -1.
    9900012    2    1    2    0    0 -0.18458251076E+02  0.11078965688E+00  0.31560540018E+01  0.72461548548E+02  0.69999971671E+02 0.  0.
         12    1    1    2    0    0  0.18458251076E+02 -0.11078965688E+00 -0.31560540018E+01  0.18726451452E+02  0.00000000000E+00 0. -1.
         11    1    3    3    0    0 -0.16498732635E+02  0.12470428162E+02  0.14856860065E+02  0.25464603833E+02  0.51100000000E-03 0. -1.
        -11    1    3    3    0    0 -0.10348532203E+02 -0.13735617132E+02  0.12556081405E+02  0.21293531348E+02  0.51100000000E-03 0.  1.
         12    1    3    3    0    0  0.83890137627E+01  0.13759786260E+01 -0.24256887468E+02  0.25703413367E+02  0.00000000000E+00 0. -1.
</event>
<event>
 7    1  0.1692604E-013  0.7246158E+02  0.7816164E-02  0.1226708E+00
        -11   -1    0    0    0    0  0.00000000000E+00  0.00000000000E+00  0.45593999997E+02  0.45594000000E+02  0.51100000000E-03 0.  1.
         11   -1    0    0    0    0 -0.00000000000E+00 -0.00000000000E+00 -0.45593999997E+02  0.45594000000E+02  0.51100000000E-03 0. -1.
    9900012    2    1    2    0    0  0.11135783807E+02  0.99833839540E+01  0.11269663239E+02  0.72461576270E+02  0.70000007785E+02 0.  0.
         12    1    1    2    0    0 -0.11135783807E+02 -0.99833839540E+01 -0.11269663239E+02  0.18726423730E+02  0.00000000000E+00 0. -1.
         11    1    3    3    0    0  0.72475300870E+01 -0.56650707881E+01  0.40605455898E+01  0.10055234962E+02  0.51100000000E-03 0. -1.
        -11    1    3    3    0    0  0.79636524950E+01  0.55507357187E+01  0.33006819366E+02  0.34404658885E+02  0.51100000000E-03 0.  1.
         12    1    3    3    0    0 -0.40753987747E+01  0.10097719023E+02 -0.25797701717E+02  0.28001682423E+02  0.00000000000E+00 0. -1.
</event>
<event>
 7    1  0.1692604E-013  0.7246156E+02  0.7816164E-02  0.1226708E+00
        -11   -1    0    0    0    0  0.00000000000E+00  0.00000000000E+00  0.45593999997E+02  0.45594000000E+02  0.51100000000E-03 0. -1.
         11   -1    0    0    0    0 -0.00000000000E+00 -0.00000000000E+00 -0.45593999997E+02  0.45594000000E+02  0.51100000000E-03 0.  1.
    9900012    2    1    2    0    0  0.12520500501E+02  0.10813756576E+02 -0.87737896786E+01  0.72461557481E+02  0.69999983308E+02 0.  0.
         12    1    1    2    0    0 -0.12520500501E+02 -0.10813756576E+02  0.87737896786E+01  0.18726442519E+02  0.00000000000E+00 0. -1.
         11    1    3    3    0    0  0.87678217080E+01  0.54342394768E+01 -0.28210843617E+02  0.30037599006E+02  0.51100000000E-03 0. -1.
        -11    1    3    3    0    0  0.17601621080E+02  0.84696125712E+01  0.15535905249E+01  0.19595026040E+02  0.51100000000E-03 0.  1.
         12    1    3    3    0    0 -0.13848942286E+02 -0.30900954717E+01  0.17883463413E+02  0.22828932435E+02  0.00000000000E+00 0. -1.
</event>
<event>
 7    1  0.1692604E-013  0.7246153E+02  0.7816164E-02  0.1226708E+00
        -11   -1    0    0    0    0  0.00000000000E+00  0.00000000000E+00  0.45593999997E+02  0.45594000000E+02  0.51100000000E-03 0. -1.
         11   -1    0    0    0    0 -0.00000000000E+00 -0.00000000000E+00 -0.45593999997E+02  0.45594000000E+02  0.51100000000E-03 0.  1.
    9900012    2    1    2    0    0  0.11349109648E+02 -0.86799672417E+01 -0.12105228193E+02  0.72461530212E+02  0.69999947785E+02 0.  0.
         12    1    1    2    0    0 -0.11349109648E+02  0.86799672417E+01  0.12105228193E+02  0.18726469788E+02  0.00000000000E+00 0. -1.
         11    1    3    3    0    0 -0.53722023874E+01 -0.27357410378E+00 -0.18217530397E+01  0.56792768625E+01  0.51100000000E-03 0. -1.
        -11    1    3    3    0    0  0.21673193428E+02  0.14563206234E+00 -0.34434489754E+02  0.40687622282E+02  0.51100000000E-03 0.  1.
         12    1    3    3    0    0 -0.49518813926E+01 -0.85520252003E+01  0.24151014600E+02  0.26094631068E+02  0.00000000000E+00 0. -1.
</event>
<event>
 7    1  0.1692604E-013  0.7246159E+02  0.7816164E-02  0.1226708E+00
        -11   -1    0    0    0    0  0.00000000000E+00  0.00000000000E+00  0.45593999997E+02  0.45594000000E+02  0.51100000000E-03 0.  1.
         11   -1    0    0    0    0 -0.00000000000E+00 -0.00000000000E+00 -0.45593999997E+02  0.45594000000E+02  0.51100000000E-03 0. -1.
    9900012    2    1    2    0    0  0.66686188515E+01 -0.10896170109E+02  0.13692384744E+02  0.72461590829E+02  0.70000026751E+02 0.  0.
         12    1    1    2    0    0 -0.66686188515E+01  0.10896170109E+02 -0.13692384744E+02  0.18726409171E+02  0.00000000000E+00 0. -1.
         11    1    3    3    0    0  0.36996440131E+01  0.89107184804E+01 -0.34880240729E+01  0.10259365568E+02  0.51100000000E-03 0. -1.
        -11    1    3    3    0    0 -0.95861698996E-01  0.30321163058E+01  0.33708011433E+02  0.33844245505E+02  0.51100000000E-03 0.  1.
         12    1    3    3    0    0  0.30648365374E+01 -0.22839004896E+02 -0.16527602616E+02  0.28357979756E+02  0.00000000000E+00 0. -1.
</event>
<event>
 7    1  0.1692604E-013  0.7246163E+02  0.7816164E-02  0.1226708E+00
        -11   -1    0    0    0    0  0.00000000000E+00  0.00000000000E+00  0.45593999997E+02  0.45594000000E+02  0.51100000000E-03 0. -1.
         11   -1    0    0    0    0 -0.00000000000E+00 -0.00000000000E+00 -0.45593999997E+02  0.45594000000E+02  0.51100000000E-03 0.  1.
    9900012    2    1    2    0    0  0.12826879656E+01 -0.15924465794E+02 -0.97694903881E+01  0.72461632448E+02  0.70000080967E+02 0.  0.
         12    1    1    2    0    0 -0.12826879656E+01  0.15924465794E+02  0.97694903881E+01  0.18726367552E+02  0.00000000000E+00 0. -1.
         11    1    3    3    0    0  0.70284621046E+01 -0.14676339205E+01 -0.20446340618E+02  0.21670396254E+02  0.51100000000E-03 0. -1.
        -11    1    3    3    0    0  0.10498993317E+02 -0.22428801644E+01 -0.14747713942E+02  0.18241558017E+02  0.51100000000E-03 0.  1.
         12    1    3    3    0    0 -0.16244767456E+02 -0.12213951709E+02  0.25424564173E+02  0.32549678177E+02  0.00000000000E+00 0. -1.
</event>
<event>
 7    1  0.1692604E-013  0.7246152E+02  0.7816164E-02  0.1226708E+00
        -11   -1    0    0    0    0  0.00000000000E+00  0.00000000000E+00  0.45593999997E+02  0.45594000000E+02  0.51100000000E-03 0.  1.
         11   -1    0    0    0    0 -0.00000000000E+00 -0.00000000000E+00 -0.45593999997E+02  0.45594000000E+02  0.51100000000E-03 0. -1.
    9900012    2    1    2    0    0  0.22586895685E+01  0.11944109246E+02 -0.14244917732E+02  0.72461518605E+02  0.69999932665E+02 0.  0.
         12    1    1    2    0    0 -0.22586895685E+01 -0.11944109246E+02  0.14244917732E+02  0.18726481395E+02  0.00000000000E+00 0. -1.
         11    1    3    3    0    0 -0.17166622737E+02  0.14904933400E+02  0.12423738620E+02  0.25907513532E+02  0.51100000000E-03 0. -1.
        -11    1    3    3    0    0 -0.33088615005E-03  0.12925785488E+02 -0.72232627231E+01  0.14807142034E+02  0.51100000000E-03 0.  1.
        -12    1    3    3    0    0  0.19425643192E+02 -0.15886609643E+02 -0.19445393629E+02  0.31746863038E+02  0.00000000000E+00 0.  1.
</event>
<event>
 7    1  0.1692604E-013  0.7246158E+02  0.7816164E-02  0.1226708E+00
        -11   -1    0    0    0    0  0.00000000000E+00  0.00000000000E+00  0.45593999997E+02  0.45594000000E+02  0.51100000000E-03 0.  1.
         11   -1    0    0    0    0 -0.00000000000E+00 -0.00000000000E+00 -0.45593999997E+02  0.45594000000E+02  0.51100000000E-03 0. -1.
    9900012    2    1    2    0    0  0.17233635613E+02  0.69154555621E+01 -0.24201342940E+01  0.72461580906E+02  0.70000013824E+02 0.  0.
         12    1    1    2    0    0 -0.17233635613E+02 -0.69154555621E+01  0.24201342940E+01  0.18726419094E+02  0.00000000000E+00 0. -1.
         11    1    3    3    0    0 -0.57882680938E+01  0.10826078813E+02  0.60347834189E+01  0.13679424007E+02  0.51100000000E-03 0. -1.
        -11    1    3    3    0    0 -0.13347736591E+02  0.11885964566E+02  0.13882504910E+01  0.17926669112E+02  0.51100000000E-03 0.  1.
        -12    1    3    3    0    0  0.36369640298E+02 -0.15796587816E+02 -0.98431682039E+01  0.40855487787E+02  0.00000000000E+00 0.  1.
</event>
<event>
 7    1  0.1692604E-013  0.7246173E+02  0.7816164E-02  0.1226708E+00
        -11   -1    0    0    0    0  0.00000000000E+00  0.00000000000E+00  0.45593999997E+02  0.45594000000E+02  0.51100000000E-03 0.  1.
         11   -1    0    0    0    0 -0.00000000000E+00 -0.00000000000E+00 -0.45593999997E+02  0.45594000000E+02  0.51100000000E-03 0. -1.
    9900012    2    1    2    0    0 -0.32309271661E+01 -0.18421654131E+02  0.93637238154E+00  0.72461734368E+02  0.70000213736E+02 0.  0.
         12    1    1    2    0    0  0.32309271661E+01  0.18421654131E+02 -0.93637238154E+00  0.18726265632E+02  0.00000000000E+00 0. -1.
         11    1    3    3    0    0  0.19716641020E+02 -0.17257046222E+01 -0.22904766182E+02  0.30271311562E+02  0.51100000000E-03 0. -1.
        -11    1    3    3    0    0 -0.76108497867E+00  0.41888460827E+01  0.20173631322E+01  0.47112032558E+01  0.51100000000E-03 0.  1.
        -12    1    3    3    0    0 -0.22186483208E+02 -0.20884795592E+02  0.21823775431E+02  0.37479219550E+02  0.00000000000E+00 0.  1.
</event>
<event>
 7    1  0.1692604E-013  0.7246160E+02  0.7816164E-02  0.1226708E+00
        -11   -1    0    0    0    0  0.00000000000E+00  0.00000000000E+00  0.45593999997E+02  0.45594000000E+02  0.51100000000E-03 0. -1.
         11   -1    0    0    0    0 -0.00000000000E+00 -0.00000000000E+00 -0.45593999997E+02  0.45594000000E+02  0.51100000000E-03 0.  1.
    9900012    2    1    2    0    0  0.17951702405E+02  0.49821354770E+01  0.18954824289E+01  0.72461597601E+02  0.70000035572E+02 0.  0.
         12    1    1    2    0    0 -0.17951702405E+02 -0.49821354770E+01 -0.18954824289E+01  0.18726402399E+02  0.00000000000E+00 0. -1.
         11    1    3    3    0    0  0.21908385541E+02  0.15669954578E+01 -0.49821656254E+01  0.22522317961E+02  0.51100000000E-03 0.  1.
        -11    1    3    3    0    0  0.14044911468E+01 -0.18000849897E+02  0.17759769545E+02  0.25326124988E+02  0.51100000000E-03 0. -1.
        -12    1    3    3    0    0 -0.53611742821E+01  0.21415989916E+02 -0.10882121490E+02  0.24613154652E+02  0.00000000000E+00 0.  1.
</event>
<event>
 7    1  0.1692604E-013  0.7246208E+02  0.7816164E-02  0.1226707E+00
        -11   -1    0    0    0    0  0.00000000000E+00  0.00000000000E+00  0.45593999997E+02  0.45594000000E+02  0.51100000000E-03 0. -1.
         11   -1    0    0    0    0 -0.00000000000E+00 -0.00000000000E+00 -0.45593999997E+02  0.45594000000E+02  0.51100000000E-03 0.  1.
    9900012    2    1    2    0    0 -0.14866646803E+02 -0.55321348241E+00 -0.11372636654E+02  0.72462079548E+02  0.70000663394E+02 0.  0.
         12    1    1    2    0    0  0.14866646803E+02  0.55321348241E+00  0.11372636654E+02  0.18725920452E+02  0.00000000000E+00 0. -1.
         11    1    3    3    0    0  0.62418414478E+01 -0.34970441498E+01 -0.78223549593E+01  0.10600902783E+02  0.51100000000E-03 0. -1.
        -11    1    3    3    0    0  0.17293285627E+02  0.13469330392E+02 -0.48469711799E+00  0.21925225666E+02  0.51100000000E-03 0.  1.
         12    1    3    3    0    0 -0.38401773877E+02 -0.10525499724E+02 -0.30655845763E+01  0.39935951099E+02  0.00000000000E+00 0. -1.
</event>
<event>
 7    1  0.1692604E-013  0.7246129E+02  0.7816164E-02  0.1226709E+00
        -11   -1    0    0    0    0  0.00000000000E+00  0.00000000000E+00  0.45593999997E+02  0.45594000000E+02  0.51100000000E-03 0.  1.
         11   -1    0    0    0    0 -0.00000000000E+00 -0.00000000000E+00 -0.45593999997E+02  0.45594000000E+02  0.51100000000E-03 0. -1.
    9900012    2    1    2    0    0  0.96764720718E+01  0.35361553878E+01  0.15638127420E+02  0.72461293512E+02  0.69999639438E+02 0.  0.
         12    1    1    2    0    0 -0.96764720718E+01 -0.35361553878E+01 -0.15638127420E+02  0.18726706488E+02  0.00000000000E+00 0. -1.
         11    1    3    3    0    0  0.20472050774E+02 -0.68091524862E+01 -0.12335643382E+02  0.24852314145E+02  0.51100000000E-03 0. -1.
        -11    1    3    3    0    0 -0.85822969341E+01  0.21813531308E+02  0.85650403716E+01  0.24956880527E+02  0.51100000000E-03 0.  1.
        -12    1    3    3    0    0 -0.22132817681E+01 -0.11468223434E+02  0.19408730430E+02  0.22652098840E+02  0.00000000000E+00 0.  1.
</event>
<event>
 7    1  0.1692604E-013  0.7246163E+02  0.7816164E-02  0.1226708E+00
        -11   -1    0    0    0    0  0.00000000000E+00  0.00000000000E+00  0.45593999997E+02  0.45594000000E+02  0.51100000000E-03 0.  1.
         11   -1    0    0    0    0 -0.00000000000E+00 -0.00000000000E+00 -0.45593999997E+02  0.45594000000E+02  0.51100000000E-03 0. -1.
    9900012    2    1    2    0    0  0.52656501137E+01  0.17651938361E+02  0.33702872072E+01  0.72461632630E+02  0.70000081204E+02 0.  0.
         12    1    1    2    0    0 -0.52656501137E+01 -0.17651938361E+02 -0.33702872072E+01  0.18726367370E+02  0.00000000000E+00 0. -1.
         11    1    3    3    0    0  0.14658944347E+02 -0.28417953158E+01 -0.75167732642E+01  0.16717126863E+02  0.51100000000E-03 0. -1.
        -11    1    3    3    0    0 -0.27397688200E+02  0.34846722699E+01 -0.22464369085E+01  0.27709614552E+02  0.51100000000E-03 0.  1.
        -12    1    3    3    0    0  0.18004393967E+02  0.17009061406E+02  0.13133497380E+02  0.28034891215E+02  0.00000000000E+00 0.  1.
</event>
<event>
 7    1  0.1692604E-013  0.7246148E+02  0.7816164E-02  0.1226708E+00
        -11   -1    0    0    0    0  0.00000000000E+00  0.00000000000E+00  0.45593999997E+02  0.45594000000E+02  0.51100000000E-03 0. -1.
         11   -1    0    0    0    0 -0.00000000000E+00 -0.00000000000E+00 -0.45593999997E+02  0.45594000000E+02  0.51100000000E-03 0.  1.
    9900012    2    1    2    0    0  0.13048818323E+02 -0.13393970227E+02 -0.10062653314E+01  0.72461476885E+02  0.69999878316E+02 0.  0.
         12    1    1    2    0    0 -0.13048818323E+02  0.13393970227E+02  0.10062653314E+01  0.18726523115E+02  0.00000000000E+00 0. -1.
         11    1    3    3    0    0  0.17205082820E+02 -0.10348325707E+02  0.50357832212E+01  0.20699319619E+02  0.51100000000E-03 0. -1.
        -11    1    3    3    0    0  0.71841818060E+01 -0.45850589823E+01 -0.26764941578E+02  0.28089096319E+02  0.51100000000E-03 0.  1.
         12    1    3    3    0    0 -0.11340446303E+02  0.15394144619E+01  0.20722893026E+02  0.23673060947E+02  0.00000000000E+00 0. -1.
</event>
<event>
 7    1  0.1692604E-013  0.7246156E+02  0.7816164E-02  0.1226708E+00
        -11   -1    0    0    0    0  0.00000000000E+00  0.00000000000E+00  0.45593999997E+02  0.45594000000E+02  0.51100000000E-03 0.  1.
         11   -1    0    0    0    0 -0.00000000000E+00 -0.00000000000E+00 -0.45593999997E+02  0.45594000000E+02  0.51100000000E-03 0. -1.
    9900012    2    1    2    0    0 -0.13453041829E+02 -0.10823169906E+02  0.72494179135E+01  0.72461564104E+02  0.69999991936E+02 0.  0.
         12    1    1    2    0    0  0.13453041829E+02  0.10823169906E+02 -0.72494179135E+01  0.18726435896E+02  0.00000000000E+00 0. -1.
         11    1    3    3    0    0 -0.70585353685E+01 -0.12783233696E+02 -0.15545172477E+02  0.21328065381E+02  0.51100000000E-03 0. -1.
        -11    1    3    3    0    0 -0.20904061136E+02 -0.63739659812E+01 -0.11926821227E+01  0.21886747251E+02  0.51100000000E-03 0.  1.
         12    1    3    3    0    0  0.14509554675E+02  0.83340297713E+01  0.23987272513E+02  0.29246751473E+02  0.00000000000E+00 0. -1.
</event>
<event>
 7    1  0.1692604E-013  0.7246154E+02  0.7816164E-02  0.1226708E+00
        -11   -1    0    0    0    0  0.00000000000E+00  0.00000000000E+00  0.45593999997E+02  0.45594000000E+02  0.51100000000E-03 0.  1.
         11   -1    0    0    0    0 -0.00000000000E+00 -0.00000000000E+00 -0.45593999997E+02  0.45594000000E+02  0.51100000000E-03 0. -1.
    9900012    2    1    2    0    0 -0.13596592499E+02  0.29803582045E+01  0.12527194428E+02  0.72461535762E+02  0.69999955016E+02 0.  0.
         12    1    1    2    0    0  0.13596592499E+02 -0.29803582045E+01 -0.12527194428E+02  0.18726464238E+02  0.00000000000E+00 0. -1.
         11    1    3    3    0    0 -0.56440638208E+01  0.19692778824E+02 -0.72146570471E+01  0.21718938068E+02  0.51100000000E-03 0. -1.
        -11    1    3    3    0    0 -0.24322330808E+02 -0.14783063871E+01  0.10952326822E+02  0.26715438023E+02  0.51100000000E-03 0.  1.
        -12    1    3    3    0    0  0.16369802130E+02 -0.15234114233E+02  0.87895246532E+01  0.24027159671E+02  0.00000000000E+00 0.  1.
</event>
<event>
 7    1  0.1692604E-013  0.7246161E+02  0.7816164E-02  0.1226708E+00
        -11   -1    0    0    0    0  0.00000000000E+00  0.00000000000E+00  0.45593999997E+02  0.45594000000E+02  0.51100000000E-03 0. -1.
         11   -1    0    0    0    0 -0.00000000000E+00 -0.00000000000E+00 -0.45593999997E+02  0.45594000000E+02  0.51100000000E-03 0.  1.
    9900012    2    1    2    0    0 -0.47917650989E+01 -0.11111965543E-01 -0.18102939430E+02  0.72461613476E+02  0.70000056252E+02 0.  0.
         12    1    1    2    0    0  0.47917650989E+01  0.11111965543E-01  0.18102939430E+02  0.18726386524E+02  0.00000000000E+00 0. -1.
         11    1    3    3    0    0 -0.63899798727E+01  0.25045621349E+02  0.14566352631E+01  0.25888931575E+02  0.51100000000E-03 0. -1.
        -11    1    3    3    0    0 -0.24277137289E+00  0.79725024864E+01 -0.85869529101E+01  0.11719876039E+02  0.51100000000E-03 0.  1.
        -12    1    3    3    0    0  0.18409861468E+01 -0.33029235801E+02 -0.10972621783E+02  0.34852805861E+02  0.00000000000E+00 0.  1.
</event>
<event>
 7    1  0.1692604E-013  0.7246156E+02  0.7816164E-02  0.1226708E+00
        -11   -1    0    0    0    0  0.00000000000E+00  0.00000000000E+00  0.45593999997E+02  0.45594000000E+02  0.51100000000E-03 0.  1.
         11   -1    0    0    0    0 -0.00000000000E+00 -0.00000000000E+00 -0.45593999997E+02  0.45594000000E+02  0.51100000000E-03 0. -1.
    9900012    2    1    2    0    0 -0.12102424634E+01  0.75029267599E+01  0.17114933217E+02  0.72461560514E+02  0.69999987259E+02 0.  0.
         12    1    1    2    0    0  0.12102424634E+01 -0.75029267599E+01 -0.17114933217E+02  0.18726439486E+02  0.00000000000E+00 0. -1.
         11    1    3    3    0    0 -0.15551242267E+02 -0.57283219597E+01 -0.12034606448E+02  0.20481371076E+02  0.51100000000E-03 0. -1.
        -11    1    3    3    0    0  0.10757051656E+02 -0.12067957302E+02  0.52610206336E+01  0.17000826219E+02  0.51100000000E-03 0.  1.
        -12    1    3    3    0    0  0.35839481474E+01  0.25299206022E+02  0.23888519032E+02  0.34979363219E+02  0.00000000000E+00 0.  1.
</event>
<event>
 7    1  0.1692604E-013  0.7246161E+02  0.7816164E-02  0.1226708E+00
        -11   -1    0    0    0    0  0.00000000000E+00  0.00000000000E+00  0.45593999997E+02  0.45594000000E+02  0.51100000000E-03 0. -1.
         11   -1    0    0    0    0 -0.00000000000E+00 -0.00000000000E+00 -0.45593999997E+02  0.45594000000E+02  0.51100000000E-03 0.  1.
    9900012    2    1    2    0    0  0.10721743714E+02  0.90961918301E+00 -0.15326271644E+02  0.72461606919E+02  0.70000047710E+02 0.  0.
         12    1    1    2    0    0 -0.10721743714E+02 -0.90961918301E+00  0.15326271644E+02  0.18726393081E+02  0.00000000000E+00 0. -1.
         11    1    3    3    0    0  0.31641159209E+01  0.18313111830E+02  0.50260796220E+01  0.19252095239E+02  0.51100000000E-03 0. -1.
        -11    1    3    3    0    0  0.12093794566E+02  0.10697182206E+02 -0.18687525241E+02  0.24696420267E+02  0.51100000000E-03 0.  1.
        -12    1    3    3    0    0 -0.45361667724E+01 -0.28100674853E+02 -0.16648260254E+01  0.28513091412E+02  0.00000000000E+00 0.  1.
</event>
<event>
 7    1  0.1692604E-013  0.7246157E+02  0.7816164E-02  0.1226708E+00
        -11   -1    0    0    0    0  0.00000000000E+00  0.00000000000E+00  0.45593999997E+02  0.45594000000E+02  0.51100000000E-03 0. -1.
         11   -1    0    0    0    0 -0.00000000000E+00 -0.00000000000E+00 -0.45593999997E+02  0.45594000000E+02  0.51100000000E-03 0.  1.
    9900012    2    1    2    0    0 -0.42039085115E+01 -0.88201857084E+00 -0.18227132973E+02  0.72461570016E+02  0.69999999637E+02 0.  0.
         12    1    1    2    0    0  0.42039085115E+01  0.88201857084E+00  0.18227132973E+02  0.18726429984E+02  0.00000000000E+00 0. -1.
         11    1    3    3    0    0  0.92725382565E+00 -0.83018292439E+01 -0.13957234966E+02  0.16266055963E+02  0.51100000000E-03 0. -1.
        -11    1    3    3    0    0  0.11569401116E+02  0.27372559326E+02 -0.51545164240E+01  0.30160853537E+02  0.51100000000E-03 0.  1.
         12    1    3    3    0    0 -0.16700563453E+02 -0.19952748653E+02  0.88461841671E+00  0.26034660516E+02  0.00000000000E+00 0. -1.
</event>
<event>
 7    1  0.1692604E-013  0.7246161E+02  0.7816164E-02  0.1226708E+00
        -11   -1    0    0    0    0  0.00000000000E+00  0.00000000000E+00  0.45593999997E+02  0.45594000000E+02  0.51100000000E-03 0.  1.
         11   -1    0    0    0    0 -0.00000000000E+00 -0.00000000000E+00 -0.45593999997E+02  0.45594000000E+02  0.51100000000E-03 0. -1.
    9900012    2    1    2    0    0  0.95700189983E+01 -0.10321195992E+02  0.12351738869E+02  0.72461606769E+02  0.70000047515E+02 0.  0.
         12    1    1    2    0    0 -0.95700189983E+01  0.10321195992E+02 -0.12351738869E+02  0.18726393231E+02  0.00000000000E+00 0. -1.
         11    1    3    3    0    0 -0.16874456646E+02 -0.55509985132E+01  0.11573524199E+02  0.21201588012E+02  0.51100000000E-03 0. -1.
        -11    1    3    3    0    0 -0.85020916349E+01  0.29654162672E+01  0.10828598191E+02  0.14083245181E+02  0.51100000000E-03 0.  1.
         12    1    3    3    0    0  0.34946567279E+02 -0.77356137458E+01 -0.10050383520E+02  0.37176773576E+02  0.00000000000E+00 0. -1.
</event>
<event>
 7    1  0.1692604E-013  0.7246157E+02  0.7816164E-02  0.1226708E+00
        -11   -1    0    0    0    0  0.00000000000E+00  0.00000000000E+00  0.45593999997E+02  0.45594000000E+02  0.51100000000E-03 0.  1.
         11   -1    0    0    0    0 -0.00000000000E+00 -0.00000000000E+00 -0.45593999997E+02  0.45594000000E+02  0.51100000000E-03 0. -1.
    9900012    2    1    2    0    0 -0.11933070355E+02 -0.14359322030E+02  0.14460310821E+01  0.72461566726E+02  0.69999995352E+02 0.  0.
         12    1    1    2    0    0  0.11933070355E+02  0.14359322030E+02 -0.14460310821E+01  0.18726433274E+02  0.00000000000E+00 0. -1.
         11    1    3    3    0    0  0.73079373645E+00  0.53852690468E+01  0.57491737112E+01  0.79112692291E+01  0.51100000000E-03 0. -1.
        -11    1    3    3    0    0  0.10913526673E+02 -0.11683859703E+02  0.22727179138E+02  0.27787448854E+02  0.51100000000E-03 0.  1.
         12    1    3    3    0    0 -0.23577390764E+02 -0.80607313737E+01 -0.27030321767E+02  0.36762848643E+02  0.00000000000E+00 0. -1.
</event>
<event>
 7    1  0.1692604E-013  0.7246171E+02  0.7816164E-02  0.1226708E+00
        -11   -1    0    0    0    0  0.00000000000E+00  0.00000000000E+00  0.45593999997E+02  0.45594000000E+02  0.51100000000E-03 0. -1.
         11   -1    0    0    0    0 -0.00000000000E+00 -0.00000000000E+00 -0.45593999997E+02  0.45594000000E+02  0.51100000000E-03 0.  1.
    9900012    2    1    2    0    0 -0.12477611586E+02  0.47112759638E+01 -0.13144854299E+02  0.72461705474E+02  0.70000176097E+02 0.  0.
         12    1    1    2    0    0  0.12477611586E+02 -0.47112759638E+01  0.13144854299E+02  0.18726294526E+02  0.00000000000E+00 0. -1.
         11    1    3    3    0    0 -0.30873087867E+01  0.12321064593E+02  0.79177885695E+01  0.14967681328E+02  0.51100000000E-03 0. -1.
        -11    1    3    3    0    0 -0.11869560648E+02 -0.17108168126E+02  0.11289009104E+02  0.23685810382E+02  0.51100000000E-03 0.  1.
        -12    1    3    3    0    0  0.24792578486E+01  0.94983794968E+01 -0.32351651973E+02  0.33808213764E+02  0.00000000000E+00 0.  1.
</event>
<event>
 7    1  0.1692604E-013  0.7246156E+02  0.7816164E-02  0.1226708E+00
        -11   -1    0    0    0    0  0.00000000000E+00  0.00000000000E+00  0.45593999997E+02  0.45594000000E+02  0.51100000000E-03 0. -1.
         11   -1    0    0    0    0 -0.00000000000E+00 -0.00000000000E+00 -0.45593999997E+02  0.45594000000E+02  0.51100000000E-03 0.  1.
    9900012    2    1    2    0    0 -0.11801551986E+02 -0.13732852086E+02  0.47761453248E+01  0.72461563611E+02  0.69999991293E+02 0.  0.
         12    1    1    2    0    0  0.11801551986E+02  0.13732852086E+02 -0.47761453248E+01  0.18726436389E+02  0.00000000000E+00 0. -1.
         11    1    3    3    0    0  0.68859016254E+01 -0.56832039464E+01  0.21441007231E+02  0.23225659079E+02  0.51100000000E-03 0. -1.
        -11    1    3    3    0    0  0.78930271701E+01 -0.62799692731E+01  0.80442227530E+01  0.12901449994E+02  0.51100000000E-03 0.  1.
        -12    1    3    3    0    0 -0.26580480781E+02 -0.17696788663E+01 -0.24709084660E+02  0.36334454538E+02  0.00000000000E+00 0.  1.
</event>
<event>
 7    1  0.1692604E-013  0.7246157E+02  0.7816164E-02  0.1226708E+00
        -11   -1    0    0    0    0  0.00000000000E+00  0.00000000000E+00  0.45593999997E+02  0.45594000000E+02  0.51100000000E-03 0. -1.
         11   -1    0    0    0    0 -0.00000000000E+00 -0.00000000000E+00 -0.45593999997E+02  0.45594000000E+02  0.51100000000E-03 0.  1.
    9900012    2    1    2    0    0 -0.61250775390E+01 -0.10454758708E+02 -0.14277971161E+02  0.72461574421E+02  0.70000005376E+02 0.  0.
         12    1    1    2    0    0  0.61250775390E+01  0.10454758708E+02  0.14277971161E+02  0.18726425579E+02  0.00000000000E+00 0. -1.
         11    1    3    3    0    0  0.24835614049E+02 -0.31555254553E+01  0.66036182340E+01  0.25891559245E+02  0.51100000000E-03 0. -1.
        -11    1    3    3    0    0  0.12496759356E+01 -0.23487554682E+01 -0.12692423824E+02  0.12968267617E+02  0.51100000000E-03 0.  1.
        -12    1    3    3    0    0 -0.32210367524E+02 -0.49504777840E+01 -0.81891655707E+01  0.33601747559E+02  0.00000000000E+00 0.  1.
</event>
<event>
 7    1  0.1692604E-013  0.7246156E+02  0.7816164E-02  0.1226708E+00
        -11   -1    0    0    0    0  0.00000000000E+00  0.00000000000E+00  0.45593999997E+02  0.45594000000E+02  0.51100000000E-03 0.  1.
         11   -1    0    0    0    0 -0.00000000000E+00 -0.00000000000E+00 -0.45593999997E+02  0.45594000000E+02  0.51100000000E-03 0. -1.
    9900012    2    1    2    0    0 -0.12464655254E+02  0.13922370712E+02  0.12164056436E+01  0.72461556677E+02  0.69999982261E+02 0.  0.
         12    1    1    2    0    0  0.12464655254E+02 -0.13922370712E+02 -0.12164056436E+01  0.18726443323E+02  0.00000000000E+00 0. -1.
         11    1    3    3    0    0  0.21940351957E+01 -0.12987410064E+02 -0.16051990538E+02  0.20764224308E+02  0.51100000000E-03 0. -1.
        -11    1    3    3    0    0  0.12597991276E+02  0.58024634464E+01  0.20767912528E+01  0.14024657871E+02  0.51100000000E-03 0.  1.
        -12    1    3    3    0    0 -0.27256681726E+02  0.21107317329E+02  0.15191604929E+02  0.37672674498E+02  0.00000000000E+00 0.  1.
</event>
<event>
 7    1  0.1692604E-013  0.7246155E+02  0.7816164E-02  0.1226708E+00
        -11   -1    0    0    0    0  0.00000000000E+00  0.00000000000E+00  0.45593999997E+02  0.45594000000E+02  0.51100000000E-03 0.  1.
         11   -1    0    0    0    0 -0.00000000000E+00 -0.00000000000E+00 -0.45593999997E+02  0.45594000000E+02  0.51100000000E-03 0. -1.
    9900012    2    1    2    0    0  0.11814198442E+02  0.93832045145E+01  0.11093252009E+02  0.72461546734E+02  0.69999969308E+02 0.  0.
         12    1    1    2    0    0 -0.11814198442E+02 -0.93832045145E+01 -0.11093252009E+02  0.18726453266E+02  0.00000000000E+00 0. -1.
         11    1    3    3    0    0  0.21210306191E+01  0.77638696590E+00  0.71131763486E+01  0.74631645858E+01  0.51100000000E-03 0. -1.
        -11    1    3    3    0    0  0.36334394242E+01 -0.68416922743E+01  0.31731768203E+02  0.32663676290E+02  0.51100000000E-03 0.  1.
         12    1    3    3    0    0  0.60597283984E+01  0.15448509823E+02 -0.27751692542E+02  0.32334705858E+02  0.00000000000E+00 0. -1.
</event>
<event>
 7    1  0.1692604E-013  0.7246164E+02  0.7816164E-02  0.1226708E+00
        -11   -1    0    0    0    0  0.00000000000E+00  0.00000000000E+00  0.45593999997E+02  0.45594000000E+02  0.51100000000E-03 0. -1.
         11   -1    0    0    0    0 -0.00000000000E+00 -0.00000000000E+00 -0.45593999997E+02  0.45594000000E+02  0.51100000000E-03 0.  1.
    9900012    2    1    2    0    0 -0.31942471875E+01  0.13217293845E+01 -0.18404522087E+02  0.72461638450E+02  0.70000088785E+02 0.  0.
         12    1    1    2    0    0  0.31942471875E+01 -0.13217293845E+01  0.18404522087E+02  0.18726361550E+02  0.00000000000E+00 0. -1.
         11    1    3    3    0    0 -0.50696134672E+00  0.55661132269E+01 -0.38703283193E+01  0.67983871486E+01  0.51100000000E-03 0. -1.
        -11    1    3    3    0    0  0.19679661948E+02  0.17995913390E+02 -0.20406240504E+02  0.33579110246E+02  0.51100000000E-03 0.  1.
         12    1    3    3    0    0 -0.22366947789E+02 -0.22240297233E+02  0.58720467361E+01  0.32084141055E+02  0.00000000000E+00 0. -1.
</event>
<event>
 7    1  0.1692604E-013  0.7246148E+02  0.7816164E-02  0.1226708E+00
        -11   -1    0    0    0    0  0.00000000000E+00  0.00000000000E+00  0.45593999997E+02  0.45594000000E+02  0.51100000000E-03 0. -1.
         11   -1    0    0    0    0 -0.00000000000E+00 -0.00000000000E+00 -0.45593999997E+02  0.45594000000E+02  0.51100000000E-03 0.  1.
    9900012    2    1    2    0    0  0.18168900448E+02 -0.36733628113E+00 -0.45209352770E+01  0.72461475090E+02  0.69999875978E+02 0.  0.
         12    1    1    2    0    0 -0.18168900448E+02  0.36733628113E+00  0.45209352770E+01  0.18726524910E+02  0.00000000000E+00 0. -1.
         11    1    3    3    0    0  0.65341703923E+01  0.17286054977E+02 -0.33920424763E+01  0.18788534584E+02  0.51100000000E-03 0. -1.
        -11    1    3    3    0    0 -0.89998927505E+01 -0.74186594325E+01  0.19519900658E+02  0.22738977533E+02  0.51100000000E-03 0.  1.
        -12    1    3    3    0    0  0.20634622806E+02 -0.10234731826E+02 -0.20648793458E+02  0.30933962973E+02  0.00000000000E+00 0.  1.
</event>
<event>
 7    1  0.1692604E-013  0.7246156E+02  0.7816164E-02  0.1226708E+00
        -11   -1    0    0    0    0  0.00000000000E+00  0.00000000000E+00  0.45593999997E+02  0.45594000000E+02  0.51100000000E-03 0. -1.
         11   -1    0    0    0    0 -0.00000000000E+00 -0.00000000000E+00 -0.45593999997E+02  0.45594000000E+02  0.51100000000E-03 0.  1.
    9900012    2    1    2    0    0 -0.13570275242E+02 -0.12796963676E+02 -0.16628082989E+01  0.72461559310E+02  0.69999985691E+02 0.  0.
         12    1    1    2    0    0  0.13570275242E+02  0.12796963676E+02  0.16628082989E+01  0.18726440690E+02  0.00000000000E+00 0. -1.
         11    1    3    3    0    0 -0.21712411593E+02  0.26460871118E+01  0.10840178327E+02  0.24411883594E+02  0.51100000000E-03 0. -1.
        -11    1    3    3    0    0 -0.21689799427E+01 -0.18728634153E+02  0.11244687499E+02  0.21952430582E+02  0.51100000000E-03 0.  1.
         12    1    3    3    0    0  0.10311116294E+02  0.32855833653E+01 -0.23747674124E+02  0.26097245134E+02  0.00000000000E+00 0. -1.
</event>
<event>
 7    1  0.1692604E-013  0.7246166E+02  0.7816164E-02  0.1226708E+00
        -11   -1    0    0    0    0  0.00000000000E+00  0.00000000000E+00  0.45593999997E+02  0.45594000000E+02  0.51100000000E-03 0. -1.
         11   -1    0    0    0    0 -0.00000000000E+00 -0.00000000000E+00 -0.45593999997E+02  0.45594000000E+02  0.51100000000E-03 0.  1.
    9900012    2    1    2    0    0 -0.31497966748E+01 -0.17800243179E+01 -0.18373513688E+02  0.72461662640E+02  0.70000120297E+02 0.  0.
         12    1    1    2    0    0  0.31497966748E+01  0.17800243179E+01  0.18373513688E+02  0.18726337360E+02  0.00000000000E+00 0. -1.
         11    1    3    3    0    0  0.20341285454E+01  0.49001039346E+01  0.47097449921E+01  0.70943918457E+01  0.51100000000E-03 0. -1.
        -11    1    3    3    0    0  0.83981393951E+01  0.10178725910E+02 -0.37234144972E+02  0.39503376545E+02  0.51100000000E-03 0.  1.
         12    1    3    3    0    0 -0.13582064615E+02 -0.16858854163E+02  0.14150886291E+02  0.25863894249E+02  0.00000000000E+00 0. -1.
</event>
<event>
 7    1  0.1692604E-013  0.7246164E+02  0.7816164E-02  0.1226708E+00
        -11   -1    0    0    0    0  0.00000000000E+00  0.00000000000E+00  0.45593999997E+02  0.45594000000E+02  0.51100000000E-03 0. -1.
         11   -1    0    0    0    0 -0.00000000000E+00 -0.00000000000E+00 -0.45593999997E+02  0.45594000000E+02  0.51100000000E-03 0.  1.
    9900012    2    1    2    0    0  0.91629910853E+01 -0.16160426617E+01 -0.16251293465E+02  0.72461640535E+02  0.70000091502E+02 0.  0.
         12    1    1    2    0    0 -0.91629910853E+01  0.16160426617E+01  0.16251293465E+02  0.18726359465E+02  0.00000000000E+00 0. -1.
         11    1    3    3    0    0 -0.16537187374E+01 -0.16014248472E+02  0.39106903484E+01  0.16567571911E+02  0.51100000000E-03 0. -1.
        -11    1    3    3    0    0  0.73635649533E+01 -0.14966708093E+02  0.46272833963E+01  0.17310002653E+02  0.51100000000E-03 0.  1.
        -12    1    3    3    0    0  0.34531448694E+01  0.29364913903E+02 -0.24789267210E+02  0.38584065971E+02  0.00000000000E+00 0.  1.
</event>
<event>
 7    1  0.1692604E-013  0.7246156E+02  0.7816164E-02  0.1226708E+00
        -11   -1    0    0    0    0  0.00000000000E+00  0.00000000000E+00  0.45593999997E+02  0.45594000000E+02  0.51100000000E-03 0.  1.
         11   -1    0    0    0    0 -0.00000000000E+00 -0.00000000000E+00 -0.45593999997E+02  0.45594000000E+02  0.51100000000E-03 0. -1.
    9900012    2    1    2    0    0  0.19228902550E+01  0.14975703601E+02  0.11077473067E+02  0.72461558404E+02  0.69999984511E+02 0.  0.
         12    1    1    2    0    0 -0.19228902550E+01 -0.14975703601E+02 -0.11077473067E+02  0.18726441596E+02  0.00000000000E+00 0. -1.
         11    1    3    3    0    0  0.34920264218E+01  0.34682123465E+01  0.11315030998E+02  0.12339070960E+02  0.51100000000E-03 0. -1.
        -11    1    3    3    0    0 -0.23899257390E+02  0.40717262626E+01  0.18125915078E+02  0.30270484902E+02  0.51100000000E-03 0.  1.
         12    1    3    3    0    0  0.22330121223E+02  0.74357649923E+01 -0.18363473008E+02  0.29852002542E+02  0.00000000000E+00 0. -1.
</event>
<event>
 7    1  0.1692604E-013  0.7246151E+02  0.7816164E-02  0.1226708E+00
        -11   -1    0    0    0    0  0.00000000000E+00  0.00000000000E+00  0.45593999997E+02  0.45594000000E+02  0.51100000000E-03 0.  1.
         11   -1    0    0    0    0 -0.00000000000E+00 -0.00000000000E+00 -0.45593999997E+02  0.45594000000E+02  0.51100000000E-03 0. -1.
    9900012    2    1    2    0    0 -0.10115503069E+02 -0.14305934023E+02  0.66104741351E+01  0.72461507566E+02  0.69999918284E+02 0.  0.
         12    1    1    2    0    0  0.10115503069E+02  0.14305934023E+02 -0.66104741351E+01  0.18726492434E+02  0.00000000000E+00 0. -1.
         11    1    3    3    0    0  0.53410057531E+01  0.12125478724E+02  0.38829264641E+01  0.13806907508E+02  0.51100000000E-03 0. -1.
        -11    1    3    3    0    0 -0.32348165662E+02 -0.88156434677E+01 -0.27539383224E+01  0.33640802131E+02  0.51100000000E-03 0.  1.
         12    1    3    3    0    0  0.16891656840E+02 -0.17615769279E+02  0.54814859934E+01  0.25013797928E+02  0.00000000000E+00 0. -1.
</event>
<event>
 7    1  0.1692604E-013  0.7246154E+02  0.7816164E-02  0.1226708E+00
        -11   -1    0    0    0    0  0.00000000000E+00  0.00000000000E+00  0.45593999997E+02  0.45594000000E+02  0.51100000000E-03 0. -1.
         11   -1    0    0    0    0 -0.00000000000E+00 -0.00000000000E+00 -0.45593999997E+02  0.45594000000E+02  0.51100000000E-03 0.  1.
    9900012    2    1    2    0    0  0.13787055866E+02  0.10628668225E+02 -0.69013590146E+01  0.72461541341E+02  0.69999962282E+02 0.  0.
         12    1    1    2    0    0 -0.13787055866E+02 -0.10628668225E+02  0.69013590146E+01  0.18726458659E+02  0.00000000000E+00 0. -1.
         11    1    3    3    0    0  0.85114806759E+00 -0.98778930800E+01 -0.51809714084E+01  0.11186585258E+02  0.51100000000E-03 0. -1.
        -11    1    3    3    0    0 -0.18936041460E+02  0.22386955135E+02 -0.57967249210E+00  0.29327213417E+02  0.51100000000E-03 0.  1.
         12    1    3    3    0    0  0.31871949258E+02 -0.18803938298E+01 -0.11407151141E+01  0.31947742665E+02  0.00000000000E+00 0. -1.
</event>
<event>
 7    1  0.1692604E-013  0.7246159E+02  0.7816164E-02  0.1226708E+00
        -11   -1    0    0    0    0  0.00000000000E+00  0.00000000000E+00  0.45593999997E+02  0.45594000000E+02  0.51100000000E-03 0.  1.
         11   -1    0    0    0    0 -0.00000000000E+00 -0.00000000000E+00 -0.45593999997E+02  0.45594000000E+02  0.51100000000E-03 0. -1.
    9900012    2    1    2    0    0 -0.19596652525E+00 -0.13445840921E+02  0.13032624125E+02  0.72461592643E+02  0.70000029113E+02 0.  0.
         12    1    1    2    0    0  0.19596652525E+00  0.13445840921E+02 -0.13032624125E+02  0.18726407357E+02  0.00000000000E+00 0. -1.
         11    1    3    3    0    0  0.20219053209E+01  0.26969009669E+01  0.73058988029E+01  0.80459638037E+01  0.51100000000E-03 0. -1.
        -11    1    3    3    0    0  0.25813589451E+02 -0.20677472276E+02 -0.61411432155E+01  0.33639454519E+02  0.51100000000E-03 0.  1.
         12    1    3    3    0    0 -0.28031461297E+02  0.45347303889E+01  0.11867868537E+02  0.30776174320E+02  0.00000000000E+00 0. -1.
</event>
<event>
 7    1  0.1692604E-013  0.7246166E+02  0.7816164E-02  0.1226708E+00
        -11   -1    0    0    0    0  0.00000000000E+00  0.00000000000E+00  0.45593999997E+02  0.45594000000E+02  0.51100000000E-03 0. -1.
         11   -1    0    0    0    0 -0.00000000000E+00 -0.00000000000E+00 -0.45593999997E+02  0.45594000000E+02  0.51100000000E-03 0.  1.
    9900012    2    1    2    0    0 -0.27583583970E+01  0.18125745260E+02  0.38111025929E+01  0.72461663325E+02  0.70000121190E+02 0.  0.
         12    1    1    2    0    0  0.27583583970E+01 -0.18125745260E+02 -0.38111025929E+01  0.18726336675E+02  0.00000000000E+00 0. -1.
         11    1    3    3    0    0 -0.49635511498E+01  0.13013677478E+02 -0.51190470753E+01  0.14839045951E+02  0.51100000000E-03 0. -1.
        -11    1    3    3    0    0  0.24005711734E+01  0.25073167922E+02 -0.12683452758E+02  0.28201001148E+02  0.51100000000E-03 0.  1.
         12    1    3    3    0    0 -0.19537842059E+00 -0.19961100140E+02  0.21613602426E+02  0.29421616226E+02  0.00000000000E+00 0. -1.
</event>
<event>
 7    1  0.1692604E-013  0.7246151E+02  0.7816164E-02  0.1226708E+00
        -11   -1    0    0    0    0  0.00000000000E+00  0.00000000000E+00  0.45593999997E+02  0.45594000000E+02  0.51100000000E-03 0.  1.
         11   -1    0    0    0    0 -0.00000000000E+00 -0.00000000000E+00 -0.45593999997E+02  0.45594000000E+02  0.51100000000E-03 0. -1.
    9900012    2    1    2    0    0 -0.16156638472E+02 -0.48689774258E+01 -0.81202003892E+01  0.72461506408E+02  0.69999916777E+02 0.  0.
         12    1    1    2    0    0  0.16156638472E+02  0.48689774258E+01  0.81202003892E+01  0.18726493592E+02  0.00000000000E+00 0. -1.
         11    1    3    3    0    0 -0.30220984106E+02 -0.25673216519E+02 -0.11431077603E+02  0.41268528714E+02  0.51100000000E-03 0. -1.
        -11    1    3    3    0    0 -0.30177613730E+01 -0.11155076856E+01  0.58139591003E+00  0.32694437702E+01  0.51100000000E-03 0.  1.
         12    1    3    3    0    0  0.17082107007E+02  0.21919746779E+02  0.27294813037E+01  0.27923533925E+02  0.00000000000E+00 0. -1.
</event>
<event>
 7    1  0.1692604E-013  0.7246224E+02  0.7816164E-02  0.1226706E+00
        -11   -1    0    0    0    0  0.00000000000E+00  0.00000000000E+00  0.45593999997E+02  0.45594000000E+02  0.51100000000E-03 0. -1.
         11   -1    0    0    0    0 -0.00000000000E+00 -0.00000000000E+00 -0.45593999997E+02  0.45594000000E+02  0.51100000000E-03 0.  1.
    9900012    2    1    2    0    0  0.15173468914E+01 -0.17186041683E+02  0.72795443991E+01  0.72462238681E+02  0.70000870692E+02 0.  0.
         12    1    1    2    0    0 -0.15173468914E+01  0.17186041683E+02 -0.72795443991E+01  0.18725761319E+02  0.00000000000E+00 0. -1.
         11    1    3    3    0    0 -0.77418853645E+01 -0.25761762000E+02  0.57289559782E+00  0.26906010108E+02  0.51100000000E-03 0. -1.
        -11    1    3    3    0    0  0.24459633539E+01 -0.17668233690E+02  0.42153409003E+01  0.18328074575E+02  0.51100000000E-03 0.  1.
        -12    1    3    3    0    0  0.68132689020E+01  0.26243954007E+02  0.24913079010E+01  0.27228153997E+02  0.00000000000E+00 0.  1.
</event>
<event>
 7    1  0.1692604E-013  0.7246177E+02  0.7816164E-02  0.1226707E+00
        -11   -1    0    0    0    0  0.00000000000E+00  0.00000000000E+00  0.45593999997E+02  0.45594000000E+02  0.51100000000E-03 0. -1.
         11   -1    0    0    0    0 -0.00000000000E+00 -0.00000000000E+00 -0.45593999997E+02  0.45594000000E+02  0.51100000000E-03 0.  1.
    9900012    2    1    2    0    0 -0.52053562946E+01  0.13602605515E+02 -0.11770511620E+02  0.72461773612E+02  0.70000264859E+02 0.  0.
         12    1    1    2    0    0  0.52053562946E+01 -0.13602605515E+02  0.11770511620E+02  0.18726226388E+02  0.00000000000E+00 0. -1.
         11    1    3    3    0    0  0.13222291684E+00 -0.12897683976E+02 -0.68719121651E+01  0.14614749807E+02  0.51100000000E-03 0.  1.
        -11    1    3    3    0    0 -0.19027702983E+02  0.30256378357E+02 -0.16638829960E+02  0.39425278373E+02  0.51100000000E-03 0. -1.
         12    1    3    3    0    0  0.13690123772E+02 -0.37560888664E+01  0.11740230505E+02  0.18421745432E+02  0.00000000000E+00 0. -1.
</event>
<event>
 7    1  0.1692604E-013  0.7246175E+02  0.7816164E-02  0.1226708E+00
        -11   -1    0    0    0    0  0.00000000000E+00  0.00000000000E+00  0.45593999997E+02  0.45594000000E+02  0.51100000000E-03 0.  1.
         11   -1    0    0    0    0 -0.00000000000E+00 -0.00000000000E+00 -0.45593999997E+02  0.45594000000E+02  0.51100000000E-03 0. -1.
    9900012    2    1    2    0    0  0.78642014796E+01 -0.16161755274E+02  0.52559031265E+01  0.72461747942E+02  0.70000231419E+02 0.  0.
         12    1    1    2    0    0 -0.78642014796E+01  0.16161755274E+02 -0.52559031265E+01  0.18726252058E+02  0.00000000000E+00 0. -1.
         11    1    3    3    0    0 -0.22937314930E+02  0.10477868610E+01  0.10136140717E+02  0.25098996442E+02  0.51100000000E-03 0. -1.
        -11    1    3    3    0    0  0.15091875269E+02  0.82313755687E+01 -0.24391783856E+01  0.17362886694E+02  0.51100000000E-03 0.  1.
        -12    1    3    3    0    0  0.15709641141E+02 -0.25440917704E+02 -0.24410592045E+01  0.29999864807E+02  0.00000000000E+00 0.  1.
</event>
<event>
 7    1  0.1692604E-013  0.7246152E+02  0.7816164E-02  0.1226708E+00
        -11   -1    0    0    0    0  0.00000000000E+00  0.00000000000E+00  0.45593999997E+02  0.45594000000E+02  0.51100000000E-03 0. -1.
         11   -1    0    0    0    0 -0.00000000000E+00 -0.00000000000E+00 -0.45593999997E+02  0.45594000000E+02  0.51100000000E-03 0.  1.
    9900012    2    1    2    0    0  0.10613935349E+02  0.14159455380E+02 -0.61266104979E+01  0.72461517243E+02  0.69999930891E+02 0.  0.
         12    1    1    2    0    0 -0.10613935349E+02 -0.14159455380E+02  0.61266104979E+01  0.18726482757E+02  0.00000000000E+00 0. -1.
         11    1    3    3    0    0  0.22788824018E+01  0.13217965314E+01 -0.18071984488E+02  0.18262997418E+02  0.51100000000E-03 0. -1.
        -11    1    3    3    0    0  0.14860459600E+02  0.27931397804E+02  0.18322854214E+02  0.36561225768E+02  0.51100000000E-03 0.  1.
         12    1    3    3    0    0 -0.65254066530E+01 -0.15093738956E+02 -0.63774802242E+01  0.17637294057E+02  0.00000000000E+00 0. -1.
</event>
<event>
 7    1  0.1692604E-013  0.7246154E+02  0.7816164E-02  0.1226708E+00
        -11   -1    0    0    0    0  0.00000000000E+00  0.00000000000E+00  0.45593999997E+02  0.45594000000E+02  0.51100000000E-03 0.  1.
         11   -1    0    0    0    0 -0.00000000000E+00 -0.00000000000E+00 -0.45593999997E+02  0.45594000000E+02  0.51100000000E-03 0. -1.
    9900012    2    1    2    0    0  0.11372380833E+02  0.49045973606E+01 -0.14046139635E+02  0.72461543856E+02  0.69999965559E+02 0.  0.
         12    1    1    2    0    0 -0.11372380833E+02 -0.49045973606E+01  0.14046139635E+02  0.18726456144E+02  0.00000000000E+00 0. -1.
         11    1    3    3    0    0 -0.10945913290E+01 -0.12663467503E+00 -0.31362965305E+01  0.33242326493E+01  0.51100000000E-03 0. -1.
        -11    1    3    3    0    0 -0.17838997002E+02 -0.21327923025E+02 -0.76599287286E+01  0.28840676534E+02  0.51100000000E-03 0.  1.
        -12    1    3    3    0    0  0.30305969164E+02  0.26359155060E+02 -0.32499143756E+01  0.40296634672E+02  0.00000000000E+00 0.  1.
</event>
<event>
 7    1  0.1692604E-013  0.7246157E+02  0.7816164E-02  0.1226708E+00
        -11   -1    0    0    0    0  0.00000000000E+00  0.00000000000E+00  0.45593999997E+02  0.45594000000E+02  0.51100000000E-03 0.  1.
         11   -1    0    0    0    0 -0.00000000000E+00 -0.00000000000E+00 -0.45593999997E+02  0.45594000000E+02  0.51100000000E-03 0. -1.
    9900012    2    1    2    0    0  0.91783979825E+01 -0.13017836731E+02  0.98474458425E+01  0.72461568084E+02  0.69999997121E+02 0.  0.
         12    1    1    2    0    0 -0.91783979825E+01  0.13017836731E+02 -0.98474458425E+01  0.18726431916E+02  0.00000000000E+00 0. -1.
         11    1    3    3    0    0 -0.20277078646E+02 -0.98365883216E+01  0.10790993686E+02  0.24987275426E+02  0.51100000000E-03 0. -1.
        -11    1    3    3    0    0  0.51992859707E+01  0.10774508231E+01  0.16475098232E+02  0.17309602448E+02  0.51100000000E-03 0.  1.
         12    1    3    3    0    0  0.24256190658E+02 -0.42586992322E+01 -0.17418646076E+02  0.30164690210E+02  0.00000000000E+00 0. -1.
</event>
<event>
 7    1  0.1692604E-013  0.7246159E+02  0.7816164E-02  0.1226708E+00
        -11   -1    0    0    0    0  0.00000000000E+00  0.00000000000E+00  0.45593999997E+02  0.45594000000E+02  0.51100000000E-03 0. -1.
         11   -1    0    0    0    0 -0.00000000000E+00 -0.00000000000E+00 -0.45593999997E+02  0.45594000000E+02  0.51100000000E-03 0.  1.
    9900012    2    1    2    0    0 -0.93820804896E+01  0.11721629947E+02  0.11191896938E+02  0.72461585501E+02  0.70000019809E+02 0.  0.
         12    1    1    2    0    0  0.93820804896E+01 -0.11721629947E+02 -0.11191896938E+02  0.18726414499E+02  0.00000000000E+00 0. -1.
         11    1    3    3    0    0 -0.12058811382E+02 -0.22760517164E+02  0.10366704838E+02  0.27765529762E+02  0.51100000000E-03 0. -1.
        -11    1    3    3    0    0  0.12257210574E+02  0.42476694379E+01  0.25551494202E+00  0.12974867817E+02  0.51100000000E-03 0.  1.
        -12    1    3    3    0    0 -0.95804796816E+01  0.30234477673E+02  0.56967715816E+00  0.31721187922E+02  0.00000000000E+00 0.  1.
</event>
<event>
 7    1  0.1692604E-013  0.7246234E+02  0.7816164E-02  0.1226706E+00
        -11   -1    0    0    0    0  0.00000000000E+00  0.00000000000E+00  0.45593999997E+02  0.45594000000E+02  0.51100000000E-03 0. -1.
         11   -1    0    0    0    0 -0.00000000000E+00 -0.00000000000E+00 -0.45593999997E+02  0.45594000000E+02  0.51100000000E-03 0.  1.
    9900012    2    1    2    0    0  0.14221656691E+02  0.12109861099E+02 -0.13214012040E+01  0.72462339637E+02  0.70001002205E+02 0.  0.
         12    1    1    2    0    0 -0.14221656691E+02 -0.12109861099E+02  0.13214012040E+01  0.18725660363E+02  0.00000000000E+00 0. -1.
         11    1    3    3    0    0 -0.29380412549E+01  0.28836393235E+01  0.38482788886E+01  0.56353094706E+01  0.51100000000E-03 0. -1.
        -11    1    3    3    0    0  0.25367736063E+02 -0.19971955024E+02 -0.14069007398E+02  0.35218432530E+02  0.51100000000E-03 0.  1.
         12    1    3    3    0    0 -0.82080381168E+01  0.29198176799E+02  0.88993273055E+01  0.31608597637E+02  0.00000000000E+00 0. -1.
</event>
<event>
 7    1  0.1692604E-013  0.7246188E+02  0.7816164E-02  0.1226707E+00
        -11   -1    0    0    0    0  0.00000000000E+00  0.00000000000E+00  0.45593999997E+02  0.45594000000E+02  0.51100000000E-03 0. -1.
         11   -1    0    0    0    0 -0.00000000000E+00 -0.00000000000E+00 -0.45593999997E+02  0.45594000000E+02  0.51100000000E-03 0.  1.
    9900012    2    1    2    0    0 -0.37606648797E+01  0.67975963052E+01 -0.17038706300E+02  0.72461883792E+02  0.70000408387E+02 0.  0.
         12    1    1    2    0    0  0.37606648797E+01 -0.67975963052E+01  0.17038706300E+02  0.18726116208E+02  0.00000000000E+00 0. -1.
         11    1    3    3    0    0 -0.50309378058E+01 -0.42935104108E+01 -0.10214236163E+01  0.66923742662E+01  0.51100000000E-03 0. -1.
        -11    1    3    3    0    0 -0.22885121829E+02  0.23732194587E+02 -0.19469766112E+02  0.38288609974E+02  0.51100000000E-03 0.  1.
        -12    1    3    3    0    0  0.24155394755E+02 -0.12641087871E+02  0.34524834281E+01  0.27480899552E+02  0.00000000000E+00 0.  1.
</event>
<event>
 7    1  0.1692604E-013  0.7246161E+02  0.7816164E-02  0.1226708E+00
        -11   -1    0    0    0    0  0.00000000000E+00  0.00000000000E+00  0.45593999997E+02  0.45594000000E+02  0.51100000000E-03 0.  1.
         11   -1    0    0    0    0 -0.00000000000E+00 -0.00000000000E+00 -0.45593999997E+02  0.45594000000E+02  0.51100000000E-03 0. -1.
    9900012    2    1    2    0    0 -0.17824846454E+02 -0.56770396000E+01 -0.85076352495E+00  0.72461608775E+02  0.70000050128E+02 0.  0.
         12    1    1    2    0    0  0.17824846454E+02  0.56770396000E+01  0.85076352495E+00  0.18726391225E+02  0.00000000000E+00 0. -1.
         11    1    3    3    0    0 -0.59293546625E+01 -0.20716726301E+01 -0.18216591144E+02  0.19268971622E+02  0.51100000000E-03 0. -1.
        -11    1    3    3    0    0  0.13931432827E+01 -0.22222613462E+02  0.20301120651E+02  0.30131725760E+02  0.51100000000E-03 0.  1.
         12    1    3    3    0    0 -0.13288635075E+02  0.18617246492E+02 -0.29352930317E+01  0.23060911393E+02  0.00000000000E+00 0. -1.
</event>
<event>
 7    1  0.1692604E-013  0.7246156E+02  0.7816164E-02  0.1226708E+00
        -11   -1    0    0    0    0  0.00000000000E+00  0.00000000000E+00  0.45593999997E+02  0.45594000000E+02  0.51100000000E-03 0. -1.
         11   -1    0    0    0    0 -0.00000000000E+00 -0.00000000000E+00 -0.45593999997E+02  0.45594000000E+02  0.51100000000E-03 0.  1.
    9900012    2    1    2    0    0 -0.98729550540E+01  0.82178061050E+00 -0.15891162326E+02  0.72461558668E+02  0.69999984855E+02 0.  0.
         12    1    1    2    0    0  0.98729550540E+01 -0.82178061050E+00  0.15891162326E+02  0.18726441332E+02  0.00000000000E+00 0. -1.
         11    1    3    3    0    0  0.58671120047E+01 -0.10126818855E+02 -0.11743523450E+02  0.16579680536E+02  0.51100000000E-03 0. -1.
        -11    1    3    3    0    0 -0.69837975112E+01 -0.60910482922E+01  0.21765390734E+02  0.23656004123E+02  0.51100000000E-03 0.  1.
        -12    1    3    3    0    0 -0.87562695475E+01  0.17039647758E+02 -0.25913029611E+02  0.32225874010E+02  0.00000000000E+00 0.  1.
</event>
<event>
 7    1  0.1692604E-013  0.7246162E+02  0.7816164E-02  0.1226708E+00
        -11   -1    0    0    0    0  0.00000000000E+00  0.00000000000E+00  0.45593999997E+02  0.45594000000E+02  0.51100000000E-03 0.  1.
         11   -1    0    0    0    0 -0.00000000000E+00 -0.00000000000E+00 -0.45593999997E+02  0.45594000000E+02  0.51100000000E-03 0. -1.
    9900012    2    1    2    0    0 -0.10713018099E+01 -0.16287197972E+01  0.18624629078E+02  0.72461622239E+02  0.70000067668E+02 0.  0.
         12    1    1    2    0    0  0.10713018099E+01  0.16287197972E+01 -0.18624629078E+02  0.18726377761E+02  0.00000000000E+00 0. -1.
         11    1    3    3    0    0 -0.10520193169E+02  0.12423146362E+02 -0.10910825996E+02  0.19597325175E+02  0.51100000000E-03 0. -1.
        -11    1    3    3    0    0 -0.17736978361E+01  0.29243174744E+01 -0.88115118814E+01  0.94520039464E+01  0.51100000000E-03 0.  1.
        -12    1    3    3    0    0  0.11222589195E+02 -0.16976183633E+02  0.38346966956E+02  0.43412293118E+02  0.00000000000E+00 0.  1.
</event>
<event>
 7    1  0.1692604E-013  0.7246161E+02  0.7816164E-02  0.1226708E+00
        -11   -1    0    0    0    0  0.00000000000E+00  0.00000000000E+00  0.45593999997E+02  0.45594000000E+02  0.51100000000E-03 0. -1.
         11   -1    0    0    0    0 -0.00000000000E+00 -0.00000000000E+00 -0.45593999997E+02  0.45594000000E+02  0.51100000000E-03 0.  1.
    9900012    2    1    2    0    0  0.17223674122E+02  0.41153957053E+01 -0.60898488289E+01  0.72461609775E+02  0.70000051431E+02 0.  0.
         12    1    1    2    0    0 -0.17223674122E+02 -0.41153957053E+01  0.60898488289E+01  0.18726390225E+02  0.00000000000E+00 0. -1.
         11    1    3    3    0    0 -0.98980684375E+01 -0.11336156016E+02  0.11673489001E+02  0.19046011071E+02  0.51100000000E-03 0. -1.
        -11    1    3    3    0    0 -0.68087266740E+01 -0.59885286486E+01  0.97570945292E+00  0.91199365949E+01  0.51100000000E-03 0.  1.
        -12    1    3    3    0    0  0.33930469234E+02  0.21440080370E+02 -0.18739047282E+02  0.44295662110E+02  0.00000000000E+00 0.  1.
</event>
<event>
 7    1  0.1692604E-013  0.7246159E+02  0.7816164E-02  0.1226708E+00
        -11   -1    0    0    0    0  0.00000000000E+00  0.00000000000E+00  0.45593999997E+02  0.45594000000E+02  0.51100000000E-03 0.  1.
         11   -1    0    0    0    0 -0.00000000000E+00 -0.00000000000E+00 -0.45593999997E+02  0.45594000000E+02  0.51100000000E-03 0. -1.
    9900012    2    1    2    0    0  0.18329216764E+02  0.13331830992E+01 -0.35973295750E+01  0.72461592325E+02  0.70000028698E+02 0.  0.
         12    1    1    2    0    0 -0.18329216764E+02 -0.13331830992E+01  0.35973295750E+01  0.18726407675E+02  0.00000000000E+00 0. -1.
         11    1    3    3    0    0  0.17351467195E+02  0.22893532166E+02 -0.97842522063E+01  0.30346644301E+02  0.51100000000E-03 0. -1.
        -11    1    3    3    0    0  0.10500878933E+02  0.77239768113E-01  0.13743382762E+02  0.17296097663E+02  0.51100000000E-03 0.  1.
         12    1    3    3    0    0 -0.95231293643E+01 -0.21637588835E+02 -0.75564601310E+01  0.24818850360E+02  0.00000000000E+00 0. -1.
</event>
<event>
 7    1  0.1692604E-013  0.7246153E+02  0.7816164E-02  0.1226708E+00
        -11   -1    0    0    0    0  0.00000000000E+00  0.00000000000E+00  0.45593999997E+02  0.45594000000E+02  0.51100000000E-03 0. -1.
         11   -1    0    0    0    0 -0.00000000000E+00 -0.00000000000E+00 -0.45593999997E+02  0.45594000000E+02  0.51100000000E-03 0.  1.
    9900012    2    1    2    0    0  0.13485395841E+02 -0.25629254902E+01 -0.12737980708E+02  0.72461531017E+02  0.69999948833E+02 0.  0.
         12    1    1    2    0    0 -0.13485395841E+02  0.25629254902E+01  0.12737980708E+02  0.18726468983E+02  0.00000000000E+00 0. -1.
         11    1    3    3    0    0 -0.82310873124E+01 -0.15498320959E+02  0.10588054318E+02  0.20495259096E+02  0.51100000000E-03 0. -1.
        -11    1    3    3    0    0 -0.15508182833E+01  0.82070595769E+01  0.87254366612E+01  0.12078663396E+02  0.51100000000E-03 0.  1.
        -12    1    3    3    0    0  0.23267301437E+02  0.47283358918E+01 -0.32051471688E+02  0.39887608525E+02  0.00000000000E+00 0.  1.
</event>
<event>
 7    1  0.1692604E-013  0.7246159E+02  0.7816164E-02  0.1226708E+00
        -11   -1    0    0    0    0  0.00000000000E+00  0.00000000000E+00  0.45593999997E+02  0.45594000000E+02  0.51100000000E-03 0.  1.
         11   -1    0    0    0    0 -0.00000000000E+00 -0.00000000000E+00 -0.45593999997E+02  0.45594000000E+02  0.51100000000E-03 0. -1.
    9900012    2    1    2    0    0  0.78702394310E+01  0.86437338322E+01  0.14629552235E+02  0.72461585451E+02  0.70000019744E+02 0.  0.
         12    1    1    2    0    0 -0.78702394310E+01 -0.86437338322E+01 -0.14629552235E+02  0.18726414549E+02  0.00000000000E+00 0. -1.
         11    1    3    3    0    0  0.90376904248E+01  0.32121146770E+02  0.24554353789E+02  0.41429026156E+02  0.51100000000E-03 0.  1.
        -11    1    3    3    0    0  0.75990290554E+01 -0.69008043881E+01 -0.59478985369E+01  0.11863550946E+02  0.51100000000E-03 0. -1.
        -12    1    3    3    0    0 -0.87664800492E+01 -0.16576608549E+02 -0.39769030167E+01  0.19169008348E+02  0.00000000000E+00 0.  1.
</event>
<event>
 7    1  0.1692604E-013  0.7246162E+02  0.7816164E-02  0.1226708E+00
        -11   -1    0    0    0    0  0.00000000000E+00  0.00000000000E+00  0.45593999997E+02  0.45594000000E+02  0.51100000000E-03 0.  1.
         11   -1    0    0    0    0 -0.00000000000E+00 -0.00000000000E+00 -0.45593999997E+02  0.45594000000E+02  0.51100000000E-03 0. -1.
    9900012    2    1    2    0    0  0.12387220316E+02  0.13245028313E+02  0.46694035920E+01  0.72461619355E+02  0.70000063910E+02 0.  0.
         12    1    1    2    0    0 -0.12387220316E+02 -0.13245028313E+02 -0.46694035920E+01  0.18726380645E+02  0.00000000000E+00 0. -1.
         11    1    3    3    0    0 -0.14596628759E+02  0.20554131542E+02 -0.69733420987E+01  0.26156479023E+02  0.51100000000E-03 0. -1.
        -11    1    3    3    0    0 -0.25203965095E+01  0.10105594383E+02  0.11744526829E+01  0.10481162902E+02  0.51100000000E-03 0.  1.
        -12    1    3    3    0    0  0.29504245584E+02 -0.17414697612E+02  0.10468293008E+02  0.35823977430E+02  0.00000000000E+00 0.  1.
</event>
<event>
 7    1  0.1692604E-013  0.7246161E+02  0.7816164E-02  0.1226708E+00
        -11   -1    0    0    0    0  0.00000000000E+00  0.00000000000E+00  0.45593999997E+02  0.45594000000E+02  0.51100000000E-03 0. -1.
         11   -1    0    0    0    0 -0.00000000000E+00 -0.00000000000E+00 -0.45593999997E+02  0.45594000000E+02  0.51100000000E-03 0.  1.
    9900012    2    1    2    0    0 -0.91142958261E+01  0.39663374993E+01 -0.15870589254E+02  0.72461606198E+02  0.70000046771E+02 0.  0.
         12    1    1    2    0    0  0.91142958261E+01 -0.39663374993E+01  0.15870589254E+02  0.18726393802E+02  0.00000000000E+00 0. -1.
         11    1    3    3    0    0 -0.14689538027E+02 -0.96698209443E+01  0.12268181584E+02  0.21442859982E+02  0.51100000000E-03 0. -1.
        -11    1    3    3    0    0 -0.15567711100E+02 -0.26204943132E+01 -0.87877454558E+01  0.18067791503E+02  0.51100000000E-03 0.  1.
        -12    1    3    3    0    0  0.21142953302E+02  0.16256652757E+02 -0.19351025382E+02  0.32950954713E+02  0.00000000000E+00 0.  1.
</event>
<event>
 7    1  0.1692604E-013  0.7246155E+02  0.7816164E-02  0.1226708E+00
        -11   -1    0    0    0    0  0.00000000000E+00  0.00000000000E+00  0.45593999997E+02  0.45594000000E+02  0.51100000000E-03 0. -1.
         11   -1    0    0    0    0 -0.00000000000E+00 -0.00000000000E+00 -0.45593999997E+02  0.45594000000E+02  0.51100000000E-03 0.  1.
    9900012    2    1    2    0    0 -0.64355277386E+01  0.10443778943E+02 -0.14148904947E+02  0.72461546863E+02  0.69999969477E+02 0.  0.
         12    1    1    2    0    0  0.64355277386E+01 -0.10443778943E+02  0.14148904947E+02  0.18726453137E+02  0.00000000000E+00 0. -1.
         11    1    3    3    0    0 -0.46680787531E+01  0.10554322510E+02 -0.51644329258E+01  0.12643419261E+02  0.51100000000E-03 0. -1.
        -11    1    3    3    0    0  0.16526300101E+02 -0.19774505799E+02  0.92216595176E+01  0.27371311243E+02  0.51100000000E-03 0.  1.
         12    1    3    3    0    0 -0.18293749087E+02  0.19663962232E+02 -0.18206131538E+02  0.32446816360E+02  0.00000000000E+00 0. -1.
</event>
<event>
 7    1  0.1692604E-013  0.7246155E+02  0.7816164E-02  0.1226708E+00
        -11   -1    0    0    0    0  0.00000000000E+00  0.00000000000E+00  0.45593999997E+02  0.45594000000E+02  0.51100000000E-03 0.  1.
         11   -1    0    0    0    0 -0.00000000000E+00 -0.00000000000E+00 -0.45593999997E+02  0.45594000000E+02  0.51100000000E-03 0. -1.
    9900012    2    1    2    0    0 -0.17780235841E+02  0.36502839852E+01  0.46063670472E+01  0.72461548732E+02  0.69999971910E+02 0.  0.
         12    1    1    2    0    0  0.17780235841E+02 -0.36502839852E+01 -0.46063670472E+01  0.18726451268E+02  0.00000000000E+00 0. -1.
         11    1    3    3    0    0 -0.15026669756E+02 -0.55311319320E+01 -0.46240139607E+00  0.16018989972E+02  0.51100000000E-03 0. -1.
        -11    1    3    3    0    0 -0.60143348214E+01 -0.12281635670E+01 -0.24326251399E+02  0.25088784675E+02  0.51100000000E-03 0.  1.
        -12    1    3    3    0    0  0.32607687364E+01  0.10409579484E+02  0.29395019842E+02  0.31353774084E+02  0.00000000000E+00 0.  1.
</event>
<event>
 7    1  0.1692604E-013  0.7246165E+02  0.7816164E-02  0.1226708E+00
        -11   -1    0    0    0    0  0.00000000000E+00  0.00000000000E+00  0.45593999997E+02  0.45594000000E+02  0.51100000000E-03 0. -1.
         11   -1    0    0    0    0 -0.00000000000E+00 -0.00000000000E+00 -0.45593999997E+02  0.45594000000E+02  0.51100000000E-03 0.  1.
    9900012    2    1    2    0    0  0.21853485818E+01  0.18375685523E+02 -0.28696229794E+01  0.72461646834E+02  0.70000099707E+02 0.  0.
         12    1    1    2    0    0 -0.21853485818E+01 -0.18375685523E+02  0.28696229794E+01  0.18726353166E+02  0.00000000000E+00 0. -1.
         11    1    3    3    0    0 -0.93664441957E+01  0.13245543532E+02 -0.28861495820E+01  0.16477395425E+02  0.51100000000E-03 0. -1.
        -11    1    3    3    0    0 -0.12586206419E+02  0.19103784237E+02 -0.11743600742E+02  0.25715351891E+02  0.51100000000E-03 0.  1.
         12    1    3    3    0    0  0.24137999197E+02 -0.13973642246E+02  0.11760127345E+02  0.30268899518E+02  0.00000000000E+00 0. -1.
</event>
<event>
 7    1  0.1692604E-013  0.7246152E+02  0.7816164E-02  0.1226708E+00
        -11   -1    0    0    0    0  0.00000000000E+00  0.00000000000E+00  0.45593999997E+02  0.45594000000E+02  0.51100000000E-03 0.  1.
         11   -1    0    0    0    0 -0.00000000000E+00 -0.00000000000E+00 -0.45593999997E+02  0.45594000000E+02  0.51100000000E-03 0. -1.
    9900012    2    1    2    0    0 -0.21749754198E+01  0.63623586151E+01  0.17477727310E+02  0.72461519360E+02  0.69999933649E+02 0.  0.
         12    1    1    2    0    0  0.21749754198E+01 -0.63623586151E+01 -0.17477727310E+02  0.18726480640E+02  0.00000000000E+00 0. -1.
         11    1    3    3    0    0 -0.46687436364E+01  0.34785993347E+01 -0.82486002744E+01  0.10096396744E+02  0.51100000000E-03 0. -1.
        -11    1    3    3    0    0 -0.23269877548E+01  0.18351543116E+02 -0.11489084631E+02  0.21775974666E+02  0.51100000000E-03 0.  1.
        -12    1    3    3    0    0  0.48207559714E+01 -0.15467783836E+02  0.37215412215E+02  0.40589147950E+02  0.00000000000E+00 0.  1.
</event>
<event>
 8    1  0.1692604E-013  0.7246164E+02  0.7816164E-02  0.1226708E+00
        -11   -1    0    0    0    0  0.00000000000E+00  0.00000000000E+00  0.45593999997E+02  0.45594000000E+02  0.51100000000E-03 0. -1.
         11   -1    0    0    0    0 -0.00000000000E+00 -0.00000000000E+00 -0.45593999997E+02  0.45594000000E+02  0.51100000000E-03 0.  1.
    9900012    2    1    2    0    0 -0.34537742693E+01  0.13093096875E+02  0.12935172497E+02  0.72461643440E+02  0.70000095286E+02 0.  0.
         23    2    3    3    0    0 -0.13049584951E+02  0.13032582243E+02  0.16564100458E+02  0.62202386020E+02  0.57049342988E+02 0.  0.
         12    1    1    2    0    0  0.34537742693E+01 -0.13093096875E+02 -0.12935172497E+02  0.18726356560E+02  0.00000000000E+00 0. -1.
         11    1    4    4    0    0  0.13401118813E+02  0.11013949223E+02 -0.13593226248E+02  0.22037986819E+02  0.51100000000E-03 0.  1.
        -11    1    4    4    0    0 -0.26450703764E+02  0.20186330197E+01  0.30157326706E+02  0.40164399201E+02  0.51100000000E-03 0. -1.
         12    1    3    3    0    0  0.95958106815E+01  0.60514631918E-01 -0.36289279606E+01  0.10259257419E+02  0.00000000000E+00 0. -1.
</event>
<event>
 7    1  0.1692604E-013  0.7246159E+02  0.7816164E-02  0.1226708E+00
        -11   -1    0    0    0    0  0.00000000000E+00  0.00000000000E+00  0.45593999997E+02  0.45594000000E+02  0.51100000000E-03 0.  1.
         11   -1    0    0    0    0 -0.00000000000E+00 -0.00000000000E+00 -0.45593999997E+02  0.45594000000E+02  0.51100000000E-03 0. -1.
    9900012    2    1    2    0    0  0.76050493090E+01 -0.11461102087E+02  0.12707664629E+02  0.72461591472E+02  0.70000027588E+02 0.  0.
         12    1    1    2    0    0 -0.76050493090E+01  0.11461102087E+02 -0.12707664629E+02  0.18726408528E+02  0.00000000000E+00 0. -1.
         11    1    3    3    0    0  0.20835482244E+02 -0.30175738636E+02  0.24233591670E+01  0.36750036632E+02  0.51100000000E-03 0. -1.
        -11    1    3    3    0    0 -0.77424978314E+01 -0.45271240122E+01  0.74568514855E+01  0.11663865518E+02  0.51100000000E-03 0.  1.
        -12    1    3    3    0    0 -0.54879351039E+01  0.23241760561E+02  0.28274539766E+01  0.24047689321E+02  0.00000000000E+00 0.  1.
</event>
<event>
 7    1  0.1692604E-013  0.7246158E+02  0.7816164E-02  0.1226708E+00
        -11   -1    0    0    0    0  0.00000000000E+00  0.00000000000E+00  0.45593999997E+02  0.45594000000E+02  0.51100000000E-03 0.  1.
         11   -1    0    0    0    0 -0.00000000000E+00 -0.00000000000E+00 -0.45593999997E+02  0.45594000000E+02  0.51100000000E-03 0. -1.
    9900012    2    1    2    0    0  0.75414322270E+01 -0.15241185150E+02  0.78429554451E+01  0.72461578160E+02  0.70000010247E+02 0.  0.
         12    1    1    2    0    0 -0.75414322270E+01  0.15241185150E+02 -0.78429554451E+01  0.18726421840E+02  0.00000000000E+00 0. -1.
         11    1    3    3    0    0 -0.10277616750E+02  0.53108136835E+01  0.96936507079E+01  0.15093078292E+02  0.51100000000E-03 0. -1.
        -11    1    3    3    0    0  0.27974310351E+02 -0.14088962521E+02  0.16515265876E+02  0.35409248958E+02  0.51100000000E-03 0.  1.
         12    1    3    3    0    0 -0.10155261374E+02 -0.64630363119E+01 -0.18365961139E+02  0.21959250910E+02  0.00000000000E+00 0. -1.
</event>
<event>
 7    1  0.1692604E-013  0.7246174E+02  0.7816164E-02  0.1226708E+00
        -11   -1    0    0    0    0  0.00000000000E+00  0.00000000000E+00  0.45593999997E+02  0.45594000000E+02  0.51100000000E-03 0.  1.
         11   -1    0    0    0    0 -0.00000000000E+00 -0.00000000000E+00 -0.45593999997E+02  0.45594000000E+02  0.51100000000E-03 0. -1.
    9900012    2    1    2    0    0 -0.65108043273E+01  0.14286564039E+02  0.10206678824E+02  0.72461740960E+02  0.70000222323E+02 0.  0.
         12    1    1    2    0    0  0.65108043273E+01 -0.14286564039E+02 -0.10206678824E+02  0.18726259040E+02  0.00000000000E+00 0. -1.
         11    1    3    3    0    0 -0.95031750450E+01 -0.73830967761E+01  0.19728662419E+01  0.12194779843E+02  0.51100000000E-03 0. -1.
        -11    1    3    3    0    0 -0.43645794704E+01  0.29269212464E+02 -0.16132079108E+02  0.33704307274E+02  0.51100000000E-03 0.  1.
         12    1    3    3    0    0  0.73569501881E+01 -0.75995516494E+01  0.24365891690E+02  0.26562653843E+02  0.00000000000E+00 0. -1.
</event>
<event>
 7    1  0.1692604E-013  0.7246157E+02  0.7816164E-02  0.1226708E+00
        -11   -1    0    0    0    0  0.00000000000E+00  0.00000000000E+00  0.45593999997E+02  0.45594000000E+02  0.51100000000E-03 0.  1.
         11   -1    0    0    0    0 -0.00000000000E+00 -0.00000000000E+00 -0.45593999997E+02  0.45594000000E+02  0.51100000000E-03 0. -1.
    9900012    2    1    2    0    0  0.27222904151E+01 -0.11105501672E+02  0.14830244063E+02  0.72461570242E+02  0.69999999932E+02 0.  0.
         12    1    1    2    0    0 -0.27222904151E+01  0.11105501672E+02 -0.14830244063E+02  0.18726429758E+02  0.00000000000E+00 0. -1.
         11    1    3    3    0    0 -0.13272977011E+02 -0.10590519956E+02 -0.15888915316E+02  0.23254863187E+02  0.51100000000E-03 0. -1.
        -11    1    3    3    0    0 -0.68411012275E+01  0.21348246171E+00 -0.37867046076E+01  0.78221079520E+01  0.51100000000E-03 0.  1.
        -12    1    3    3    0    0  0.22836368654E+02 -0.72846417854E+00  0.34505863988E+02  0.41384599103E+02  0.00000000000E+00 0.  1.
</event>
<event>
 7    1  0.1692604E-013  0.7246158E+02  0.7816164E-02  0.1226708E+00
        -11   -1    0    0    0    0  0.00000000000E+00  0.00000000000E+00  0.45593999997E+02  0.45594000000E+02  0.51100000000E-03 0.  1.
         11   -1    0    0    0    0 -0.00000000000E+00 -0.00000000000E+00 -0.45593999997E+02  0.45594000000E+02  0.51100000000E-03 0. -1.
    9900012    2    1    2    0    0  0.37498780797E+01 -0.18109776036E+02  0.29416600436E+01  0.72461576489E+02  0.70000008070E+02 0.  0.
         12    1    1    2    0    0 -0.37498780797E+01  0.18109776036E+02 -0.29416600436E+01  0.18726423511E+02  0.00000000000E+00 0. -1.
         11    1    3    3    0    0  0.94280702634E+01  0.38562674941E+01  0.18405500173E+01  0.10351180247E+02  0.51100000000E-03 0. -1.
        -11    1    3    3    0    0  0.78355231974E+01 -0.17785117860E+02  0.26604293454E+02  0.32946840084E+02  0.51100000000E-03 0.  1.
         12    1    3    3    0    0 -0.13513715381E+02 -0.41809256707E+01 -0.25503183428E+02  0.29163556159E+02  0.00000000000E+00 0. -1.
</event>
<event>
 7    1  0.1692604E-013  0.7246131E+02  0.7816164E-02  0.1226709E+00
        -11   -1    0    0    0    0  0.00000000000E+00  0.00000000000E+00  0.45593999997E+02  0.45594000000E+02  0.51100000000E-03 0.  1.
         11   -1    0    0    0    0 -0.00000000000E+00 -0.00000000000E+00 -0.45593999997E+02  0.45594000000E+02  0.51100000000E-03 0. -1.
    9900012    2    1    2    0    0 -0.71305544330E+00 -0.24424938383E+00  0.18711510628E+02  0.72461314874E+02  0.69999667266E+02 0.  0.
         12    1    1    2    0    0  0.71305544330E+00  0.24424938383E+00 -0.18711510628E+02  0.18726685126E+02  0.00000000000E+00 0. -1.
         11    1    3    3    0    0 -0.19235493719E+02 -0.10465803176E+02 -0.65752367697E+01  0.22864185828E+02  0.51100000000E-03 0. -1.
        -11    1    3    3    0    0 -0.10725404742E+02  0.37969742197E+01  0.17548542414E+01  0.11512203689E+02  0.51100000000E-03 0.  1.
        -12    1    3    3    0    0  0.29247843018E+02  0.64245795720E+01  0.23531893157E+02  0.38084925357E+02  0.00000000000E+00 0.  1.
</event>
<event>
 7    1  0.1692604E-013  0.7246158E+02  0.7816164E-02  0.1226708E+00
        -11   -1    0    0    0    0  0.00000000000E+00  0.00000000000E+00  0.45593999997E+02  0.45594000000E+02  0.51100000000E-03 0. -1.
         11   -1    0    0    0    0 -0.00000000000E+00 -0.00000000000E+00 -0.45593999997E+02  0.45594000000E+02  0.51100000000E-03 0.  1.
    9900012    2    1    2    0    0  0.57613418985E+01  0.15167145680E+02 -0.93511127576E+01  0.72461583409E+02  0.70000017084E+02 0.  0.
         12    1    1    2    0    0 -0.57613418985E+01 -0.15167145680E+02  0.93511127576E+01  0.18726416591E+02  0.00000000000E+00 0. -1.
         11    1    3    3    0    0 -0.12178483786E+02  0.14907843782E+01  0.54574815126E+00  0.12281520536E+02  0.51100000000E-03 0. -1.
        -11    1    3    3    0    0  0.40930096226E+01  0.22778474040E+02 -0.27541581233E+02  0.35974300611E+02  0.51100000000E-03 0.  1.
         12    1    3    3    0    0  0.13846816062E+02 -0.91021127383E+01  0.17644720325E+02  0.24205762262E+02  0.00000000000E+00 0. -1.
</event>
<event>
 7    1  0.1692604E-013  0.7246157E+02  0.7816164E-02  0.1226708E+00
        -11   -1    0    0    0    0  0.00000000000E+00  0.00000000000E+00  0.45593999997E+02  0.45594000000E+02  0.51100000000E-03 0.  1.
         11   -1    0    0    0    0 -0.00000000000E+00 -0.00000000000E+00 -0.45593999997E+02  0.45594000000E+02  0.51100000000E-03 0. -1.
    9900012    2    1    2    0    0 -0.84447513922E+01  0.19270100152E+01  0.16602775453E+02  0.72461565571E+02  0.69999993847E+02 0.  0.
         12    1    1    2    0    0  0.84447513922E+01 -0.19270100152E+01 -0.16602775453E+02  0.18726434429E+02  0.00000000000E+00 0. -1.
         11    1    3    3    0    0 -0.18173083893E+02  0.73721022929E+00  0.84313152069E+01  0.20047232564E+02  0.51100000000E-03 0. -1.
        -11    1    3    3    0    0 -0.53075021590E+00  0.86681800100E+01  0.27751543938E+02  0.29078638752E+02  0.51100000000E-03 0.  1.
         12    1    3    3    0    0  0.10259082717E+02 -0.74783802241E+01 -0.19580083692E+02  0.23335694255E+02  0.00000000000E+00 0. -1.
</event>
<event>
 7    1  0.1692604E-013  0.7246157E+02  0.7816164E-02  0.1226708E+00
        -11   -1    0    0    0    0  0.00000000000E+00  0.00000000000E+00  0.45593999997E+02  0.45594000000E+02  0.51100000000E-03 0. -1.
         11   -1    0    0    0    0 -0.00000000000E+00 -0.00000000000E+00 -0.45593999997E+02  0.45594000000E+02  0.51100000000E-03 0.  1.
    9900012    2    1    2    0    0 -0.32017869655E+01 -0.15167284929E+02 -0.10506240433E+02  0.72461573221E+02  0.70000003813E+02 0.  0.
         12    1    1    2    0    0  0.32017869655E+01  0.15167284929E+02  0.10506240433E+02  0.18726426779E+02  0.00000000000E+00 0. -1.
         11    1    3    3    0    0 -0.10531235575E+02 -0.84507642211E+01  0.99782265438E+01  0.16789501002E+02  0.51100000000E-03 0. -1.
        -11    1    3    3    0    0 -0.12436814893E+02  0.14981572824E+02  0.68462290513E+00  0.19483084914E+02  0.51100000000E-03 0.  1.
        -12    1    3    3    0    0  0.19766263503E+02 -0.21698093532E+02 -0.21169089882E+02  0.36188987306E+02  0.00000000000E+00 0.  1.
</event>
<event>
 7    1  0.1692604E-013  0.7246193E+02  0.7816164E-02  0.1226707E+00
        -11   -1    0    0    0    0  0.00000000000E+00  0.00000000000E+00  0.45593999997E+02  0.45594000000E+02  0.51100000000E-03 0. -1.
         11   -1    0    0    0    0 -0.00000000000E+00 -0.00000000000E+00 -0.45593999997E+02  0.45594000000E+02  0.51100000000E-03 0.  1.
    9900012    2    1    2    0    0  0.95019020562E+01  0.12484116916E+02  0.10223822921E+02  0.72461925318E+02  0.70000462483E+02 0.  0.
         12    1    1    2    0    0 -0.95019020562E+01 -0.12484116916E+02 -0.10223822921E+02  0.18726074682E+02  0.00000000000E+00 0. -1.
         11    1    3    3    0    0 -0.84614708968E+00 -0.47761836700E+01 -0.59952839444E+00  0.48874666140E+01  0.51100000000E-03 0. -1.
        -11    1    3    3    0    0 -0.25738291363E+02 -0.22084516481E+00  0.95591281658E+01  0.27456972638E+02  0.51100000000E-03 0.  1.
         12    1    3    3    0    0  0.36086340509E+02  0.17481145751E+02  0.12642231494E+01  0.40117486066E+02  0.00000000000E+00 0. -1.
</event>
<event>
 7    1  0.1692604E-013  0.7246161E+02  0.7816164E-02  0.1226708E+00
        -11   -1    0    0    0    0  0.00000000000E+00  0.00000000000E+00  0.45593999997E+02  0.45594000000E+02  0.51100000000E-03 0. -1.
         11   -1    0    0    0    0 -0.00000000000E+00 -0.00000000000E+00 -0.45593999997E+02  0.45594000000E+02  0.51100000000E-03 0.  1.
    9900012    2    1    2    0    0 -0.18854875174E+01  0.16978597733E+02  0.76713657431E+01  0.72461609624E+02  0.70000051234E+02 0.  0.
         12    1    1    2    0    0  0.18854875174E+01 -0.16978597733E+02 -0.76713657431E+01  0.18726390376E+02  0.00000000000E+00 0. -1.
         11    1    3    3    0    0  0.17352770740E+02 -0.16881652097E+02  0.59054455602E+01  0.24919532849E+02  0.51100000000E-03 0. -1.
        -11    1    3    3    0    0  0.36174738288E+01  0.48839607865E+01  0.80694116171E+01  0.10102207381E+02  0.51100000000E-03 0.  1.
        -12    1    3    3    0    0 -0.22855732086E+02  0.28976289044E+02 -0.63034914342E+01  0.37439869394E+02  0.00000000000E+00 0.  1.
</event>
<event>
 7    1  0.1692604E-013  0.7246157E+02  0.7816164E-02  0.1226708E+00
        -11   -1    0    0    0    0  0.00000000000E+00  0.00000000000E+00  0.45593999997E+02  0.45594000000E+02  0.51100000000E-03 0.  1.
         11   -1    0    0    0    0 -0.00000000000E+00 -0.00000000000E+00 -0.45593999997E+02  0.45594000000E+02  0.51100000000E-03 0. -1.
    9900012    2    1    2    0    0 -0.37571541412E+01 -0.17158698768E+02  0.64916991025E+01  0.72461566600E+02  0.69999995188E+02 0.  0.
         12    1    1    2    0    0  0.37571541412E+01  0.17158698768E+02 -0.64916991025E+01  0.18726433400E+02  0.00000000000E+00 0. -1.
         11    1    3    3    0    0  0.11811735268E+00 -0.49224734909E+01  0.10203741552E+02  0.11329653079E+02  0.51100000000E-03 0. -1.
        -11    1    3    3    0    0 -0.14115362420E+01 -0.18996257104E+02  0.25057768070E+02  0.31476053746E+02  0.51100000000E-03 0.  1.
         12    1    3    3    0    0 -0.24637352518E+01  0.67600318272E+01 -0.28769810519E+02  0.29655859775E+02  0.00000000000E+00 0. -1.
</event>
<event>
 7    1  0.1692604E-013  0.7246155E+02  0.7816164E-02  0.1226708E+00
        -11   -1    0    0    0    0  0.00000000000E+00  0.00000000000E+00  0.45593999997E+02  0.45594000000E+02  0.51100000000E-03 0.  1.
         11   -1    0    0    0    0 -0.00000000000E+00 -0.00000000000E+00 -0.45593999997E+02  0.45594000000E+02  0.51100000000E-03 0. -1.
    9900012    2    1    2    0    0  0.84117762723E+01 -0.16715856772E+02 -0.70862240421E+00  0.72461548297E+02  0.69999971344E+02 0.  0.
         12    1    1    2    0    0 -0.84117762723E+01  0.16715856772E+02  0.70862240421E+00  0.18726451703E+02  0.00000000000E+00 0. -1.
         11    1    3    3    0    0  0.39254884217E+01  0.36435826792E+01  0.63074429520E+01  0.82745991410E+01  0.51100000000E-03 0. -1.
        -11    1    3    3    0    0 -0.37736712782E+01 -0.39956335782E+02  0.38260744905E+01  0.40316103610E+02  0.51100000000E-03 0.  1.
         12    1    3    3    0    0  0.82599591288E+01  0.19596896331E+02 -0.10842139847E+02  0.23870845546E+02  0.00000000000E+00 0. -1.
</event>
<event>
 7    1  0.1692604E-013  0.7246179E+02  0.7816164E-02  0.1226707E+00
        -11   -1    0    0    0    0  0.00000000000E+00  0.00000000000E+00  0.45593999997E+02  0.45594000000E+02  0.51100000000E-03 0.  1.
         11   -1    0    0    0    0 -0.00000000000E+00 -0.00000000000E+00 -0.45593999997E+02  0.45594000000E+02  0.51100000000E-03 0. -1.
    9900012    2    1    2    0    0  0.14856407368E+02  0.82678286489E+01  0.78486270468E+01  0.72461794379E+02  0.70000291911E+02 0.  0.
         12    1    1    2    0    0 -0.14856407368E+02 -0.82678286489E+01 -0.78486270468E+01  0.18726205621E+02  0.00000000000E+00 0. -1.
         11    1    3    3    0    0  0.38055874897E+01 -0.26247963116E+01  0.37722209848E+01  0.59667162861E+01  0.51100000000E-03 0. -1.
        -11    1    3    3    0    0  0.11569825720E+02 -0.26191325024E+02  0.63831435847E+01  0.29335829560E+02  0.51100000000E-03 0.  1.
         12    1    3    3    0    0 -0.51900584214E+00  0.37083949985E+02 -0.23067375228E+01  0.37159248533E+02  0.00000000000E+00 0. -1.
</event>
<event>
 7    1  0.1692604E-013  0.7246160E+02  0.7816164E-02  0.1226708E+00
        -11   -1    0    0    0    0  0.00000000000E+00  0.00000000000E+00  0.45593999997E+02  0.45594000000E+02  0.51100000000E-03 0.  1.
         11   -1    0    0    0    0 -0.00000000000E+00 -0.00000000000E+00 -0.45593999997E+02  0.45594000000E+02  0.51100000000E-03 0. -1.
    9900012    2    1    2    0    0 -0.47526071093E+01 -0.35052075840E+01  0.17770884681E+02  0.72461598934E+02  0.70000037308E+02 0.  0.
         12    1    1    2    0    0  0.47526071093E+01  0.35052075840E+01 -0.17770884681E+02  0.18726401066E+02  0.00000000000E+00 0. -1.
         11    1    3    3    0    0 -0.14764675131E+02 -0.27732615129E+02  0.59285885221E+01  0.31972515317E+02  0.51100000000E-03 0. -1.
        -11    1    3    3    0    0  0.98191457458E+01 -0.35613292907E+01  0.61551022083E+01  0.12123694691E+02  0.51100000000E-03 0.  1.
        -12    1    3    3    0    0  0.19292227567E+00  0.27788736835E+02  0.56871939505E+01  0.28365388926E+02  0.00000000000E+00 0.  1.
</event>
<event>
 7    1  0.1692604E-013  0.7246143E+02  0.7816164E-02  0.1226708E+00
        -11   -1    0    0    0    0  0.00000000000E+00  0.00000000000E+00  0.45593999997E+02  0.45594000000E+02  0.51100000000E-03 0.  1.
         11   -1    0    0    0    0 -0.00000000000E+00 -0.00000000000E+00 -0.45593999997E+02  0.45594000000E+02  0.51100000000E-03 0. -1.
    9900012    2    1    2    0    0 -0.11466501737E+02  0.28654397603E+01  0.14525597348E+02  0.72461431029E+02  0.69999818581E+02 0.  0.
         12    1    1    2    0    0  0.11466501737E+02 -0.28654397603E+01 -0.14525597348E+02  0.18726568971E+02  0.00000000000E+00 0. -1.
         11    1    3    3    0    0  0.52423641408E+01 -0.53218649240E+01 -0.86052283941E+01  0.11395375555E+02  0.51100000000E-03 0. -1.
        -11    1    3    3    0    0  0.14905359010E+02  0.46712572996E+01  0.24692815096E+02  0.29218581239E+02  0.51100000000E-03 0.  1.
        -12    1    3    3    0    0 -0.31614224888E+02  0.35160473846E+01 -0.15619893546E+01  0.31847474236E+02  0.00000000000E+00 0.  1.
</event>
<event>
 7    1  0.1692604E-013  0.7246152E+02  0.7816164E-02  0.1226708E+00
        -11   -1    0    0    0    0  0.00000000000E+00  0.00000000000E+00  0.45593999997E+02  0.45594000000E+02  0.51100000000E-03 0.  1.
         11   -1    0    0    0    0 -0.00000000000E+00 -0.00000000000E+00 -0.45593999997E+02  0.45594000000E+02  0.51100000000E-03 0. -1.
    9900012    2    1    2    0    0 -0.71322153893E+01  0.10324420307E+02  0.13900318711E+02  0.72461521118E+02  0.69999935939E+02 0.  0.
         12    1    1    2    0    0  0.71322153893E+01 -0.10324420307E+02 -0.13900318711E+02  0.18726478882E+02  0.00000000000E+00 0. -1.
         11    1    3    3    0    0 -0.23321253902E+02 -0.96497736173E+01  0.68779765890E+01  0.26159235016E+02  0.51100000000E-03 0. -1.
        -11    1    3    3    0    0 -0.42551998859E+01  0.20627867566E+01  0.16772063556E+02  0.17425955683E+02  0.51100000000E-03 0.  1.
        -12    1    3    3    0    0  0.20444238398E+02  0.17911407168E+02 -0.97497214343E+01  0.28876330419E+02  0.00000000000E+00 0.  1.
</event>
<event>
 7    1  0.1692604E-013  0.7246158E+02  0.7816164E-02  0.1226708E+00
        -11   -1    0    0    0    0  0.00000000000E+00  0.00000000000E+00  0.45593999997E+02  0.45594000000E+02  0.51100000000E-03 0. -1.
         11   -1    0    0    0    0 -0.00000000000E+00 -0.00000000000E+00 -0.45593999997E+02  0.45594000000E+02  0.51100000000E-03 0.  1.
    9900012    2    1    2    0    0 -0.28080447336E+01 -0.17640846754E+02  0.56208845261E+01  0.72461576629E+02  0.70000008252E+02 0.  0.
         12    1    1    2    0    0  0.28080447336E+01  0.17640846754E+02 -0.56208845261E+01  0.18726423371E+02  0.00000000000E+00 0. -1.
         11    1    3    3    0    0 -0.56060319454E+01 -0.11018279318E+02  0.17930068439E+02  0.21778829808E+02  0.51100000000E-03 0. -1.
        -11    1    3    3    0    0  0.99519524915E+01  0.51264565018E+01  0.15814189257E+02  0.19375512813E+02  0.51100000000E-03 0.  1.
        -12    1    3    3    0    0 -0.71539652796E+01 -0.11749023937E+02 -0.28123373171E+02  0.31307234007E+02  0.00000000000E+00 0.  1.
</event>
